Title
82329
    1SAPS     N    1   0.730   3.830  26.487 -0.1786 -0.0190  0.0259
    1SAPS   HN1    2   0.789   3.804  26.405  1.4412 -2.1976  1.7451
    1SAPS   HN2    3   0.690   3.923  26.465  1.5343  0.6295 -0.5371
    1SAPS   HN3    4   0.778   3.846  26.578 -1.1970 -1.8994  0.9610
    1SAPS   C12    5   0.630   3.722  26.509 -0.3910 -0.3126 -0.4054
    1SAPS  H12A    6   0.537   3.768  26.539  0.2383  1.2038 -0.6704
    1SAPS   C13    7   0.598   3.623  26.395 -0.8906 -0.6923 -1.3444
    1SAPS  O13A    8   0.651   3.625  26.281  0.3626  0.2499  0.0437
    1SAPS  O13B    9   0.492   3.559  26.411  0.3230  0.5016 -0.2270
    1SAPS   C11   10   0.686   3.646  26.630  0.3286  1.4626  0.5281
    1SAPS  H11A   11   0.773   3.582  26.604  0.5579  2.0757 -0.2454
    1SAPS  H11B   12   0.608   3.570  26.654  2.2909 -0.2930  1.7329
    1SAPS     P   13   0.616   3.757  26.849  0.0431 -0.1151 -0.0114
    1SAPS   O13   14   0.682   3.869  26.925 -0.1204 -0.1742 -0.2366
    1SAPS   O14   15   0.483   3.774  26.785  0.3744 -0.2367  0.2103
    1SAPS   O12   16   0.719   3.727  26.739 -0.1175 -0.0785 -0.3026
    1SAPS   O11   17   0.610   3.635  26.943 -0.9693  0.1738 -0.3594
    1SAPS    C1   18   0.736   3.575  26.991  0.2700 -0.7131 -0.0566
    1SAPS    HA   19   0.828   3.634  26.974 -0.0590 -0.0571  0.4063
    1SAPS    HB   20   0.741   3.553  27.099 -0.7195 -0.2378  0.0978
    1SAPS    C2   21   0.752   3.436  26.921  0.4326  0.3382  0.4111
    1SAPS    HS   22   0.763   3.457  26.813 -2.2490 -0.4230 -0.0805
    1SAPS   O21   23   0.634   3.355  26.940  0.1470  0.5599  0.4336
    1SAPS   C21   24   0.576   3.308  26.827 -0.2970 -0.3846 -0.2578
    1SAPS   O22   25   0.608   3.324  26.714 -0.5768  0.5622 -0.0145
    1SAPS   C22   26   0.449   3.228  26.863  0.1740  0.2616  0.2853
    1SAPS   H2R   27   0.380   3.294  26.920  0.8860  0.5293  0.8391
    1SAPS   H2S   28   0.396   3.207  26.767 -0.9709 -0.8896  1.1361
    1SAPS    C3   29   0.878   3.360  26.967  0.1223 -0.5570  0.1034
    1SAPS    HX   30   0.885   3.321  27.071  0.4430  1.1818  0.7674
    1SAPS    HY   31   0.965   3.428  26.959 -1.7543  1.9506 -0.5106
    1SAPS   O31   32   0.896   3.239  26.885 -0.1978 -0.3031 -0.6189
    1SAPS   C31   33   0.932   3.264  26.756  0.2586  0.1209  0.1744
    1SAPS   O32   34   0.961   3.364  26.697 -0.3056  0.1919 -0.6173
    1SAPS   C32   35   0.909   3.130  26.679  0.3268 -0.4656 -0.4954
    1SAPS   H2X   36   0.969   3.127  26.585 -0.3963 -1.4727 -0.9423
    1SAPS   H2Y   37   0.808   3.127  26.633  0.8386 -2.0134 -1.5852
    1SAPS   C23   38   0.471   3.111  26.963  0.0787  0.0701  0.1244
    1SAPS   H3R   39   0.527   3.146  27.052  2.1498  0.0734 -1.1292
    1SAPS   H3S   40   0.537   3.036  26.914  1.4544  0.9834  0.5229
    1SAPS   C24   41   0.342   3.043  27.002  0.4607  0.2052  0.3608
    1SAPS   H4R   42   0.375   2.962  27.071 -0.3287  0.2441  0.7872
    1SAPS   H4S   43   0.306   2.990  26.912 -0.2928 -0.5351  1.0822
    1SAPS   C25   44   0.234   3.124  27.077 -0.6925 -0.5119  0.4335
    1SAPS   H5R   45   0.268   3.163  27.174  0.2068 -0.2496  0.0300
    1SAPS   C26   46   0.111   3.160  27.030  0.0455  0.3391 -0.4443
    1SAPS   H6R   47   0.045   3.227  27.087 -2.0669 -2.3323  0.4652
    1SAPS   C27   48   0.044   3.100  26.912  0.3083 -0.6056  0.2011
    1SAPS   H7R   49   0.017   2.994  26.932  2.2159 -0.8168  2.0634
    1SAPS   H7S   50   0.106   3.102  26.820 -0.8363 -1.9380 -0.6431
    1SAPS   C28   51  -0.082   3.170  26.867 -0.1025  0.0186  0.6977
    1SAPS   H8R   52  -0.115   3.253  26.932  2.8720  0.4064  1.8588
    1SAPS   C29   53  -0.159   3.122  26.762  0.9131 -0.5948 -0.1976
    1SAPS   H9R   54  -0.246   3.182  26.735  1.0582  0.0674  0.7664
    1SAPS  C210   55  -0.143   3.012  26.667  0.0039 -0.5737  0.9035
    1SAPS  H10R   56  -0.211   2.927  26.690 -2.5069  1.2754  0.6721
    1SAPS  H10S   57  -0.037   2.978  26.676  1.0342  1.5906 -1.7949
    1SAPS  C211   58  -0.169   3.055  26.522  0.3923 -0.3114 -0.3913
    1SAPS  H11R   59  -0.120   3.151  26.499  0.9999 -0.1427  1.4622
    1SAPS  C212   60  -0.242   2.989  26.427 -0.6267 -0.8979 -0.8966
    1SAPS  H12R   61  -0.253   3.050  26.337 -0.0001  0.3922 -0.1293
    1SAPS  C213   62  -0.324   2.864  26.441 -0.1437  0.0542 -0.2695
    1SAPS  H13R   63  -0.309   2.817  26.540  1.1581  0.1652 -0.3916
    1SAPS  H13S   64  -0.282   2.791  26.368 -2.4167 -1.1794 -0.4402
    1SAPS  C214   65  -0.463   2.897  26.402  0.0110 -0.8006 -0.4654
    1SAPS  H14R   66  -0.474   2.979  26.329 -0.8141  0.2502  0.7942
    1SAPS  C215   67  -0.569   2.826  26.443  0.0130  0.1297 -0.2212
    1SAPS  H15R   68  -0.667   2.856  26.404  0.0451 -1.3073 -1.4940
    1SAPS  C216   69  -0.564   2.710  26.536 -0.3630  0.8350  0.6271
    1SAPS  H16R   70  -0.617   2.724  26.632  1.5255 -1.4910  2.1404
    1SAPS  H16S   71  -0.464   2.679  26.574 -0.3043 -0.2032 -0.3268
    1SAPS  C217   72  -0.605   2.566  26.473 -0.8531 -0.4241 -0.3048
    1SAPS  H17R   73  -0.714   2.580  26.454 -0.3959  2.2812 -1.3161
    1SAPS  H17S   74  -0.590   2.484  26.547 -2.1435 -0.8722 -0.5019
    1SAPS  C218   75  -0.534   2.531  26.340 -0.3724  0.3158  0.1262
    1SAPS  H18R   76  -0.423   2.540  26.349 -0.2128  0.5416 -1.6899
    1SAPS  H18S   77  -0.554   2.603  26.258 -0.1042  3.2834  2.5011
    1SAPS  C219   78  -0.565   2.384  26.307  0.3165  0.8573  0.2929
    1SAPS  H19R   79  -0.634   2.383  26.220  0.3258 -1.6458  0.2513
    1SAPS  H19S   80  -0.623   2.347  26.394  1.6726  0.1887  0.9425
    1SAPS  C220   81  -0.440   2.295  26.280  0.2557 -0.9568  0.0146
    1SAPS  H20R   82  -0.377   2.295  26.371  1.2444  0.7583 -0.6287
    1SAPS  H20S   83  -0.379   2.335  26.196 -0.8461  2.8781  0.8213
    1SAPS  H20T   84  -0.472   2.191  26.260 -0.7397 -0.8013  0.6875
    1SAPS   C33   85   0.925   2.998  26.764  1.0288 -1.0320 -0.2797
    1SAPS   H3X   86   0.827   2.951  26.785  0.4663  1.0343  2.1846
    1SAPS   H3Y   87   0.957   3.024  26.867 -0.3507  0.6167 -0.2237
    1SAPS   C34   88   1.023   2.906  26.687  0.1244  0.1217  0.8362
    1SAPS   H4X   89   1.119   2.953  26.658  1.4914 -1.0571  3.1480
    1SAPS   H4Y   90   0.968   2.878  26.594 -2.6550  1.4660  1.9429
    1SAPS   C35   91   1.046   2.773  26.756 -0.3764 -0.1074  0.6262
    1SAPS   H5X   92   1.107   2.702  26.696  1.1174  0.0286  1.8931
    1SAPS   H5Y   93   0.952   2.720  26.781 -1.1709  1.3333  0.7901
    1SAPS   C36   94   1.124   2.792  26.891 -0.2979  0.9295 -0.4241
    1SAPS   H6X   95   1.065   2.856  26.960  0.0391 -1.0673  1.8730
    1SAPS   H6Y   96   1.205   2.861  26.860 -0.9030  1.8546  0.0060
    1SAPS   C37   97   1.157   2.668  26.967 -0.4400  0.1662  0.3855
    1SAPS   H7X   98   1.200   2.596  26.894 -1.9551  2.4353 -2.9900
    1SAPS   H7Y   99   1.062   2.624  27.005  0.1142 -2.0079 -0.5981
    1SAPS   C38  100   1.267   2.677  27.080 -0.0027 -0.1046  0.2103
    1SAPS   H8X  101   1.232   2.752  27.154 -1.1830  0.0232 -0.4611
    1SAPS   H8Y  102   1.361   2.723  27.042  0.3243  0.7201  1.9108
    1SAPS   C39  103   1.300   2.553  27.163  0.4392 -0.5665 -0.0663
    1SAPS   H9X  104   1.214   2.531  27.230  0.4714  0.0755  0.1958
    1SAPS   H9Y  105   1.380   2.580  27.235  3.1257 -1.8638 -2.4087
    1SAPS  C310  106   1.352   2.436  27.087 -0.2834 -0.0291  0.7572
    1SAPS  H10X  107   1.430   2.463  27.013 -2.0948  2.5781 -0.3681
    1SAPS  H10Y  108   1.276   2.382  27.026  1.5731 -1.6702 -0.2001
    1SAPS  C311  109   1.415   2.328  27.173  0.0445 -0.0482 -0.0373
    1SAPS  H11X  110   1.452   2.382  27.262 -2.1249  0.2319  0.7494
    1SAPS  H11Y  111   1.505   2.289  27.119 -0.2968 -0.4192 -0.3436
    1SAPS  C312  112   1.325   2.215  27.217  0.0571 -0.4823 -0.1880
    1SAPS  H12X  113   1.370   2.172  27.310 -0.8099  3.0351  2.0539
    1SAPS  H12Y  114   1.324   2.130  27.145  1.3551 -0.7322  0.0606
    1SAPS  C313  115   1.185   2.246  27.271  0.1637  0.5644 -0.0062
    1SAPS  H13X  116   1.129   2.295  27.188  0.3566  1.7070  0.5146
    1SAPS  H13Y  117   1.178   2.323  27.351 -1.2531  0.0001  0.4493
    1SAPS  C314  118   1.112   2.125  27.313 -0.2829  0.6480  0.2127
    1SAPS  H14X  119   1.157   2.097  27.410 -0.2061 -0.9121 -0.2549
    1SAPS  H14Y  120   1.140   2.045  27.241  1.7911 -0.3177  1.9996
    1SAPS  C315  121   0.959   2.150  27.313  0.7531 -0.0638  1.0090
    1SAPS  H15X  122   0.934   2.241  27.372 -1.2139  0.1652 -0.0825
    1SAPS  H15Y  123   0.921   2.064  27.371 -0.4347 -0.2284  0.0091
    1SAPS  C316  124   0.898   2.156  27.174  0.3612 -0.0027  0.8119
    1SAPS  H16X  125   0.931   2.065  27.119  1.0925  1.1652 -0.7361
    1SAPS  H16Y  126   0.940   2.249  27.130  2.8644 -1.9912 -1.3014
    1SAPS  C317  127   0.740   2.157  27.180  0.1303 -0.4106  0.7706
    1SAPS  H17X  128   0.710   2.194  27.281  1.8842  0.3967  1.0340
    1SAPS  H17Y  129   0.710   2.050  27.180 -3.5265  0.4565 -1.2733
    1SAPS  C318  130   0.668   2.215  27.057  0.1782 -0.1227  0.1980
    1SAPS  H18X  131   0.667   2.324  27.074  0.1295  0.0510 -0.8443
    1SAPS  H18Y  132   0.562   2.187  27.041  0.4460 -1.0639 -0.0256
    1SAPS  H18Z  133   0.728   2.187  26.967 -1.1690 -0.3328 -0.6587
    2SAPS     N  134   2.791   3.654  25.403  0.3767  0.2136 -0.5036
    2SAPS   HN1  135   2.765   3.554  25.412 -0.6632  0.4650 -0.6502
    2SAPS   HN2  136   2.840   3.668  25.312  2.3962 -0.5704  0.3937
    2SAPS   HN3  137   2.852   3.690  25.479 -1.0163  1.1689  0.1937
    2SAPS   C12  138   2.652   3.726  25.405 -0.0752 -0.5331  0.3073
    2SAPS  H12A  139   2.608   3.743  25.503 -0.7348  1.4017 -0.2850
    2SAPS   C13  140   2.653   3.865  25.342 -0.3847 -0.2263 -0.9319
    2SAPS  O13A  141   2.760   3.917  25.309 -0.2484 -0.3173  0.7705
    2SAPS  O13B  142   2.543   3.929  25.333 -0.6296 -0.3395 -0.4646
    2SAPS   C11  143   2.554   3.634  25.330  0.6504  0.9970 -0.6761
    2SAPS  H11A  144   2.585   3.639  25.223 -2.5040 -1.0654 -1.8587
    2SAPS  H11B  145   2.451   3.676  25.330  1.0769  2.1312 -2.3448
    2SAPS     P  146   2.431   3.436  25.451 -0.2786  0.2783  0.4493
    2SAPS   O13  147   2.480   3.299  25.482  0.6981  0.0705 -0.2662
    2SAPS   O14  148   2.400   3.524  25.564  0.6291 -0.0089  0.1344
    2SAPS   O12  149   2.549   3.495  25.370 -0.6629  0.1322 -0.4477
    2SAPS   O11  150   2.306   3.429  25.346 -0.4093 -0.0756 -0.0470
    2SAPS    C1  151   2.300   3.335  25.243 -0.3526 -0.1371  0.7709
    2SAPS    HA  152   2.242   3.389  25.165  1.1609  0.1322 -0.2154
    2SAPS    HB  153   2.398   3.317  25.194 -0.5966 -2.4729  1.0269
    2SAPS    C2  154   2.231   3.194  25.275  0.4429  0.0863  0.7377
    2SAPS    HS  155   2.289   3.138  25.351  0.1410  0.2663  1.1005
    2SAPS   O21  156   2.222   3.130  25.146 -0.3741  0.7572  0.0843
    2SAPS   C21  157   2.321   3.058  25.112 -0.1293  0.4650 -0.4850
    2SAPS   O22  158   2.433   3.065  25.158  0.3761  0.4497 -0.5878
    2SAPS   C22  159   2.276   2.961  25.002  0.1399 -0.5141  0.4925
    2SAPS   H2R  160   2.183   2.912  25.036 -0.7525  1.6804  1.3528
    2SAPS   H2S  161   2.260   3.026  24.914  0.2656 -2.0414 -0.7002
    2SAPS    C3  162   2.087   3.229  25.335 -0.2074 -0.3772  0.0574
    2SAPS    HX  163   2.054   3.308  25.264  1.2818  0.0649 -0.1841
    2SAPS    HY  164   2.079   3.280  25.434 -3.5015  1.1130 -0.8575
    2SAPS   O31  165   2.006   3.112  25.334 -0.1671 -0.4282  0.0583
    2SAPS   C31  166   1.985   3.057  25.443  0.5747 -0.1345 -0.0746
    2SAPS   O32  167   2.053   3.073  25.547  0.1535  0.0085 -0.5516
    2SAPS   C32  168   1.860   2.972  25.439 -0.0917  0.1989 -0.0819
    2SAPS   H2X  169   1.831   2.965  25.332  1.5960  1.6003 -0.6830
    2SAPS   H2Y  170   1.779   3.021  25.498 -0.6059  0.7591 -1.2315
    2SAPS   C23  171   2.371   2.854  24.954 -0.6135  0.1409 -0.3001
    2SAPS   H3R  172   2.470   2.898  24.934 -0.2681  0.6365  2.1563
    2SAPS   H3S  173   2.338   2.823  24.852 -0.2846  2.2236 -1.0756
    2SAPS   C24  174   2.391   2.731  25.053  0.3211  0.2124  0.1703
    2SAPS   H4R  175   2.409   2.762  25.158  2.5921  1.7016 -0.5817
    2SAPS   H4S  176   2.489   2.687  25.024 -0.1464 -0.2973 -0.6824
    2SAPS   C25  177   2.274   2.636  25.027 -0.3657 -0.5488  0.2026
    2SAPS   H5R  178   2.184   2.693  25.000  0.3774 -0.4066 -2.2677
    2SAPS   C26  179   2.277   2.503  25.004  0.5266  0.0541 -0.0841
    2SAPS   H6R  180   2.184   2.447  24.989  1.1054 -1.6039  2.0302
    2SAPS   C27  181   2.397   2.410  24.996  0.2572  0.3437 -0.1549
    2SAPS   H7R  182   2.374   2.331  25.071  1.1353  0.2612  0.0323
    2SAPS   H7S  183   2.480   2.465  25.045 -1.6028  2.3661  0.9339
    2SAPS   C28  184   2.448   2.358  24.864  0.4978  0.3609 -0.3077
    2SAPS   H8R  185   2.452   2.439  24.790 -0.3761  1.8986  1.2376
    2SAPS   C29  186   2.490   2.230  24.845 -0.6215  0.5162 -0.2994
    2SAPS   H9R  187   2.513   2.208  24.740  0.0244  1.9444 -0.4755
    2SAPS  C210  188   2.505   2.115  24.943 -0.0900  0.5579  0.4708
    2SAPS  H10R  189   2.500   2.015  24.895 -1.8481  1.2824 -0.9462
    2SAPS  H10S  190   2.416   2.125  25.009 -1.8798 -0.0328 -1.7370
    2SAPS  C211  191   2.635   2.123  25.028 -0.3663 -0.4573 -0.0458
    2SAPS  H11R  192   2.676   2.225  25.029 -1.2847 -0.0781  0.6816
    2SAPS  C212  193   2.703   2.021  25.093 -0.1444  0.3799 -0.6220
    2SAPS  H12R  194   2.802   2.037  25.139 -0.6819  0.3436  0.5549
    2SAPS  C213  195   2.659   1.881  25.087 -0.0478  0.4566  0.9550
    2SAPS  H13R  196   2.569   1.870  25.022  0.9599  3.6623 -1.2537
    2SAPS  H13S  197   2.625   1.862  25.191 -0.8387 -1.2539  0.4135
    2SAPS  C214  198   2.758   1.766  25.049 -0.5268 -0.5059  0.4741
    2SAPS  H14R  199   2.796   1.711  25.137 -0.7548  0.1185  0.9719
    2SAPS  C215  200   2.795   1.728  24.921  0.2880  0.8530 -0.1456
    2SAPS  H15R  201   2.883   1.664  24.907  0.4820  0.8439  1.0022
    2SAPS  C216  202   2.748   1.792  24.788 -0.5950 -0.5460 -0.2172
    2SAPS  H16R  203   2.813   1.879  24.764  0.2477 -0.5402  1.8332
    2SAPS  H16S  204   2.647   1.834  24.806 -1.7785 -3.6877  1.1702
    2SAPS  C217  205   2.750   1.702  24.661 -0.3676  0.0829 -0.3973
    2SAPS  H17R  206   2.692   1.609  24.682  0.1401  0.5139  3.8692
    2SAPS  H17S  207   2.855   1.672  24.638 -0.6782  0.5027 -2.6006
    2SAPS  C218  208   2.698   1.769  24.535  0.4248 -0.0294 -0.2421
    2SAPS  H18R  209   2.715   1.699  24.450  1.4652 -1.2461  0.9216
    2SAPS  H18S  210   2.761   1.860  24.524  1.7759 -0.5435  2.4351
    2SAPS  C219  211   2.550   1.797  24.550  0.4979  0.6560  0.2649
    2SAPS  H19R  212   2.542   1.875  24.628  0.3954 -1.3858  2.4000
    2SAPS  H19S  213   2.505   1.701  24.583  1.0755  0.0872 -0.5561
    2SAPS  C220  214   2.464   1.835  24.425 -0.0659 -0.1425 -0.2105
    2SAPS  H20R  215   2.359   1.827  24.461 -0.3000 -0.7606 -1.0103
    2SAPS  H20S  216   2.478   1.753  24.352 -1.7409 -1.6491  1.0807
    2SAPS  H20T  217   2.486   1.942  24.403 -0.5797  0.6338  2.6023
    2SAPS   C33  218   1.881   2.825  25.486 -0.3527 -0.0762  0.2420
    2SAPS   H3X  219   1.781   2.782  25.508  1.6642 -3.5537  3.8375
    2SAPS   H3Y  220   1.927   2.819  25.587 -0.7113 -2.1127  0.3144
    2SAPS   C34  221   1.949   2.742  25.380  0.6222  0.4779 -0.2022
    2SAPS   H4X  222   2.048   2.783  25.350 -0.2914  0.8262 -3.1124
    2SAPS   H4Y  223   1.897   2.774  25.287 -2.0532 -1.2595  0.5965
    2SAPS   C35  224   1.946   2.595  25.407  0.2495 -0.1085  0.8767
    2SAPS   H5X  225   1.847   2.555  25.375 -0.3177 -0.2224  2.6419
    2SAPS   H5Y  226   1.972   2.583  25.515  1.2876  0.5827  0.7094
    2SAPS   C36  227   2.042   2.513  25.320 -0.7502 -0.4447  0.6171
    2SAPS   H6X  228   2.148   2.539  25.342 -0.7741 -0.8770  1.2738
    2SAPS   H6Y  229   2.030   2.533  25.211  1.8495  1.9301  0.6469
    2SAPS   C37  230   2.040   2.364  25.357  0.1678 -0.3972 -0.3972
    2SAPS   H7X  231   1.937   2.332  25.385  0.4294 -0.4630  0.5041
    2SAPS   H7Y  232   2.096   2.352  25.452 -0.5617 -0.7101 -0.0053
    2SAPS   C38  233   2.101   2.271  25.249 -0.0528 -0.3351  0.2470
    2SAPS   H8X  234   2.205   2.303  25.228 -1.1502  1.9859 -2.3484
    2SAPS   H8Y  235   2.056   2.292  25.150  4.3420  0.4872 -1.8007
    2SAPS   C39  236   2.094   2.133  25.289  0.5193  0.5275  0.1466
    2SAPS   H9X  237   2.000   2.086  25.252  0.5496 -0.1929  0.9375
    2SAPS   H9Y  238   2.097   2.131  25.400  0.6781 -1.5868  0.1614
    2SAPS  C310  239   2.209   2.055  25.221  0.4330  0.3946 -0.7368
    2SAPS  H10X  240   2.298   2.119  25.234 -0.4611  1.3879  0.7971
    2SAPS  H10Y  241   2.183   2.034  25.114 -2.1171  1.5439 -0.4250
    2SAPS  C311  242   2.231   1.914  25.282  0.3511 -0.3640  0.4768
    2SAPS  H11X  243   2.236   1.919  25.393  1.2990 -1.3957  0.5025
    2SAPS  H11Y  244   2.329   1.877  25.245 -1.1432 -1.4748 -2.6918
    2SAPS  C312  245   2.120   1.819  25.237  0.0397 -0.2106 -0.8267
    2SAPS  H12X  246   2.116   1.827  25.126 -2.7975  1.7827 -0.6978
    2SAPS  H12Y  247   2.019   1.855  25.265 -0.1397 -0.5174 -1.0779
    2SAPS  C313  248   2.139   1.678  25.292  0.3233  0.3010 -0.9709
    2SAPS  H13X  249   2.220   1.630  25.233  1.3577  2.6423 -1.5344
    2SAPS  H13Y  250   2.047   1.623  25.263 -0.9744  1.4986  0.6741
    2SAPS  C314  251   2.154   1.651  25.439 -0.6337 -0.4228 -0.5232
    2SAPS  H14X  252   2.079   1.588  25.491 -0.7262  1.3873  1.7034
    2SAPS  H14Y  253   2.145   1.740  25.505  0.3113 -1.4905  1.1033
    2SAPS  C315  254   2.296   1.586  25.459  0.0685  0.0778  0.5879
    2SAPS  H15X  255   2.384   1.650  25.437 -1.3130  1.6905 -0.5101
    2SAPS  H15Y  256   2.301   1.512  25.377  2.0474 -0.2179  0.9395
    2SAPS  C316  257   2.305   1.529  25.602 -0.2327 -0.2890 -0.4480
    2SAPS  H16X  258   2.203   1.494  25.628 -0.8172  0.4853 -1.6047
    2SAPS  H16Y  259   2.331   1.609  25.674  0.7935 -1.8176  0.9517
    2SAPS  C317  260   2.407   1.421  25.616 -0.1504 -0.0265  0.0938
    2SAPS  H17X  261   2.509   1.464  25.626  0.1500 -0.1439 -2.0264
    2SAPS  H17Y  262   2.414   1.372  25.516  0.0750  1.6119 -0.7245
    2SAPS  C318  263   2.368   1.332  25.736  0.3521  0.1646 -0.1932
    2SAPS  H18X  264   2.448   1.257  25.754 -0.3556 -0.8513 -1.1227
    2SAPS  H18Y  265   2.269   1.283  25.730  0.5812 -0.1628 -1.7665
    2SAPS  H18Z  266   2.367   1.397  25.826 -1.7057 -0.0997  0.0148
    3SAPS     N  267   3.488   3.891  27.066  0.0077 -0.3111 -0.0843
    3SAPS   HN1  268   3.449   3.985  27.045  0.4534  0.4804  2.3261
    3SAPS   HN2  269   3.494   3.831  26.981  0.4263  0.4563 -0.6135
    3SAPS   HN3  270   3.420   3.850  27.133  0.3957  1.2717  1.3500
    3SAPS   C12  271   3.624   3.929  27.123  0.9335  0.2469  0.1271
    3SAPS  H12A  272   3.662   3.835  27.160  1.1564  0.5436  0.6729
    3SAPS   C13  273   3.710   3.993  27.014 -0.2700 -0.0960  0.3634
    3SAPS  O13A  274   3.656   4.044  26.911  0.1144 -0.2571  0.8059
    3SAPS  O13B  275   3.832   4.007  27.034  0.1698  0.2567 -0.0108
    3SAPS   C11  276   3.613   4.028  27.238 -0.4021 -0.6562  0.5230
    3SAPS  H11A  277   3.582   4.128  27.202 -0.7983 -0.9614  0.0053
    3SAPS  H11B  278   3.717   4.039  27.276 -0.4598  2.4982  0.0493
    3SAPS     P  279   3.415   4.054  27.403  0.1098  0.3761  0.0708
    3SAPS   O13  280   3.346   4.108  27.288  0.7091  0.1849  0.2717
    3SAPS   O14  281   3.337   3.969  27.494 -0.5781  0.5233 -0.2842
    3SAPS   O12  282   3.537   3.973  27.349  0.1097 -0.3614 -0.4653
    3SAPS   O11  283   3.473   4.176  27.477 -0.5541  0.5409  0.0216
    3SAPS    C1  284   3.396   4.268  27.553 -0.5169 -0.6052  0.2326
    3SAPS    HA  285   3.288   4.242  27.554 -0.7110  0.1661  1.1457
    3SAPS    HB  286   3.428   4.273  27.659 -0.6234  1.6321  0.2088
    3SAPS    C2  287   3.417   4.413  27.503  0.2382  0.8816  0.2566
    3SAPS    HS  288   3.363   4.488  27.565 -0.3605 -0.5759  1.5865
    3SAPS   O21  289   3.372   4.418  27.366 -0.0002  0.2389  0.8714
    3SAPS   C21  290   3.244   4.409  27.339  0.2216  0.2644 -0.0862
    3SAPS   O22  291   3.155   4.404  27.423 -0.2122 -0.1078 -0.5899
    3SAPS   C22  292   3.225   4.411  27.186 -0.0204 -0.3447 -0.2889
    3SAPS   H2R  293   3.308   4.350  27.145  1.6537  0.9079  1.0554
    3SAPS   H2S  294   3.125   4.369  27.160 -0.0043 -0.6046  0.0587
    3SAPS    C3  295   3.559   4.462  27.501 -0.1099 -0.0365 -0.3822
    3SAPS    HX  296   3.621   4.393  27.441  0.2289 -0.8494  0.8654
    3SAPS    HY  297   3.591   4.451  27.607  0.2644 -0.1706 -0.5111
    3SAPS   O31  298   3.565   4.600  27.445  0.2936 -0.1424 -0.0521
    3SAPS   C31  299   3.670   4.668  27.508 -0.2397 -0.1423 -0.3768
    3SAPS   O32  300   3.759   4.611  27.569  0.0287 -0.1204  0.3058
    3SAPS   C32  301   3.665   4.819  27.469  0.5600  0.0697 -0.2224
    3SAPS   H2X  302   3.617   4.882  27.548  1.7952 -1.8264  2.1945
    3SAPS   H2Y  303   3.610   4.832  27.374 -0.8619  0.2085  0.5915
    3SAPS   C23  304   3.233   4.559  27.141  0.3707  0.4991  0.3589
    3SAPS   H3R  305   3.333   4.607  27.141  1.2032 -1.1324 -0.7722
    3SAPS   H3S  306   3.160   4.629  27.189  0.1655  1.9889 -1.9851
    3SAPS   C24  307   3.179   4.575  26.994 -0.1140  0.6102 -0.1785
    3SAPS   H4R  308   3.161   4.683  26.976 -0.1902  0.8557  1.2542
    3SAPS   H4S  309   3.075   4.538  26.990  0.5948 -1.4650 -0.7824
    3SAPS   C25  310   3.253   4.503  26.888 -0.2330 -1.5007 -0.0516
    3SAPS   H5R  311   3.267   4.394  26.900  1.6927 -1.2071  0.7436
    3SAPS   C26  312   3.323   4.536  26.778  0.0686 -0.7534  0.1500
    3SAPS   H6R  313   3.386   4.458  26.733 -0.0678 -2.3378  2.5540
    3SAPS   C27  314   3.330   4.678  26.737  0.4955 -0.8412  0.5372
    3SAPS   H7R  315   3.352   4.745  26.823 -1.2073 -0.7586  0.9419
    3SAPS   H7S  316   3.228   4.719  26.722  0.9519 -0.0956 -0.7132
    3SAPS   C28  317   3.432   4.706  26.629  0.0824  0.7030 -0.4733
    3SAPS   H8R  318   3.530   4.716  26.678 -1.6285  0.4289  3.4073
    3SAPS   C29  319   3.400   4.689  26.502 -0.3631  0.0521 -0.6130
    3SAPS   H9R  320   3.482   4.702  26.431 -0.3130 -0.4456 -0.6490
    3SAPS  C210  321   3.253   4.676  26.462 -0.0684 -0.5963 -0.1471
    3SAPS  H10R  322   3.206   4.769  26.502 -0.3056 -0.7688 -0.0249
    3SAPS  H10S  323   3.206   4.592  26.517  0.7989 -0.8118  0.2857
    3SAPS  C211  324   3.239   4.682  26.310  0.1186 -0.4248  0.1825
    3SAPS  H11R  325   3.287   4.601  26.254  0.1416 -0.7497  0.6649
    3SAPS  C212  326   3.163   4.769  26.236  1.0001  0.4906  0.1621
    3SAPS  H12R  327   3.158   4.761  26.127  0.8252 -1.0944  0.2644
    3SAPS  C213  328   3.060   4.859  26.294 -0.3580 -0.7177 -0.6693
    3SAPS  H13R  329   3.118   4.933  26.353  0.2215 -1.4305 -0.3352
    3SAPS  H13S  330   2.993   4.789  26.348 -1.9160 -0.2605 -1.9328
    3SAPS  C214  331   2.964   4.923  26.191 -0.3237  1.2518 -0.8427
    3SAPS  H14R  332   2.954   4.865  26.098 -0.4776  1.0450 -0.6984
    3SAPS  C215  333   2.908   5.044  26.201 -0.0709  0.5177 -0.0164
    3SAPS  H15R  334   2.848   5.072  26.113  0.1001 -1.2895 -0.7599
    3SAPS  C216  335   2.929   5.148  26.308  0.3138  0.1756 -0.6931
    3SAPS  H16R  336   3.019   5.209  26.289  2.7173 -2.0920  2.4216
    3SAPS  H16S  337   2.945   5.111  26.412  2.0783  0.9771 -0.6527
    3SAPS  C217  338   2.805   5.239  26.323 -0.4747  0.0099 -0.2464
    3SAPS  H17R  339   2.798   5.295  26.227 -0.8758  0.2864 -0.0569
    3SAPS  H17S  340   2.830   5.311  26.404  1.7793 -0.8038 -0.1577
    3SAPS  C218  341   2.669   5.168  26.357 -0.0462 -0.2041  1.2575
    3SAPS  H18R  342   2.657   5.086  26.283  1.5063 -0.3690  1.1543
    3SAPS  H18S  343   2.590   5.245  26.347  0.5253  0.1079 -1.6579
    3SAPS  C219  344   2.648   5.115  26.496 -0.3701  0.3331  0.0219
    3SAPS  H19R  345   2.722   5.036  26.524 -0.2500  0.3268 -0.3071
    3SAPS  H19S  346   2.550   5.066  26.511 -1.0509  1.3504 -1.0026
    3SAPS  C220  347   2.668   5.214  26.611  0.2350  0.1394 -0.4976
    3SAPS  H20R  348   2.775   5.239  26.626  0.3328 -1.1131  1.1823
    3SAPS  H20S  349   2.633   5.172  26.708 -0.0955 -0.2999 -0.8063
    3SAPS  H20T  350   2.614   5.309  26.586 -0.3868  0.3561  1.4526
    3SAPS   C33  351   3.814   4.873  27.445 -0.3073 -0.1025 -0.2944
    3SAPS   H3X  352   3.857   4.808  27.366  1.7518 -0.3562  0.9611
    3SAPS   H3Y  353   3.872   4.859  27.539 -1.3464  1.8212  0.7024
    3SAPS   C34  354   3.835   5.015  27.397 -0.6683  0.6906  0.3826
    3SAPS   H4X  355   3.792   5.012  27.295  3.3951  1.8072 -1.5672
    3SAPS   H4Y  356   3.942   5.027  27.369 -0.4578  0.8446  1.2321
    3SAPS   C35  357   3.769   5.125  27.471 -0.5658 -0.1446 -0.1666
    3SAPS   H5X  358   3.675   5.100  27.525  0.1535 -0.4005  0.9991
    3SAPS   H5Y  359   3.734   5.193  27.390 -1.2523  2.1843  1.9644
    3SAPS   C36  360   3.862   5.207  27.564 -0.2590 -0.1936  0.2527
    3SAPS   H6X  361   3.955   5.231  27.508  0.4529 -0.4150  1.2900
    3SAPS   H6Y  362   3.896   5.137  27.644 -0.0697  1.3667  1.5978
    3SAPS   C37  363   3.798   5.323  27.649  0.4431  0.1523  0.0612
    3SAPS   H7X  364   3.740   5.271  27.728  0.8854 -1.7861 -0.8225
    3SAPS   H7Y  365   3.721   5.380  27.594 -1.0340 -1.1225  0.7485
    3SAPS   C38  366   3.905   5.417  27.716 -0.0217 -0.0153 -1.2146
    3SAPS   H8X  367   3.968   5.448  27.629  2.1130 -2.0123 -0.4923
    3SAPS   H8Y  368   3.962   5.356  27.789 -1.2559 -0.7484 -0.8270
    3SAPS   C39  369   3.838   5.532  27.796 -0.0262  0.0316  0.0088
    3SAPS   H9X  370   3.778   5.595  27.727 -1.6064 -0.7818  0.5867
    3SAPS   H9Y  371   3.909   5.602  27.846 -1.1534  0.2479  1.3776
    3SAPS  C310  372   3.746   5.493  27.914 -0.1996 -0.6972  1.0498
    3SAPS  H10X  373   3.815   5.445  27.987  0.5925  0.4072  1.0487
    3SAPS  H10Y  374   3.675   5.412  27.887  0.4908 -0.5416 -1.4326
    3SAPS  C311  375   3.681   5.602  27.992  0.0767  0.3769 -0.0636
    3SAPS  H11X  376   3.633   5.556  28.081  1.6768 -0.8074  0.2435
    3SAPS  H11Y  377   3.591   5.640  27.939  0.1199  2.3595  1.1534
    3SAPS  C312  378   3.776   5.714  28.034 -0.5262 -1.5547  0.2192
    3SAPS  H12X  379   3.802   5.768  27.940 -1.6772 -1.3061  0.0309
    3SAPS  H12Y  380   3.874   5.679  28.074 -1.1609 -0.5765  2.7967
    3SAPS  C313  381   3.719   5.828  28.121  0.9200  0.1381  0.2287
    3SAPS  H13X  382   3.673   5.802  28.219  0.1377 -1.1861 -0.4536
    3SAPS  H13Y  383   3.636   5.868  28.059  0.6527 -0.9763 -0.1687
    3SAPS  C314  384   3.819   5.943  28.139 -0.5042 -0.0992 -0.7504
    3SAPS  H14X  385   3.855   5.985  28.043  3.5490  0.4104  0.7755
    3SAPS  H14Y  386   3.912   5.912  28.191 -0.3915  1.8845  0.3302
    3SAPS  C315  387   3.754   6.057  28.220  0.1038  0.1820 -0.1417
    3SAPS  H15X  388   3.839   6.116  28.261  0.2760  0.5153 -0.9599
    3SAPS  H15Y  389   3.702   6.004  28.303  0.0782 -0.1406 -0.3609
    3SAPS  C316  390   3.659   6.155  28.150  0.0558 -0.0486 -1.7183
    3SAPS  H16X  391   3.570   6.094  28.126  0.5450 -1.6680  0.3513
    3SAPS  H16Y  392   3.712   6.183  28.056 -1.1352 -1.2413 -2.7886
    3SAPS  C317  393   3.610   6.277  28.226 -0.3354 -0.2486 -0.0388
    3SAPS  H17X  394   3.524   6.329  28.181 -0.3144 -1.2829 -1.3299
    3SAPS  H17Y  395   3.696   6.348  28.223 -0.9555  0.4655 -1.4513
    3SAPS  C318  396   3.590   6.254  28.382 -0.4988  0.0022 -0.0562
    3SAPS  H18X  397   3.690   6.254  28.431 -0.5288 -1.2147  0.0366
    3SAPS  H18Y  398   3.535   6.159  28.400  1.8382 -1.4693 -0.2533
    3SAPS  H18Z  399   3.549   6.350  28.422 -0.7645 -0.0414 -0.2242
    4SAPS     N  400   0.858   0.119  26.156  0.3562 -0.6768 -0.2573
    4SAPS   HN1  401   0.934   0.050  26.141 -1.6398 -3.0791  0.1119
    4SAPS   HN2  402   0.782   0.078  26.099  0.4515 -0.8506 -0.2566
    4SAPS   HN3  403   0.855   0.217  26.122 -3.4045 -1.2158 -1.9615
    4SAPS   C12  404   0.801   0.118  26.293  0.2850 -0.4100 -0.1384
    4SAPS  H12A  405   0.737   0.203  26.310 -1.4309 -2.0581  2.2492
    4SAPS   C13  406   0.697   0.002  26.304 -0.1271 -0.2463  0.2423
    4SAPS  O13A  407   0.652  -0.056  26.200 -0.2001 -0.4445  0.3039
    4SAPS  O13B  408   0.668  -0.041  26.415 -0.1434 -0.5014 -0.5600
    4SAPS   C11  409   0.916   0.103  26.399  0.7571  0.6089 -0.2671
    4SAPS  H11A  410   0.972   0.011  26.371 -1.0989 -0.1891 -1.5016
    4SAPS  H11B  411   0.867   0.076  26.495  0.8533 -0.2949 -0.4633
    4SAPS     P  412   1.091   0.203  26.551 -0.1729  0.4044 -0.0491
    4SAPS   O13  413   1.030   0.111  26.651  0.3073  0.2201 -0.3074
    4SAPS   O14  414   1.232   0.180  26.517  0.3112  0.1021  0.7730
    4SAPS   O12  415   1.004   0.208  26.415 -0.4506 -0.1552  0.6893
    4SAPS   O11  416   1.076   0.349  26.597 -0.2436 -0.5750  0.3341
    4SAPS    C1  417   0.963   0.429  26.564 -0.0230 -0.1729  0.7556
    4SAPS    HA  418   0.981   0.477  26.465  1.8613 -0.9677  0.6701
    4SAPS    HB  419   0.870   0.368  26.569  0.5676 -1.2042 -0.2866
    4SAPS    C2  420   0.941   0.556  26.658 -0.0336 -0.0532 -0.0298
    4SAPS    HS  421   0.844   0.605  26.636 -0.2554 -0.4285  0.0992
    4SAPS   O21  422   1.049   0.644  26.638  0.5380 -0.5780  0.0888
    4SAPS   C21  423   1.036   0.777  26.671 -0.0195  0.1194 -0.5730
    4SAPS   O22  424   0.937   0.829  26.717 -0.3629  0.2633  0.2259
    4SAPS   C22  425   1.167   0.847  26.642  0.0127 -0.0951 -0.1087
    4SAPS   H2R  426   1.234   0.835  26.730  2.7864  0.5094 -2.0032
    4SAPS   H2S  427   1.222   0.802  26.556  1.4299  0.8272  0.2766
    4SAPS    C3  428   0.940   0.503  26.803 -0.8425  0.1761 -0.2607
    4SAPS    HX  429   1.046   0.478  26.828 -1.0476 -0.0138  0.4510
    4SAPS    HY  430   0.892   0.403  26.810 -1.4547  0.5381  1.0017
    4SAPS   O31  431   0.903   0.591  26.908  0.1789 -0.4772  0.1011
    4SAPS   C31  432   0.767   0.606  26.914 -0.5066  0.3960 -0.3737
    4SAPS   O32  433   0.691   0.527  26.860 -0.6448 -0.4311 -0.3305
    4SAPS   C32  434   0.727   0.720  26.999  0.2582 -0.5909 -0.4254
    4SAPS   H2X  435   0.794   0.805  26.971 -0.6689  0.7745  1.2966
    4SAPS   H2Y  436   0.754   0.697  27.105 -1.8913 -0.6957  0.1424
    4SAPS   C23  437   1.150   1.000  26.628  0.0718  0.5946 -0.0174
    4SAPS   H3R  438   1.244   1.042  26.670  0.2223 -2.4222  3.0945
    4SAPS   H3S  439   1.086   1.039  26.710 -0.3538  1.6626 -0.8347
    4SAPS   C24  440   1.111   1.049  26.492 -0.5404  0.5094  0.0306
    4SAPS   H4R  441   1.181   1.009  26.416  0.3161  0.0831  1.0239
    4SAPS   H4S  442   1.113   1.160  26.502  0.3131  0.4360  0.8239
    4SAPS   C25  443   0.977   1.016  26.435  0.4113 -0.3180  0.0911
    4SAPS   H5R  444   0.912   0.984  26.517  0.6964  0.4404  0.6165
    4SAPS   C26  445   0.930   1.031  26.310  0.3800 -0.4170 -0.1542
    4SAPS   H6R  446   0.826   0.996  26.299  0.3377 -0.2003 -0.4425
    4SAPS   C27  447   1.006   1.076  26.186 -0.5409 -0.7887  0.2677
    4SAPS   H7R  448   1.111   1.101  26.208 -0.0833 -0.7344 -1.7660
    4SAPS   H7S  449   0.947   1.167  26.161 -2.1081 -1.0530  2.6223
    4SAPS   C28  450   1.002   0.977  26.075  0.0952  0.0575  0.4183
    4SAPS   H8R  451   0.974   0.872  26.093  3.8117 -1.1341 -0.0159
    4SAPS   C29  452   1.029   1.001  25.947  0.4014  0.2637 -0.4750
    4SAPS   H9R  453   1.021   0.916  25.877  0.4718 -0.7949  0.7709
    4SAPS  C210  454   1.043   1.140  25.876 -0.5113  0.8161 -0.3152
    4SAPS  H10R  455   1.006   1.210  25.954 -1.0045  0.9281 -0.6433
    4SAPS  H10S  456   0.969   1.148  25.794 -1.5176 -3.0190  0.0483
    4SAPS  C211  457   1.185   1.165  25.829 -0.2579  0.5598  0.7655
    4SAPS  H11R  458   1.239   1.085  25.775 -0.8687  1.8003 -1.8734
    4SAPS  C212  459   1.249   1.290  25.836  0.3365  0.2752 -0.3652
    4SAPS  H12R  460   1.356   1.303  25.816  0.9754 -0.7250  2.0310
    4SAPS  C213  461   1.198   1.423  25.891  0.5904 -0.6066 -0.9634
    4SAPS  H13R  462   1.100   1.404  25.939 -0.0086 -0.6558 -2.1757
    4SAPS  H13S  463   1.162   1.483  25.805  1.4352  1.4586  0.0531
    4SAPS  C214  464   1.287   1.506  25.971 -0.4157 -0.6212  0.0910
    4SAPS  H14R  465   1.331   1.597  25.930  0.3769 -1.6553 -1.4660
    4SAPS  C215  466   1.332   1.471  26.091 -0.8734  0.0939  0.7863
    4SAPS  H15R  467   1.415   1.529  26.133 -0.7711 -0.7488  1.7871
    4SAPS  C216  468   1.305   1.346  26.175  0.2691 -0.1683  0.8235
    4SAPS  H16R  469   1.392   1.310  26.234  1.5175 -0.5452 -1.1739
    4SAPS  H16S  470   1.278   1.259  26.112  1.3393  0.4434 -0.5182
    4SAPS  C217  471   1.199   1.375  26.287 -0.6463  0.2078  0.5438
    4SAPS  H17R  472   1.175   1.282  26.344 -1.4035  1.4180  2.2874
    4SAPS  H17S  473   1.103   1.403  26.239 -1.8411  2.5377  3.9455
    4SAPS  C218  474   1.235   1.492  26.377  0.1675 -0.6545  0.2318
    4SAPS  H18R  475   1.235   1.584  26.315  1.1440 -0.8995 -0.1586
    4SAPS  H18S  476   1.335   1.484  26.425  0.4154  0.0618 -0.1595
    4SAPS  C219  477   1.128   1.499  26.474  0.4121 -0.0708  0.1213
    4SAPS  H19R  478   1.147   1.415  26.544  2.2467  0.0300 -0.1970
    4SAPS  H19S  479   1.030   1.483  26.425 -0.4448  3.1120  0.5814
    4SAPS  C220  480   1.115   1.637  26.543 -0.4147 -0.3780  0.2604
    4SAPS  H20R  481   1.200   1.654  26.613  1.1439 -1.8379 -1.1571
    4SAPS  H20S  482   1.015   1.627  26.589  0.4779 -1.6433  2.0392
    4SAPS  H20T  483   1.104   1.718  26.468 -0.9607  0.2605  1.0193
    4SAPS   C33  484   0.582   0.759  27.002  0.2156 -0.3009 -0.6072
    4SAPS   H3X  485   0.537   0.697  27.082  0.6690 -0.1653 -0.2398
    4SAPS   H3Y  486   0.526   0.746  26.907 -1.7901  0.5407  0.3851
    4SAPS   C34  487   0.551   0.900  27.052  0.1316  0.0255 -0.0373
    4SAPS   H4X  488   0.598   0.967  26.977  0.9043  1.2737  1.5007
    4SAPS   H4Y  489   0.594   0.926  27.151  0.1752  0.5363 -0.1863
    4SAPS   C35  490   0.396   0.930  27.061  0.0673  0.3126 -0.0610
    4SAPS   H5X  491   0.350   0.877  27.147 -1.2170 -1.0430 -1.5436
    4SAPS   H5Y  492   0.349   0.907  26.963 -0.5922  1.4606 -0.0427
    4SAPS   C36  493   0.377   1.078  27.076  0.6415 -0.6245 -0.0975
    4SAPS   H6X  494   0.268   1.101  27.065  0.4322 -2.1367 -1.5175
    4SAPS   H6Y  495   0.422   1.126  26.987 -2.0269  2.3089 -0.0338
    4SAPS   C37  496   0.408   1.135  27.218  0.0768  0.2795 -0.3441
    4SAPS   H7X  497   0.385   1.053  27.289  0.6646 -0.2676 -0.7738
    4SAPS   H7Y  498   0.343   1.223  27.237  2.7234  2.4908 -0.9558
    4SAPS   C38  499   0.553   1.183  27.245 -0.1555  0.4530 -0.2618
    4SAPS   H8X  500   0.623   1.097  27.243 -1.1192 -0.3591  0.1266
    4SAPS   H8Y  501   0.545   1.226  27.347 -1.4738 -1.4348  0.4877
    4SAPS   C39  502   0.591   1.297  27.147 -0.3266 -0.0907 -0.5368
    4SAPS   H9X  503   0.506   1.368  27.141 -0.0089  0.3266 -0.1249
    4SAPS   H9Y  504   0.612   1.257  27.045 -2.2924 -2.0165 -0.2831
    4SAPS  C310  505   0.714   1.379  27.204 -0.4648  0.5651  0.5531
    4SAPS  H10X  506   0.801   1.310  27.207 -1.0143 -0.2450 -0.9648
    4SAPS  H10Y  507   0.691   1.417  27.306 -1.3370  1.7176 -0.0562
    4SAPS  C311  508   0.755   1.499  27.115  0.5148  0.2298  0.3987
    4SAPS  H11X  509   0.670   1.572  27.110 -1.8797 -2.4015  0.0142
    4SAPS  H11Y  510   0.772   1.465  27.010 -3.0165  0.9303 -0.5375
    4SAPS  C312  511   0.874   1.576  27.167 -1.1392 -0.3976 -0.1158
    4SAPS  H12X  512   0.955   1.503  27.185  0.6413  1.8526  1.6607
    4SAPS  H12Y  513   0.855   1.618  27.269  2.8850  1.9599 -0.1144
    4SAPS  C313  514   0.947   1.670  27.067 -0.6044 -0.3370 -0.2341
    4SAPS  H13X  515   0.882   1.752  27.030 -0.5942  0.9164  2.3204
    4SAPS  H13Y  516   0.971   1.608  26.978  0.0878  0.9563 -0.9724
    4SAPS  C314  517   1.080   1.719  27.125 -0.8005 -0.0515  0.4261
    4SAPS  H14X  518   1.119   1.631  27.181 -0.3980 -1.1291 -1.4684
    4SAPS  H14Y  519   1.068   1.810  27.188  1.8837 -0.0212  1.0109
    4SAPS  C315  520   1.170   1.777  27.016  0.2932 -0.3533  0.6313
    4SAPS  H15X  521   1.120   1.870  26.981  0.5386  0.1456  1.5544
    4SAPS  H15Y  522   1.193   1.702  26.938  2.5202 -0.3837  1.2424
    4SAPS  C316  523   1.305   1.810  27.067  0.2430 -0.3244  0.1463
    4SAPS  H16X  524   1.355   1.721  27.111  0.7248  0.2993  0.8760
    4SAPS  H16Y  525   1.318   1.883  27.150  1.6840 -0.8802  0.4350
    4SAPS  C317  526   1.401   1.859  26.953 -0.5378 -0.6373  1.0457
    4SAPS  H17X  527   1.495   1.897  26.999  0.9774  0.1776 -2.3956
    4SAPS  H17Y  528   1.347   1.945  26.908 -0.4142 -0.0463  1.9863
    4SAPS  C318  529   1.417   1.752  26.841  0.2883  0.9869  0.2793
    4SAPS  H18X  530   1.317   1.729  26.798 -0.3664  1.3849  1.5503
    4SAPS  H18Y  531   1.468   1.658  26.871 -2.0387  0.0689  1.5913
    4SAPS  H18Z  532   1.474   1.786  26.752 -1.1004 -2.1708 -2.0268
    5SAPS     N  533   0.050   0.411  30.900 -0.3739  1.3186 -0.6378
    5SAPS   HN1  534   0.013   0.434  30.995  0.2348  1.7753 -0.5011
    5SAPS   HN2  535  -0.004   0.339  30.848 -0.5298  0.2820  0.8795
    5SAPS   HN3  536   0.150   0.381  30.900 -0.9327 -0.7111 -1.7362
    5SAPS   C12  537   0.041   0.540  30.834  0.4669  0.3110 -0.0441
    5SAPS  H12A  538  -0.050   0.589  30.866 -1.0043 -1.7888 -0.8131
    5SAPS   C13  539   0.140   0.654  30.870 -0.6032  0.2082 -0.1146
    5SAPS  O13A  540   0.230   0.624  30.956  0.4933  0.1376 -0.0112
    5SAPS  O13B  541   0.125   0.772  30.831 -0.4179 -0.1974 -0.0112
    5SAPS   C11  542   0.045   0.525  30.686  0.2051  0.4031  0.7001
    5SAPS  H11A  543   0.151   0.512  30.658  0.5787 -1.3576  2.6990
    5SAPS  H11B  544   0.001   0.619  30.646  0.8994 -0.7039 -3.0508
    5SAPS     P  545  -0.011   0.375  30.484 -0.2118 -0.1677 -0.3015
    5SAPS   O13  546   0.131   0.349  30.451  0.0956  0.0521  0.1010
    5SAPS   O14  547  -0.100   0.266  30.441 -0.1939  0.5611 -0.5831
    5SAPS   O12  548  -0.022   0.407  30.638  0.1653  0.2737 -0.2469
    5SAPS   O11  549  -0.063   0.514  30.433 -0.0040  0.1882  0.2567
    5SAPS    C1  550   0.030   0.606  30.378  0.5293  0.3659 -0.3855
    5SAPS    HA  551   0.116   0.609  30.447  0.1857  0.8880  0.0303
    5SAPS    HB  552   0.060   0.574  30.276  1.1470  1.7165 -0.6519
    5SAPS    C2  553  -0.035   0.748  30.378  0.2318  0.1352  0.2907
    5SAPS    HS  554  -0.046   0.777  30.485 -1.2488 -0.4775  0.3411
    5SAPS   O21  555  -0.162   0.737  30.307  0.2236 -0.2381  0.5770
    5SAPS   C21  556  -0.253   0.799  30.372  0.7703  0.0940  0.4114
    5SAPS   O22  557  -0.246   0.864  30.476 -0.2848 -0.5788 -0.5169
    5SAPS   C22  558  -0.383   0.791  30.291 -0.4737 -0.5154 -0.6876
    5SAPS   H2R  559  -0.346   0.787  30.186  0.3704 -1.6153 -0.3733
    5SAPS   H2S  560  -0.424   0.690  30.315 -0.7576 -0.1111  0.5979
    5SAPS    C3  561   0.051   0.846  30.295 -0.1815  0.4997  0.1238
    5SAPS    HX  562   0.051   0.815  30.188 -1.3730  0.7253  0.0469
    5SAPS    HY  563   0.149   0.859  30.345 -1.1933  3.5827  1.5375
    5SAPS   O31  564  -0.014   0.978  30.295 -0.1566 -0.5523  0.0165
    5SAPS   C31  565  -0.009   1.057  30.406  0.7876 -0.7915 -0.0956
    5SAPS   O32  566   0.047   1.029  30.512  0.2070  0.2691  0.0815
    5SAPS   C32  567  -0.095   1.183  30.383 -0.3859  0.5330 -0.4206
    5SAPS   H2X  568  -0.191   1.170  30.437 -0.7334  2.0627 -0.6509
    5SAPS   H2Y  569  -0.113   1.197  30.274  1.3087 -3.5738 -1.4268
    5SAPS   C23  570  -0.471   0.911  30.320  0.1373 -0.2292 -0.9218
    5SAPS   H3R  571  -0.415   1.006  30.303 -0.5887  0.2699 -0.5823
    5SAPS   H3S  572  -0.494   0.904  30.428 -1.0767 -1.9509 -1.2463
    5SAPS   C24  573  -0.607   0.916  30.244 -0.3860 -0.6425  0.7259
    5SAPS   H4R  574  -0.657   1.012  30.270  0.5370 -0.1017  0.5547
    5SAPS   H4S  575  -0.667   0.829  30.279  0.5659 -1.5876  0.1016
    5SAPS   C25  576  -0.584   0.899  30.096  0.0449  0.3999 -0.4298
    5SAPS   H5R  577  -0.522   0.815  30.063  0.3121  0.0300  0.9719
    5SAPS   C26  578  -0.619   0.980  29.998 -0.2001 -0.1794 -0.1402
    5SAPS   H6R  579  -0.577   0.969  29.897 -2.2351  0.3532 -1.1180
    5SAPS   C27  580  -0.713   1.097  30.010  0.5406 -0.6388  1.1235
    5SAPS   H7R  581  -0.662   1.190  30.044  0.7639  0.1371 -1.1533
    5SAPS   H7S  582  -0.805   1.073  30.067 -0.6694 -0.4912 -0.7021
    5SAPS   C28  583  -0.762   1.124  29.868  0.4180  0.8623 -0.2379
    5SAPS   H8R  584  -0.831   1.050  29.825  0.8774  1.7906 -2.7440
    5SAPS   C29  585  -0.725   1.216  29.781 -0.2148 -0.0564 -0.1731
    5SAPS   H9R  586  -0.774   1.226  29.682  0.3233  0.1869 -0.4215
    5SAPS  C210  587  -0.611   1.317  29.812  0.1659  0.2161  0.8273
    5SAPS  H10R  588  -0.525   1.249  29.834 -0.7772 -0.8491  1.3345
    5SAPS  H10S  589  -0.630   1.371  29.907 -1.9165 -0.8928  1.1067
    5SAPS  C211  590  -0.576   1.406  29.700 -0.3238  0.0486 -0.3063
    5SAPS  H11R  591  -0.603   1.512  29.711 -0.0222  0.0873  0.0860
    5SAPS  C212  592  -0.491   1.377  29.600  0.1157  1.1739  0.1641
    5SAPS  H12R  593  -0.463   1.463  29.538  1.8108  2.0319  2.0104
    5SAPS  C213  594  -0.435   1.236  29.586  0.4814  0.2971  0.8095
    5SAPS  H13R  595  -0.519   1.164  29.596 -0.9838  1.8546  0.3313
    5SAPS  H13S  596  -0.366   1.212  29.669  0.4654 -2.0589  0.2197
    5SAPS  C214  597  -0.363   1.216  29.453  0.5403  0.6009  0.7012
    5SAPS  H14R  598  -0.368   1.299  29.381 -3.3080  0.5737  0.7053
    5SAPS  C215  599  -0.327   1.100  29.410 -0.2737  0.5129 -0.5931
    5SAPS  H15R  600  -0.304   1.101  29.302 -2.4008  0.2356 -1.1051
    5SAPS  C216  601  -0.332   0.963  29.480  0.3700  0.1603 -0.8017
    5SAPS  H16R  602  -0.350   0.983  29.588  1.8493  0.9901 -0.6658
    5SAPS  H16S  603  -0.233   0.913  29.474  0.0555 -0.6751  0.4656
    5SAPS  C217  604  -0.432   0.850  29.435  0.1741 -0.5799  0.1640
    5SAPS  H17R  605  -0.534   0.882  29.465 -0.6520 -2.8153 -0.0852
    5SAPS  H17S  606  -0.414   0.761  29.500 -1.7224 -1.3048 -0.2207
    5SAPS  C218  607  -0.416   0.798  29.296  0.4916  0.2727  0.7694
    5SAPS  H18R  608  -0.519   0.768  29.266 -0.2301  0.9894  2.4339
    5SAPS  H18S  609  -0.378   0.874  29.224  2.3089 -0.5730  0.7784
    5SAPS  C219  610  -0.337   0.675  29.282  0.3352  0.0203 -0.1078
    5SAPS  H19R  611  -0.361   0.609  29.368  0.9746  1.3628  1.1361
    5SAPS  H19S  612  -0.230   0.701  29.293  0.0088  1.1707  0.4262
    5SAPS  C220  613  -0.351   0.593  29.154 -0.2592  0.3585  0.5095
    5SAPS  H20R  614  -0.457   0.568  29.131 -0.0123 -0.8871  0.6686
    5SAPS  H20S  615  -0.284   0.504  29.159  0.2233  0.5628 -1.3682
    5SAPS  H20T  616  -0.302   0.652  29.073  1.6189  0.6174  1.7596
    5SAPS   C33  617  -0.022   1.316  30.430 -0.3451  0.0343  0.7749
    5SAPS   H3X  618   0.008   1.311  30.536 -1.4421  1.8982  1.2236
    5SAPS   H3Y  619  -0.090   1.401  30.406 -0.1457  0.4857  1.7570
    5SAPS   C34  620   0.098   1.344  30.338  0.4638 -0.1408  0.0423
    5SAPS   H4X  621   0.066   1.334  30.232  0.8209 -0.9310 -0.0052
    5SAPS   H4Y  622   0.191   1.283  30.347  1.0497  0.6187 -0.6992
    5SAPS   C35  623   0.147   1.497  30.357  0.6118  0.3000 -0.0020
    5SAPS   H5X  624   0.151   1.522  30.466  1.6295 -1.2387  0.3301
    5SAPS   H5Y  625   0.071   1.567  30.315 -1.3201 -1.8459 -0.3293
    5SAPS   C36  626   0.282   1.518  30.309 -0.2828 -0.0659 -0.5319
    5SAPS   H6X  627   0.278   1.564  30.208  0.5027  1.0494 -0.0689
    5SAPS   H6Y  628   0.343   1.425  30.297 -2.6951 -1.7097 -0.8052
    5SAPS   C37  629   0.363   1.617  30.397  0.0622  0.4443  0.3404
    5SAPS   H7X  630   0.385   1.582  30.500  0.2920  1.6796  0.7266
    5SAPS   H7Y  631   0.304   1.710  30.386  2.0570  1.4801 -3.4050
    5SAPS   C38  632   0.500   1.653  30.329  0.0624 -0.6379  0.0361
    5SAPS   H8X  633   0.475   1.690  30.227 -1.8432  1.1775  1.0811
    5SAPS   H8Y  634   0.566   1.563  30.330  1.1378 -0.0850 -4.1363
    5SAPS   C39  635   0.572   1.769  30.398 -0.2401 -0.3150 -0.7516
    5SAPS   H9X  636   0.578   1.743  30.506 -1.5137  0.0176 -0.5844
    5SAPS   H9Y  637   0.501   1.854  30.386  0.7951  1.1399  2.2456
    5SAPS  C310  638   0.705   1.807  30.348 -0.7121 -0.8439  0.8497
    5SAPS  H10X  639   0.714   1.805  30.237 -0.9900 -0.5169  0.8185
    5SAPS  H10Y  640   0.769   1.724  30.384  0.2487 -1.1117 -1.3088
    5SAPS  C311  641   0.770   1.940  30.396  0.8541 -0.3870 -0.5359
    5SAPS  H11X  642   0.881   1.944  30.387  1.1242  1.5996  2.3437
    5SAPS  H11Y  643   0.746   1.932  30.504 -0.0848  1.7017 -0.5350
    5SAPS  C312  644   0.700   2.062  30.351  0.5176 -0.2697 -0.8266
    5SAPS  H12X  645   0.594   2.065  30.384  0.0988 -0.8642 -2.0827
    5SAPS  H12Y  646   0.691   2.077  30.242 -1.3344  1.4899 -0.4980
    5SAPS  C313  647   0.772   2.184  30.407  0.3959 -0.2164 -0.1916
    5SAPS  H13X  648   0.857   2.220  30.345  0.0921  0.0787 -0.4432
    5SAPS  H13Y  649   0.811   2.169  30.510  1.5141 -2.9345 -0.9397
    5SAPS  C314  650   0.671   2.305  30.405 -0.4655  0.2644 -0.0720
    5SAPS  H14X  651   0.587   2.277  30.472  0.7054  0.9795  1.7733
    5SAPS  H14Y  652   0.641   2.321  30.299  1.1532  2.5883 -0.2590
    5SAPS  C315  653   0.712   2.444  30.461  0.4690 -0.1902 -0.1452
    5SAPS  H15X  654   0.729   2.425  30.570 -2.1620 -2.0283  0.0477
    5SAPS  H15Y  655   0.623   2.511  30.455 -1.2770 -2.4161 -0.5587
    5SAPS  C316  656   0.838   2.511  30.394  0.1360 -0.4977 -0.5053
    5SAPS  H16X  657   0.819   2.498  30.285  2.2924 -0.0825 -0.9834
    5SAPS  H16Y  658   0.928   2.455  30.429 -1.5718 -1.0737  3.4017
    5SAPS  C317  659   0.856   2.664  30.420 -0.0918 -0.3129  0.2979
    5SAPS  H17X  660   0.760   2.718  30.412 -0.9116 -1.4833  1.6452
    5SAPS  H17Y  661   0.926   2.706  30.344 -0.0255 -1.7812 -0.4941
    5SAPS  C318  662   0.920   2.696  30.557 -0.0353  0.8652 -0.2426
    5SAPS  H18X  663   0.860   2.650  30.639  0.9961 -0.5167 -0.2120
    5SAPS  H18Y  664   0.933   2.805  30.575  0.9685  0.4286  2.0219
    5SAPS  H18Z  665   1.014   2.637  30.561 -1.6350 -1.8903 -0.4650
    6SAPS     N  666   0.674   3.823  26.067 -0.3125 -0.4238 -0.1488
    6SAPS   HN1  667   0.661   3.926  26.079 -0.5609 -0.6892  2.2447
    6SAPS   HN2  668   0.608   3.775  26.003  0.5103 -0.1930 -1.2179
    6SAPS   HN3  669   0.671   3.784  26.163  1.3367  2.4049  1.2088
    6SAPS   C12  670   0.816   3.792  26.032 -0.2168  0.1327  0.0779
    6SAPS  H12A  671   0.848   3.862  25.957  1.5677 -1.2753 -0.5456
    6SAPS   C13  672   0.914   3.805  26.153  0.5066 -0.4355 -0.2402
    6SAPS  O13A  673   0.874   3.850  26.263 -0.1675  0.1885  0.4656
    6SAPS  O13B  674   1.038   3.780  26.139  0.6819 -0.2012  0.1244
    6SAPS   C11  675   0.832   3.640  25.982 -0.5586  0.3210 -0.5431
    6SAPS  H11A  676   0.829   3.574  26.071  1.3321  0.2007 -0.5300
    6SAPS  H11B  677   0.939   3.623  25.956 -0.3956  0.5543 -0.0302
    6SAPS     P  678   0.636   3.503  25.872  0.0854 -0.1120  0.1579
    6SAPS   O13  679   0.525   3.583  25.942 -0.1279  0.1418  0.1168
    6SAPS   O14  680   0.624   3.470  25.725 -0.4474  0.0854  0.2057
    6SAPS   O12  681   0.756   3.607  25.864 -0.1227  0.5523 -0.0050
    6SAPS   O11  682   0.687   3.382  25.956  0.0223 -0.3425 -0.7779
    6SAPS    C1  683   0.797   3.300  25.914  0.0070  0.2853  0.5822
    6SAPS    HA  684   0.817   3.312  25.805 -1.5197  1.7361  0.4167
    6SAPS    HB  685   0.888   3.333  25.969  0.9494  2.4250 -2.0320
    6SAPS    C2  686   0.765   3.149  25.943 -0.1244  0.2348  0.2292
    6SAPS    HS  687   0.665   3.130  25.899 -0.0233  3.7537 -1.8757
    6SAPS   O21  688   0.761   3.125  26.083 -0.2603  0.7683 -0.0378
    6SAPS   C21  689   0.645   3.148  26.140  0.3176 -0.0841 -0.2259
    6SAPS   O22  690   0.535   3.192  26.096 -0.1444 -0.4567 -0.2665
    6SAPS   C22  691   0.659   3.094  26.274 -0.4319  0.5771  0.0359
    6SAPS   H2R  692   0.761   3.102  26.318  1.1737  0.3117 -3.3167
    6SAPS   H2S  693   0.591   3.153  26.339  0.0997  0.0569  1.0885
    6SAPS    C3  694   0.871   3.051  25.882  0.7602 -0.5709 -0.5242
    6SAPS    HX  695   0.848   3.058  25.774 -0.7633 -2.3782 -0.3651
    6SAPS    HY  696   0.844   2.947  25.911 -2.6548 -0.0692 -1.5240
    6SAPS   O31  697   1.002   3.085  25.930  0.2654 -0.5330 -0.5476
    6SAPS   C31  698   1.080   3.150  25.834  0.2992 -0.0875 -0.1044
    6SAPS   O32  699   1.047   3.181  25.724  0.7130 -0.3630 -0.0137
    6SAPS   C32  700   1.225   3.161  25.881  0.3898 -0.5539 -0.4591
    6SAPS   H2X  701   1.234   3.259  25.933 -2.4154 -0.8581  0.7650
    6SAPS   H2Y  702   1.272   3.168  25.781 -1.8436  0.6505 -1.5139
    6SAPS   C23  703   0.611   2.949  26.296 -0.0200  0.0696  0.2845
    6SAPS   H3R  704   0.694   2.893  26.247  0.0161  1.4607 -1.3630
    6SAPS   H3S  705   0.510   2.925  26.257 -0.5290 -0.2688  1.7692
    6SAPS   C24  706   0.606   2.889  26.438  0.1770 -0.2320  0.3336
    6SAPS   H4R  707   0.712   2.876  26.470  0.4121 -2.7786 -1.2254
    6SAPS   H4S  708   0.558   2.790  26.427 -0.5583  0.2189 -0.7272
    6SAPS   C25  709   0.530   2.983  26.527 -0.5273 -0.0781  0.4038
    6SAPS   H5R  710   0.583   3.076  26.555  0.7775  0.1619 -2.5132
    6SAPS   C26  711   0.399   2.976  26.555  0.2443  0.2636 -0.0998
    6SAPS   H6R  712   0.356   3.044  26.630  0.2757  1.1999 -0.9098
    6SAPS   C27  713   0.313   2.859  26.540 -0.2153 -0.5500 -0.1806
    6SAPS   H7R  714   0.262   2.839  26.637 -2.3061 -0.5381 -1.1992
    6SAPS   H7S  715   0.365   2.769  26.500  0.7169 -0.1771  0.1854
    6SAPS   C28  716   0.195   2.896  26.455  0.6744  0.0173  0.8548
    6SAPS   H8R  717   0.124   2.974  26.485 -0.9108 -1.3502  0.7860
    6SAPS   C29  718   0.157   2.824  26.349  1.3386 -0.2106 -0.6274
    6SAPS   H9R  719   0.055   2.837  26.309  1.6051  0.4718 -1.1121
    6SAPS  C210  720   0.226   2.714  26.278 -0.3621  0.5033  0.0851
    6SAPS  H10R  721   0.335   2.708  26.295 -0.1640  1.4502 -0.7809
    6SAPS  H10S  722   0.224   2.736  26.169 -0.4083  1.0296  0.1895
    6SAPS  C211  723   0.185   2.566  26.285  0.2604 -0.1983  0.3397
    6SAPS  H11R  724   0.191   2.536  26.390 -0.6356  0.4420  0.5762
    6SAPS  C212  725   0.163   2.469  26.186 -0.0660 -0.3417  1.1639
    6SAPS  H12R  726   0.137   2.367  26.218  0.1299 -0.0713  2.2504
    6SAPS  C213  727   0.140   2.501  26.039 -0.3209 -0.2499 -0.6610
    6SAPS  H13R  728   0.230   2.555  26.003  0.1026  0.4792  1.3280
    6SAPS  H13S  729   0.054   2.569  26.025  1.3299  2.5005  1.5343
    6SAPS  C214  730   0.101   2.374  25.961  0.6897  0.1165  0.0058
    6SAPS  H14R  731   0.059   2.285  26.009 -0.6387  0.0249 -1.2336
    6SAPS  C215  732   0.098   2.385  25.825  0.6912 -0.9684  1.5498
    6SAPS  H15R  733   0.071   2.295  25.767  0.1079  0.7783 -1.0693
    6SAPS  C216  734   0.157   2.498  25.743  0.0550 -0.0526  0.1640
    6SAPS  H16R  735   0.181   2.583  25.810  2.0684 -0.5589  0.1435
    6SAPS  H16S  736   0.089   2.541  25.666  1.8466  0.7049 -1.0461
    6SAPS  C217  737   0.291   2.443  25.686 -0.0741 -0.5852 -0.0790
    6SAPS  H17R  738   0.273   2.386  25.593  2.1572  3.0332 -3.0299
    6SAPS  H17S  739   0.345   2.375  25.756  2.2624  0.1380 -1.0970
    6SAPS  C218  740   0.401   2.547  25.650 -0.6622  0.0874 -0.2096
    6SAPS  H18R  741   0.347   2.621  25.587 -0.8984 -0.8102 -1.1061
    6SAPS  H18S  742   0.480   2.496  25.591 -3.0907 -1.4005 -2.3777
    6SAPS  C219  743   0.457   2.608  25.779 -0.3987 -0.5450 -0.7291
    6SAPS  H19R  744   0.468   2.515  25.839  0.1338 -0.4268 -0.6436
    6SAPS  H19S  745   0.384   2.675  25.830  2.4262  1.9565  0.2825
    6SAPS  C220  746   0.585   2.692  25.772 -0.1017 -0.2831 -0.0372
    6SAPS  H20R  747   0.568   2.771  25.695  0.9573  1.1733  1.1588
    6SAPS  H20S  748   0.674   2.638  25.735 -0.7019 -1.5095  0.2551
    6SAPS  H20T  749   0.617   2.734  25.870  1.1720  1.6164 -1.1887
    6SAPS   C33  750   1.275   3.054  25.979  0.9642 -0.1214 -0.0614
    6SAPS   H3X  751   1.222   3.071  26.075 -2.3678 -0.8452 -1.6337
    6SAPS   H3Y  752   1.385   3.063  25.993  1.1762  1.2747 -2.2358
    6SAPS   C34  753   1.242   2.911  25.952  0.2061  0.0381  0.1176
    6SAPS   H4X  754   1.136   2.887  25.929  0.5482 -1.4565 -0.0069
    6SAPS   H4Y  755   1.270   2.852  26.042  1.2112 -1.0510 -0.8685
    6SAPS   C35  756   1.319   2.847  25.840  0.2709  0.1126 -0.2785
    6SAPS   H5X  757   1.429   2.862  25.849  0.4908 -1.8447  0.9550
    6SAPS   H5Y  758   1.295   2.877  25.736 -1.5624 -1.3268 -0.3172
    6SAPS   C36  759   1.290   2.695  25.834 -0.4384  0.2032 -0.4596
    6SAPS   H6X  760   1.183   2.682  25.807 -1.0708 -0.1842  1.9884
    6SAPS   H6Y  761   1.306   2.649  25.934 -1.9051 -0.6710 -0.5886
    6SAPS   C37  762   1.386   2.630  25.732 -0.5823  0.3759  0.3885
    6SAPS   H7X  763   1.483   2.638  25.785 -1.0216  1.8341  1.0348
    6SAPS   H7Y  764   1.387   2.685  25.636  0.9798  0.5280  0.4752
    6SAPS   C38  765   1.368   2.473  25.720 -0.9082 -1.0193 -0.2230
    6SAPS   H8X  766   1.273   2.440  25.671 -2.3826  0.9832  1.1627
    6SAPS   H8Y  767   1.389   2.415  25.813 -0.3998  0.0318  0.3329
    6SAPS   C39  768   1.473   2.421  25.612  0.1393 -0.0892 -0.5872
    6SAPS   H9X  769   1.558   2.492  25.616  0.0681 -0.0199 -0.2897
    6SAPS   H9Y  770   1.423   2.427  25.513  2.5881  0.5262 -1.8566
    6SAPS  C310  771   1.518   2.277  25.643  0.1875  0.4522 -0.0610
    6SAPS  H10X  772   1.430   2.211  25.658  0.9287 -0.8656 -1.1992
    6SAPS  H10Y  773   1.583   2.269  25.732  1.4664 -0.8053 -1.0560
    6SAPS  C311  774   1.595   2.217  25.523  0.0541 -0.2695 -0.6135
    6SAPS  H11X  775   1.666   2.146  25.570 -0.6656 -0.8421 -0.3765
    6SAPS  H11Y  776   1.663   2.289  25.472  0.9266 -0.2342  0.5523
    6SAPS  C312  777   1.498   2.166  25.421  0.1035 -0.8607  0.1061
    6SAPS  H12X  778   1.438   2.246  25.373 -2.3942 -3.2757 -1.0789
    6SAPS  H12Y  779   1.422   2.114  25.484  0.7028 -2.0822 -0.1420
    6SAPS  C313  780   1.571   2.088  25.305  0.5639  0.3145  0.1384
    6SAPS  H13X  781   1.627   2.007  25.356 -1.2543 -1.2337 -0.2250
    6SAPS  H13Y  782   1.650   2.153  25.260 -0.0413  0.0553 -1.3701
    6SAPS  C314  783   1.477   2.023  25.208  0.0723  0.4122  0.3857
    6SAPS  H14X  784   1.455   2.081  25.116 -1.1337  1.8587  1.5317
    6SAPS  H14Y  785   1.380   1.994  25.254  0.4579 -2.3565 -0.3312
    6SAPS  C315  786   1.530   1.889  25.152 -0.5372 -0.2256  0.3869
    6SAPS  H15X  787   1.468   1.842  25.072  0.2224  3.6777 -2.8340
    6SAPS  H15Y  788   1.550   1.820  25.236 -1.2445 -0.6545  0.2124
    6SAPS  C316  789   1.664   1.911  25.093  0.0465 -0.9192  0.5392
    6SAPS  H16X  790   1.741   1.953  25.161 -1.1004 -0.4393  1.5960
    6SAPS  H16Y  791   1.644   1.981  25.009 -2.9777 -0.2520  1.6617
    6SAPS  C317  792   1.730   1.785  25.022  0.4304  0.2532 -0.0343
    6SAPS  H17X  793   1.830   1.818  24.988  0.3906 -1.0119 -1.4808
    6SAPS  H17Y  794   1.671   1.761  24.931 -1.7528 -0.7773  1.5469
    6SAPS  C318  795   1.743   1.664  25.116  0.1219 -0.2789 -0.1524
    6SAPS  H18X  796   1.643   1.616  25.112  0.5989 -1.2376 -0.7846
    6SAPS  H18Y  797   1.765   1.701  25.218  1.2529 -1.5265  0.0824
    6SAPS  H18Z  798   1.817   1.585  25.091  0.7280  0.6418 -1.4098
    7SAPS     N  799   2.129   0.296  25.905  0.1204  0.5143 -0.9914
    7SAPS   HN1  800   2.124   0.239  25.818  2.7196  1.3651 -1.7829
    7SAPS   HN2  801   2.038   0.343  25.922 -0.2097  0.0215 -1.3430
    7SAPS   HN3  802   2.203   0.366  25.886 -1.4527  2.5777  0.0857
    7SAPS   C12  803   2.164   0.198  26.018  0.0316  0.8833  1.2361
    7SAPS  H12A  804   2.133   0.240  26.113  2.6978  3.7069  1.0253
    7SAPS   C13  805   2.109   0.046  26.002 -0.0098 -0.2971 -0.7415
    7SAPS  O13A  806   2.044   0.019  25.901 -0.4107  0.0713  0.0809
    7SAPS  O13B  807   2.138  -0.031  26.093 -0.1295 -0.2436  0.3429
    7SAPS   C11  808   2.315   0.191  26.038 -0.1191 -0.1786 -0.0297
    7SAPS  H11A  809   2.358   0.167  25.938  0.7453  0.5912  0.1575
    7SAPS  H11B  810   2.336   0.107  26.108 -0.2454 -1.0094 -0.9526
    7SAPS     P  811   2.504   0.327  26.161 -0.4703 -0.1884 -0.2213
    7SAPS   O13  812   2.529   0.210  26.250 -0.2400  0.5546 -0.0860
    7SAPS   O14  813   2.610   0.382  26.064 -0.3143 -0.3955 -0.6054
    7SAPS   O12  814   2.367   0.315  26.092  0.0365 -0.5184 -0.1048
    7SAPS   O11  815   2.475   0.449  26.263  0.2824  0.3582  0.0934
    7SAPS    C1  816   2.578   0.530  26.311 -0.9971  0.2784 -0.5084
    7SAPS    HA  817   2.674   0.475  26.309 -1.7561 -1.0815 -0.3806
    7SAPS    HB  818   2.593   0.616  26.242 -0.3051 -1.1035 -2.1321
    7SAPS    C2  819   2.548   0.600  26.453 -0.7438  0.6613  0.2714
    7SAPS    HS  820   2.634   0.666  26.479  0.8398 -0.5641 -1.6012
    7SAPS   O21  821   2.515   0.489  26.545  0.4350 -0.0957 -1.1339
    7SAPS   C21  822   2.626   0.433  26.598 -0.6578  0.6158 -0.0351
    7SAPS   O22  823   2.735   0.473  26.571  0.0805  0.0814  0.3931
    7SAPS   C22  824   2.586   0.310  26.671  0.0313  0.7823 -0.6540
    7SAPS   H2R  825   2.496   0.325  26.735  0.4406 -2.6482  0.9070
    7SAPS   H2S  826   2.566   0.226  26.602  1.5961 -0.7638  0.6846
    7SAPS    C3  827   2.425   0.694  26.433 -0.1710 -0.2297 -0.2511
    7SAPS    HX  828   2.338   0.635  26.398 -1.9894  0.8654  2.1307
    7SAPS    HY  829   2.458   0.765  26.354  0.8221  1.2562  1.4360
    7SAPS   O31  830   2.384   0.767  26.555 -0.5874 -0.2417 -0.2773
    7SAPS   C31  831   2.298   0.704  26.633 -0.2918  0.4172  0.2687
    7SAPS   O32  832   2.256   0.591  26.609  0.0691  0.0460  0.3643
    7SAPS   C32  833   2.270   0.798  26.748  0.6519 -0.4914  0.6296
    7SAPS   H2X  834   2.268   0.744  26.845  4.4739 -0.1379  1.0373
    7SAPS   H2Y  835   2.171   0.842  26.724  0.2629 -1.6197  0.1125
    7SAPS   C23  836   2.697   0.266  26.767  0.2923 -0.2257 -0.4810
    7SAPS   H3R  837   2.791   0.237  26.715  1.4195  0.6975  0.9597
    7SAPS   H3S  838   2.661   0.168  26.803  0.2514 -0.1170 -0.2268
    7SAPS   C24  839   2.710   0.360  26.888 -0.3083  0.3221 -0.9568
    7SAPS   H4R  840   2.614   0.374  26.942 -0.4533  0.7632 -1.3334
    7SAPS   H4S  841   2.741   0.461  26.854 -0.0184  0.8714  0.8206
    7SAPS   C25  842   2.814   0.306  26.991 -0.7005  0.3205  0.1556
    7SAPS   H5R  843   2.900   0.249  26.952 -0.5260  0.3289  0.5182
    7SAPS   C26  844   2.826   0.329  27.122 -0.1505  0.0564 -0.4751
    7SAPS   H6R  845   2.901   0.276  27.182 -1.4143 -0.2983  0.8506
    7SAPS   C27  846   2.733   0.400  27.220  0.2984 -0.0724  0.4133
    7SAPS   H7R  847   2.776   0.421  27.320 -0.1658  2.5801  0.1101
    7SAPS   H7S  848   2.652   0.327  27.243  0.7043 -1.4931 -2.2353
    7SAPS   C28  849   2.690   0.535  27.176 -0.2157  0.5540  0.4062
    7SAPS   H8R  850   2.769   0.609  27.156  1.5313 -1.3748 -0.1853
    7SAPS   C29  851   2.561   0.577  27.153  0.6519 -1.0181  0.1647
    7SAPS   H9R  852   2.540   0.680  27.120 -3.7863 -1.2269  1.6005
    7SAPS  C210  853   2.431   0.498  27.183 -0.8609 -0.1537  0.3601
    7SAPS  H10R  854   2.416   0.509  27.293  1.3016 -0.8855  0.7766
    7SAPS  H10S  855   2.454   0.394  27.153  0.2256  0.3308 -0.5412
    7SAPS  C211  856   2.314   0.547  27.102 -0.4683  0.1987 -0.0718
    7SAPS  H11R  857   2.297   0.500  27.004 -0.0451 -1.1953  0.5094
    7SAPS  C212  858   2.226   0.642  27.147  0.1693  0.4919  0.8769
    7SAPS  H12R  859   2.135   0.661  27.088  0.2822 -0.6573  0.3036
    7SAPS  C213  860   2.248   0.714  27.275  0.2058 -0.3421 -0.1342
    7SAPS  H13R  861   2.271   0.652  27.365 -0.6993  1.6119  1.5261
    7SAPS  H13S  862   2.148   0.759  27.296  0.4329 -0.1038  0.4491
    7SAPS  C214  863   2.353   0.824  27.273 -1.0237  0.0885 -0.4832
    7SAPS  H14R  864   2.452   0.813  27.226  1.0251  1.8306  3.0142
    7SAPS  C215  865   2.330   0.945  27.325 -0.2046 -0.1235  0.1778
    7SAPS  H15R  866   2.402   1.026  27.311 -2.1671  1.5528 -0.7671
    7SAPS  C216  867   2.210   0.996  27.398  0.0895  0.8125  0.4528
    7SAPS  H16R  868   2.232   1.062  27.484 -0.1873  1.5804 -0.0545
    7SAPS  H16S  869   2.142   0.915  27.430 -0.3033  1.4735  1.3243
    7SAPS  C217  870   2.125   1.072  27.291  0.2232 -0.7764  0.4896
    7SAPS  H17R  871   2.019   1.059  27.322 -0.8753 -0.6608 -2.7883
    7SAPS  H17S  872   2.133   1.030  27.189 -0.9084 -0.0999  0.1100
    7SAPS  C218  873   2.164   1.226  27.285 -0.2968  0.7053 -0.2867
    7SAPS  H18R  874   2.269   1.232  27.248  0.2122 -1.0790  0.7593
    7SAPS  H18S  875   2.152   1.259  27.391  0.2198  1.5298 -0.4783
    7SAPS  C219  876   2.065   1.310  27.197  0.3731  1.1090 -0.1028
    7SAPS  H19R  877   2.090   1.415  27.226  2.1061  0.4333  1.0067
    7SAPS  H19S  878   1.962   1.283  27.228  1.6998 -1.5887  2.3708
    7SAPS  C220  879   2.088   1.288  27.046  0.5747 -0.3710  0.8384
    7SAPS  H20R  880   2.073   1.181  27.019 -1.8414 -0.1256  0.9987
    7SAPS  H20S  881   2.186   1.319  27.004 -1.0357  1.3584 -1.9216
    7SAPS  H20T  882   2.018   1.354  26.990  0.0298 -0.8402  0.9527
    7SAPS   C33  883   2.366   0.914  26.762  0.2489  0.5358 -0.2723
    7SAPS   H3X  884   2.364   0.976  26.670 -2.3532 -0.7433 -1.1659
    7SAPS   H3Y  885   2.471   0.890  26.792 -0.1986  1.6111  2.5294
    7SAPS   C34  886   2.340   0.996  26.892 -0.2281 -0.5444  0.4082
    7SAPS   H4X  887   2.357   0.925  26.976  2.1378  1.0107  1.3602
    7SAPS   H4Y  888   2.236   1.033  26.891  0.2572  0.9003  0.4230
    7SAPS   C35  889   2.432   1.105  26.924 -0.8111 -0.6279 -0.0258
    7SAPS   H5X  890   2.387   1.168  27.004  1.3158  1.1449 -0.1257
    7SAPS   H5Y  891   2.447   1.174  26.838 -2.6617 -0.8121 -0.5279
    7SAPS   C36  892   2.569   1.057  26.980  0.1978  0.9028 -0.5386
    7SAPS   H6X  893   2.626   0.996  26.906  0.9172  0.0995  0.6413
    7SAPS   H6Y  894   2.553   0.993  27.069 -1.2932  0.2258 -1.2601
    7SAPS   C37  895   2.659   1.174  27.030  0.1688 -0.0993  0.8050
    7SAPS   H7X  896   2.739   1.142  27.101 -0.5230 -2.2001  0.6900
    7SAPS   H7Y  897   2.605   1.252  27.087  1.2823  1.1148  0.2543
    7SAPS   C38  898   2.732   1.251  26.915  0.4562 -0.7415 -0.1175
    7SAPS   H8X  899   2.663   1.282  26.834  2.4031  0.2897 -1.4690
    7SAPS   H8Y  900   2.814   1.189  26.872  1.5241 -0.4711  1.4322
    7SAPS   C39  901   2.791   1.386  26.967  0.2241  0.3887  0.3355
    7SAPS   H9X  902   2.867   1.365  27.045  1.2399 -0.6108 -0.8927
    7SAPS   H9Y  903   2.706   1.448  27.004  0.0989  0.6836 -0.4292
    7SAPS  C310  904   2.862   1.464  26.853  0.9776  0.0165 -0.6393
    7SAPS  H10X  905   2.866   1.573  26.878 -0.7417  0.1187 -0.6869
    7SAPS  H10Y  906   2.811   1.462  26.754  0.5096  0.4018 -0.4133
    7SAPS  C311  907   3.004   1.402  26.842  0.8393  0.4021  0.6078
    7SAPS  H11X  908   3.021   1.314  26.908  2.6481 -0.5025 -0.9796
    7SAPS  H11Y  909   3.080   1.478  26.870  0.3665  1.0170  0.2293
    7SAPS  C312  910   3.029   1.345  26.701  0.3631  0.9794 -0.5332
    7SAPS  H12X  911   3.012   1.415  26.617 -0.1674  0.3880 -0.9340
    7SAPS  H12Y  912   2.952   1.265  26.690  0.0383  1.2531 -0.2584
    7SAPS  C313  913   3.163   1.280  26.684 -0.4751  0.0341  0.1234
    7SAPS  H13X  914   3.170   1.190  26.749  0.3217 -0.0673 -0.0920
    7SAPS  H13Y  915   3.243   1.350  26.716  0.5784 -1.0601 -0.0240
    7SAPS  C314  916   3.197   1.231  26.542  0.1538 -0.5117  0.2243
    7SAPS  H14X  917   3.257   1.313  26.498 -0.4956  0.6499  1.4396
    7SAPS  H14Y  918   3.100   1.214  26.491  1.6138 -1.8852 -2.2867
    7SAPS  C315  919   3.292   1.114  26.543  0.0666 -1.1866 -0.0558
    7SAPS  H15X  920   3.261   1.036  26.615  1.4369 -1.1618  0.5762
    7SAPS  H15Y  921   3.388   1.148  26.587 -1.2095  1.2609  1.0398
    7SAPS  C316  922   3.320   1.044  26.408  0.1717  0.0712  0.5521
    7SAPS  H16X  923   3.348   1.119  26.331 -0.1176 -1.9677 -1.6387
    7SAPS  H16Y  924   3.225   0.998  26.373  2.0255 -3.1690 -0.6645
    7SAPS  C317  925   3.420   0.925  26.409  0.2715 -0.6237 -0.2685
    7SAPS  H17X  926   3.380   0.844  26.473  0.2446 -0.3319  0.0923
    7SAPS  H17Y  927   3.516   0.950  26.459  0.3315 -1.6688  0.1482
    7SAPS  C318  928   3.442   0.872  26.269 -0.3091 -0.4330 -0.5404
    7SAPS  H18X  929   3.349   0.865  26.209 -0.4474 -0.2879 -0.3480
    7SAPS  H18Y  930   3.487   0.771  26.269  1.8123  0.4176 -2.6831
    7SAPS  H18Z  931   3.501   0.941  26.205  0.3369  0.7101  1.2050
    8SAPS     N  932   3.735   0.297  30.411 -0.2936  0.7771 -0.3801
    8SAPS   HN1  933   3.726   0.346  30.502  1.3583  1.4985 -0.5612
    8SAPS   HN2  934   3.829   0.253  30.416  0.0129  1.5586  1.1531
    8SAPS   HN3  935   3.742   0.360  30.329 -2.2544  1.0743 -0.3536
    8SAPS   C12  936   3.645   0.184  30.394  0.2578 -0.2185  0.7283
    8SAPS  H12A  937   3.687   0.095  30.440  1.5945  0.7820  1.5287
    8SAPS   C13  938   3.494   0.200  30.440  0.7121  0.0609 -0.5280
    8SAPS  O13A  939   3.451   0.310  30.491  0.5866 -0.0506  0.0380
    8SAPS  O13B  940   3.416   0.107  30.414  0.4149  0.5976  0.4552
    8SAPS   C11  941   3.634   0.157  30.242  0.0921 -0.6816 -0.8701
    8SAPS  H11A  942   3.580   0.241  30.193 -0.0588  0.5333  1.2745
    8SAPS  H11B  943   3.560   0.075  30.229 -1.0817 -0.1167  1.6196
    8SAPS     P  944   3.782   0.006  30.097 -0.6758  0.1016  0.3275
    8SAPS   O13  945   3.921  -0.006  30.043  0.5604  0.1951 -0.0860
    8SAPS   O14  946   3.727  -0.107  30.173 -0.4165 -0.3294  0.0536
    8SAPS   O12  947   3.759   0.137  30.181  0.1893  0.5428  0.0603
    8SAPS   O11  948   3.692   0.028  29.975  0.0070  0.2658  0.5366
    8SAPS    C1  949   3.727   0.099  29.854 -0.4257  0.3147  1.1184
    8SAPS    HA  950   3.832   0.082  29.822 -0.7985  1.5697 -0.9813
    8SAPS    HB  951   3.665   0.069  29.767 -0.6822  0.9099  1.0936
    8SAPS    C2  952   3.712   0.254  29.865  0.0805  0.0886 -0.3679
    8SAPS    HS  953   3.772   0.291  29.951  0.1871  1.2489 -0.9100
    8SAPS   O21  954   3.574   0.276  29.873 -0.0741  0.3153  0.0898
    8SAPS   C21  955   3.547   0.400  29.930 -0.7727 -0.8797 -0.0126
    8SAPS   O22  956   3.627   0.480  29.972 -0.1425  0.2599 -0.2218
    8SAPS   C22  957   3.398   0.439  29.904  0.0776 -0.4555  0.0442
    8SAPS   H2R  958   3.364   0.384  29.814  2.5016 -2.8317  0.4486
    8SAPS   H2S  959   3.349   0.395  29.993  1.3186  0.2068  1.1110
    8SAPS    C3  960   3.767   0.322  29.730  0.3904 -0.4414  0.0719
    8SAPS    HX  961   3.700   0.295  29.646 -0.3063 -0.5920  0.6627
    8SAPS    HY  962   3.862   0.280  29.690 -0.6253  0.9763 -4.3727
    8SAPS   O31  963   3.765   0.465  29.738  0.3958  0.2449 -0.2635
    8SAPS   C31  964   3.876   0.521  29.797  0.8756 -0.3592  0.5866
    8SAPS   O32  965   3.977   0.463  29.824 -0.0688  0.2488  0.0666
    8SAPS   C32  966   3.842   0.665  29.837 -0.2258  0.1240  0.3325
    8SAPS   H2X  967   3.735   0.676  29.864 -0.4858  0.4343 -0.7808
    8SAPS   H2Y  968   3.858   0.719  29.742  0.7567  1.8663  1.4528
    8SAPS   C23  969   3.386   0.598  29.891  0.0373  0.7504 -0.8049
    8SAPS   H3R  970   3.482   0.642  29.858 -0.2573  0.6366 -1.8563
    8SAPS   H3S  971   3.351   0.639  29.988  0.3860  1.6639 -1.0555
    8SAPS   C24  972   3.303   0.653  29.775  0.0448 -0.2405 -0.8709
    8SAPS   H4R  973   3.371   0.642  29.687 -0.8408 -2.1653 -1.3669
    8SAPS   H4S  974   3.284   0.762  29.782  2.1388  0.1047  0.1480
    8SAPS   C25  975   3.169   0.579  29.774  0.2840 -0.1301 -0.2565
    8SAPS   H5R  976   3.165   0.504  29.694 -0.5831  0.0386 -0.3840
    8SAPS   C26  977   3.063   0.603  29.858  0.5807 -0.6432  0.2108
    8SAPS   H6R  978   2.975   0.536  29.851  0.1779 -0.0773 -0.2638
    8SAPS   C27  979   3.065   0.700  29.979  0.1439 -0.6352  0.2949
    8SAPS   H7R  980   3.141   0.778  29.962  0.8555 -1.4847 -0.5381
    8SAPS   H7S  981   3.102   0.640  30.065 -0.5370 -1.0991  0.2723
    8SAPS   C28  982   2.935   0.753  30.034  0.2196 -0.2126  0.1851
    8SAPS   H8R  983   2.851   0.683  30.052  0.6824 -0.8480 -0.0897
    8SAPS   C29  984   2.910   0.882  30.065 -0.3324  0.4447 -0.7296
    8SAPS   H9R  985   2.808   0.910  30.096 -0.3823  0.8020 -1.2096
    8SAPS  C210  986   3.012   0.993  30.071  0.2564  1.3754  0.3026
    8SAPS  H10R  987   2.969   1.075  30.010 -2.9670  0.7004  1.4906
    8SAPS  H10S  988   3.117   0.965  30.046  0.0233 -0.5078  1.2708
    8SAPS  C211  989   3.017   1.039  30.216  0.5722  0.2729  0.3203
    8SAPS  H11R  990   3.020   0.959  30.291 -0.7427  0.6676  0.8195
    8SAPS  C212  991   3.019   1.168  30.258  0.2371  0.3368 -0.4189
    8SAPS  H12R  992   3.030   1.176  30.367 -2.4108 -1.7868  0.1007
    8SAPS  C213  993   3.014   1.295  30.167 -0.1772 -0.3927  0.1136
    8SAPS  H13R  994   3.073   1.280  30.074 -2.4182 -1.1976 -1.2599
    8SAPS  H13S  995   3.088   1.365  30.213  1.3183 -2.9899  1.9558
    8SAPS  C214  996   2.872   1.329  30.141 -0.1810  0.0208  0.4218
    8SAPS  H14R  997   2.835   1.267  30.057  1.4446  0.8709 -0.9820
    8SAPS  C215  998   2.795   1.430  30.188  0.6828  0.2308 -0.1423
    8SAPS  H15R  999   2.695   1.443  30.142 -0.6087 -2.5036  1.6367
    8SAPS  C216 1000   2.827   1.531  30.294 -0.1365 -0.6744  0.0762
    8SAPS  H16R 1001   2.803   1.636  30.270 -3.5710 -1.5740 -1.0061
    8SAPS  H16S 1002   2.933   1.521  30.325  0.0630 -0.5085 -0.5445
    8SAPS  C217 1003   2.734   1.513  30.411 -0.0790  0.3050 -0.2939
    8SAPS  H17R 1004   2.627   1.514  30.385  0.5801 -1.6079 -3.7419
    8SAPS  H17S 1005   2.750   1.597  30.482  0.8780  1.1304 -1.4519
    8SAPS  C218 1006   2.761   1.380  30.483 -0.1650 -0.3942 -0.2615
    8SAPS  H18R 1007   2.870   1.372  30.505 -0.1390 -1.4566 -0.7357
    8SAPS  H18S 1008   2.746   1.294  30.414 -0.2569  0.0497 -0.8022
    8SAPS  C219 1009   2.681   1.351  30.611  0.5620 -0.2185  0.1450
    8SAPS  H19R 1010   2.575   1.342  30.581  0.1136 -0.0014  1.5943
    8SAPS  H19S 1011   2.683   1.446  30.669  0.5113  1.0163 -1.7947
    8SAPS  C220 1012   2.737   1.243  30.710  0.1093  0.5942 -0.2151
    8SAPS  H20R 1013   2.671   1.247  30.799 -0.2021  0.6088 -0.4483
    8SAPS  H20S 1014   2.841   1.272  30.739  0.2128 -0.2883  0.3597
    8SAPS  H20T 1015   2.736   1.139  30.670  1.0759  0.4327  0.1419
    8SAPS   C33 1016   3.933   0.726  29.951 -0.0611 -0.0043  0.4577
    8SAPS   H3X 1017   4.038   0.701  29.926 -0.5543 -0.8790 -0.8355
    8SAPS   H3Y 1018   3.905   0.675  30.045 -1.4404 -4.2473 -1.9595
    8SAPS   C34 1019   3.920   0.880  29.955 -0.7321 -0.6860  0.0673
    8SAPS   H4X 1020   3.929   0.911  30.061 -2.0463 -3.2904  1.0310
    8SAPS   H4Y 1021   3.817   0.898  29.918  0.0509 -0.7345 -2.3051
    8SAPS   C35 1022   4.009   0.962  29.854  0.3858 -0.2197  0.2664
    8SAPS   H5X 1023   3.993   0.916  29.754  1.7665 -0.6877  0.2288
    8SAPS   H5Y 1024   4.116   0.951  29.883  1.1882 -0.4885 -2.4604
    8SAPS   C36 1025   3.969   1.108  29.857  0.3147 -0.4307 -0.7100
    8SAPS   H6X 1026   3.994   1.136  29.961  3.0505  0.8083 -1.5968
    8SAPS   H6Y 1027   3.860   1.107  29.833  0.4247 -1.0235 -1.2142
    8SAPS   C37 1028   4.036   1.199  29.749 -0.5819  0.1208 -0.5198
    8SAPS   H7X 1029   3.971   1.280  29.710  0.3825  2.2573  1.9991
    8SAPS   H7Y 1030   4.068   1.132  29.666  0.2330 -1.0935  0.7344
    8SAPS   C38 1031   4.163   1.282  29.793 -0.0353 -0.4794  0.3814
    8SAPS   H8X 1032   4.236   1.236  29.862 -0.7867  1.1325  2.3317
    8SAPS   H8Y 1033   4.125   1.366  29.856  2.0678  2.2492 -1.6943
    8SAPS   C39 1034   4.228   1.343  29.665  0.4011  0.3724 -0.2272
    8SAPS   H9X 1035   4.137   1.355  29.603 -1.1746  2.6964  2.3040
    8SAPS   H9Y 1036   4.290   1.264  29.617 -0.9094  0.0700 -1.4846
    8SAPS  C310 1037   4.287   1.485  29.683 -0.3955  0.4928  0.5175
    8SAPS  H10X 1038   4.208   1.540  29.737  0.6497  1.9556  0.5972
    8SAPS  H10Y 1039   4.299   1.537  29.585  1.6382  2.1422  1.5815
    8SAPS  C311 1040   4.426   1.500  29.754 -0.5494  0.4667 -0.2522
    8SAPS  H11X 1041   4.494   1.436  29.693 -0.6467 -2.3180  2.2928
    8SAPS  H11Y 1042   4.414   1.457  29.855 -0.5306 -0.2008 -0.5274
    8SAPS  C312 1043   4.467   1.638  29.790 -0.5951 -0.7341 -0.1746
    8SAPS  H12X 1044   4.459   1.698  29.697  1.2389  0.8375  0.6078
    8SAPS  H12Y 1045   4.574   1.631  29.817 -0.8251  2.0422  1.9948
    8SAPS  C313 1046   4.380   1.711  29.889 -0.0802 -0.1863 -0.4147
    8SAPS  H13X 1047   4.370   1.644  29.977 -1.0822  0.6082  0.0986
    8SAPS  H13Y 1048   4.275   1.723  29.856 -1.2914 -1.8606  2.4909
    8SAPS  C314 1049   4.427   1.851  29.938 -0.0612 -0.0552  0.2188
    8SAPS  H14X 1050   4.533   1.843  29.971  0.7931 -1.6935 -2.6362
    8SAPS  H14Y 1051   4.363   1.892  30.020 -2.3234  1.0511 -1.9591
    8SAPS  C315 1052   4.421   1.954  29.821  0.4870 -0.2857 -0.3864
    8SAPS  H15X 1053   4.327   1.927  29.768  0.5025  1.1499 -1.2121
    8SAPS  H15Y 1054   4.512   1.938  29.760  1.5349  1.0076  0.7888
    8SAPS  C316 1055   4.415   2.102  29.875  0.3080  0.4346  0.5604
    8SAPS  H16X 1056   4.321   2.125  29.928  0.5984  1.0077  0.8355
    8SAPS  H16Y 1057   4.411   2.165  29.783  0.7103  2.4788  1.8689
    8SAPS  C317 1058   4.544   2.145  29.956  0.5681 -0.1671 -0.0894
    8SAPS  H17X 1059   4.633   2.140  29.889  0.3771 -2.5781 -0.2668
    8SAPS  H17Y 1060   4.563   2.085  30.048 -0.0847 -0.8860 -0.4099
    8SAPS  C318 1061   4.528   2.289  30.009 -0.4784 -0.9101 -0.6107
    8SAPS  H18X 1062   4.429   2.295  30.060 -0.2743  0.3455 -0.3472
    8SAPS  H18Y 1063   4.539   2.364  29.928  2.0089  0.7543  1.1263
    8SAPS  H18Z 1064   4.616   2.306  30.075 -1.0599  3.2033 -0.6751
    9SAPS     N 1065   3.389   1.763  18.392 -0.5112 -0.3290 -0.3757
    9SAPS   HN1 1066   3.444   1.794  18.310 -1.3071  0.7201 -0.5475
    9SAPS   HN2 1067   3.300   1.723  18.357  0.0805 -1.0587 -1.0572
    9SAPS   HN3 1068   3.368   1.852  18.443  3.2875  0.2806  0.4202
    9SAPS   C12 1069   3.454   1.685  18.485  0.4196  1.0207 -0.7369
    9SAPS  H12A 1070   3.532   1.750  18.523 -0.5282  2.3773 -1.0382
    9SAPS   C13 1071   3.375   1.640  18.609  0.4934  0.2387 -0.2582
    9SAPS  O13A 1072   3.259   1.681  18.618  0.4566  0.1613 -0.3966
    9SAPS  O13B 1073   3.435   1.577  18.699  0.1697  0.6616  0.1610
    9SAPS   C11 1074   3.518   1.560  18.418  0.0011  0.1983 -0.8197
    9SAPS  H11A 1075   3.439   1.507  18.362  1.1860 -0.3014 -2.0614
    9SAPS  H11B 1076   3.549   1.487  18.496  0.5924 -0.6560 -1.8296
    9SAPS     P 1077   3.782   1.606  18.401 -0.5221  0.4169  0.2792
    9SAPS   O13 1078   3.858   1.692  18.302 -0.0111 -0.4295 -0.7681
    9SAPS   O14 1079   3.771   1.656  18.539  0.1405  0.3991  0.2083
    9SAPS   O12 1080   3.638   1.580  18.340  0.0433  0.3761 -0.0815
    9SAPS   O11 1081   3.844   1.461  18.400  0.2874  0.6337 -0.3059
    9SAPS    C1 1082   3.816   1.372  18.293  0.3426  0.7438 -0.2416
    9SAPS    HA 1083   3.718   1.319  18.294  1.3471 -1.3074  2.9915
    9SAPS    HB 1084   3.841   1.405  18.190  1.1028 -0.0992 -0.3478
    9SAPS    C2 1085   3.914   1.243  18.302  0.0390 -0.0691 -0.0217
    9SAPS    HS 1086   3.881   1.170  18.225 -2.9563  0.7274  0.3870
    9SAPS   O21 1087   3.913   1.191  18.437 -0.5390  0.7269  0.0623
    9SAPS   C21 1088   3.859   1.071  18.446  0.0028  0.3872 -0.3798
    9SAPS   O22 1089   3.819   1.003  18.352 -0.6272  0.5114  0.1205
    9SAPS   C22 1090   3.825   1.052  18.595  0.4233  0.1134 -0.4135
    9SAPS   H2R 1091   3.917   1.073  18.653  0.2761 -2.1184  0.7602
    9SAPS   H2S 1092   3.745   1.124  18.620  2.1334  1.3261  1.9813
    9SAPS    C3 1093   4.054   1.284  18.255 -0.2474  1.1341  0.0821
    9SAPS    HX 1094   4.108   1.362  18.313 -0.6552  0.6240  1.1653
    9SAPS    HY 1095   4.051   1.322  18.150  1.7314 -0.0525 -0.4392
    9SAPS   O31 1096   4.134   1.164  18.245  0.6481 -0.2078  0.6818
    9SAPS   C31 1097   4.210   1.131  18.343 -0.0969 -0.1189  0.3640
    9SAPS   O32 1098   4.208   1.175  18.460 -0.1426 -0.3045  0.4825
    9SAPS   C32 1099   4.326   1.035  18.296 -0.5913 -0.2449  0.3628
    9SAPS   H2X 1100   4.418   1.098  18.297  0.1062 -1.1457  3.6434
    9SAPS   H2Y 1101   4.314   1.008  18.189  4.2227 -1.1528 -0.1846
    9SAPS   C23 1102   3.790   0.908  18.616 -0.0252  0.2848 -0.3483
    9SAPS   H3R 1103   3.870   0.839  18.581 -1.3959 -1.4676 -0.2127
    9SAPS   H3S 1104   3.698   0.870  18.565 -0.6388 -2.2657  2.3751
    9SAPS   C24 1105   3.757   0.876  18.769 -0.6638  0.1230 -0.1140
    9SAPS   H4R 1106   3.846   0.900  18.832 -1.6987 -0.8629  1.8083
    9SAPS   H4S 1107   3.751   0.766  18.782 -0.9167  0.0542 -0.7757
    9SAPS   C25 1108   3.634   0.943  18.817 -0.5059 -0.4603 -0.7643
    9SAPS   H5R 1109   3.587   1.005  18.740 -0.1781 -0.9146 -1.3434
    9SAPS   C26 1110   3.580   0.932  18.939 -0.8357 -0.0396  0.1936
    9SAPS   H6R 1111   3.489   0.989  18.964  0.4327  1.7387  0.9575
    9SAPS   C27 1112   3.635   0.845  19.053 -0.8574 -0.3311  0.0213
    9SAPS   H7R 1113   3.688   0.909  19.127 -3.0254  1.3373  0.2321
    9SAPS   H7S 1114   3.712   0.778  19.010 -0.1946  0.6295 -0.3160
    9SAPS   C28 1115   3.538   0.756  19.118 -0.1925 -0.1471 -0.3309
    9SAPS   H8R 1116   3.434   0.784  19.098 -0.7579 -0.9282  1.3604
    9SAPS   C29 1117   3.569   0.639  19.179  0.6726  0.2207 -0.4821
    9SAPS   H9R 1118   3.492   0.565  19.204  1.0168 -0.2762 -0.8694
    9SAPS  C210 1119   3.709   0.584  19.205  0.3332  0.3144 -0.2839
    9SAPS  H10R 1120   3.725   0.582  19.315 -0.4213 -1.9761 -0.1536
    9SAPS  H10S 1121   3.792   0.643  19.163  1.6846 -2.4252 -1.7511
    9SAPS  C211 1122   3.719   0.450  19.145 -0.1806  0.6986 -0.0731
    9SAPS  H11R 1123   3.727   0.458  19.035 -2.2323 -1.9478 -0.5052
    9SAPS  C212 1124   3.720   0.324  19.194 -0.5178 -0.2134  0.2304
    9SAPS  H12R 1125   3.742   0.242  19.124 -1.0066 -1.7060  1.7450
    9SAPS  C213 1126   3.714   0.281  19.336 -0.6822 -0.2872  0.3975
    9SAPS  H13R 1127   3.780   0.355  19.386 -0.6207  0.1205 -0.2717
    9SAPS  H13S 1128   3.769   0.184  19.337  0.4886  0.3276 -0.8255
    9SAPS  C214 1129   3.589   0.262  19.412  0.1113  0.0901 -0.0140
    9SAPS  H14R 1130   3.508   0.318  19.362  1.4530  0.9770 -1.2634
    9SAPS  C215 1131   3.571   0.192  19.528  0.3164  0.2008  0.8643
    9SAPS  H15R 1132   3.475   0.212  19.578  1.0815  0.2609  2.3455
    9SAPS  C216 1133   3.652   0.095  19.607  0.1485 -0.9267  0.1212
    9SAPS  H16R 1134   3.751   0.073  19.561  1.9663  3.3417  1.5140
    9SAPS  H16S 1135   3.599  -0.003  19.614 -1.1092 -0.3696 -1.0665
    9SAPS  C217 1136   3.683   0.157  19.745  0.2411 -0.0038 -0.1766
    9SAPS  H17R 1137   3.717   0.263  19.752  1.0814 -0.3339  1.2354
    9SAPS  H17S 1138   3.774   0.102  19.776 -0.3545 -1.0653 -0.2798
    9SAPS  C218 1139   3.573   0.140  19.851  0.4091 -0.2706  0.2501
    9SAPS  H18R 1140   3.522   0.041  19.851  0.6825 -0.4331  2.0328
    9SAPS  H18S 1141   3.502   0.223  19.833  2.0815  1.4422  1.2305
    9SAPS  C219 1142   3.639   0.153  19.988 -0.0516 -0.6579 -0.1390
    9SAPS  H19R 1143   3.685   0.253  20.004 -0.0268 -0.5111 -1.0813
    9SAPS  H19S 1144   3.717   0.074  19.989  0.2771 -0.3335  0.0630
    9SAPS  C220 1145   3.556   0.125  20.116 -0.3434 -0.0297  0.0435
    9SAPS  H20R 1146   3.593   0.188  20.200  1.0970  0.5733 -0.9954
    9SAPS  H20S 1147   3.556   0.018  20.146  1.4896  0.1769  0.9312
    9SAPS  H20T 1148   3.451   0.149  20.089  0.5137  0.4072 -3.4263
    9SAPS   C33 1149   4.353   0.907  18.381  0.0008 -0.5641 -0.9328
    9SAPS   H3X 1150   4.343   0.934  18.488 -0.3005  1.3813 -1.4111
    9SAPS   H3Y 1151   4.451   0.859  18.359 -1.6364 -3.4330 -2.6937
    9SAPS   C34 1152   4.265   0.788  18.360 -0.1540 -0.4729 -0.3952
    9SAPS   H4X 1153   4.266   0.763  18.252 -2.8969  0.1303 -0.6312
    9SAPS   H4Y 1154   4.161   0.809  18.393  0.0976  0.0719  0.0755
    9SAPS   C35 1155   4.305   0.652  18.422  0.1806 -0.3961  0.2634
    9SAPS   H5X 1156   4.414   0.634  18.409  0.5867  1.6665  0.3725
    9SAPS   H5Y 1157   4.259   0.566  18.369 -1.0754 -0.3941  1.3062
    9SAPS   C36 1158   4.271   0.639  18.572 -0.1925  0.7262  0.6103
    9SAPS   H6X 1159   4.162   0.657  18.570 -0.0202  1.9858 -2.3198
    9SAPS   H6Y 1160   4.322   0.729  18.613  1.3585  0.4129 -0.5327
    9SAPS   C37 1161   4.301   0.508  18.640  0.4811 -0.0072 -0.6014
    9SAPS   H7X 1162   4.412   0.501  18.647  0.4575  0.3156  0.2210
    9SAPS   H7Y 1163   4.277   0.431  18.564  0.4307 -1.6475  1.0200
    9SAPS   C38 1164   4.226   0.476  18.771  0.1150 -0.7706  0.0889
    9SAPS   H8X 1165   4.116   0.481  18.754  0.2420  1.7433 -0.3136
    9SAPS   H8Y 1166   4.243   0.548  18.855 -1.0325 -0.5208  0.1202
    9SAPS   C39 1167   4.264   0.339  18.821  0.1336  0.2424 -0.5152
    9SAPS   H9X 1168   4.353   0.345  18.886 -1.6073  0.8838  1.9752
    9SAPS   H9Y 1169   4.282   0.271  18.735  0.4849  2.9050 -2.6849
    9SAPS  C310 1170   4.160   0.280  18.913 -0.1860 -0.7354  0.2364
    9SAPS  H10X 1171   4.057   0.285  18.872 -0.2922  0.7564  0.6338
    9SAPS  H10Y 1172   4.164   0.336  19.009 -1.8147  1.0564 -0.6701
    9SAPS  C311 1173   4.199   0.135  18.940 -0.1611 -0.5740 -0.0145
    9SAPS  H11X 1174   4.307   0.129  18.965 -0.4018 -0.2045  1.1988
    9SAPS  H11Y 1175   4.187   0.070  18.851  0.4842 -0.9357  0.1579
    9SAPS  C312 1176   4.120   0.068  19.053  0.0617 -0.6334 -0.1079
    9SAPS  H12X 1177   4.017   0.090  19.019  0.0337 -0.4013  0.1161
    9SAPS  H12Y 1178   4.134   0.123  19.149  2.6731 -1.3478  0.0049
    9SAPS  C313 1179   4.133  -0.085  19.049 -0.3391  0.5887  0.0242
    9SAPS  H13X 1180   4.135  -0.123  18.944 -0.3265 -1.3763  0.6929
    9SAPS  H13Y 1181   4.041  -0.132  19.091  1.0883 -1.0084  1.5445
    9SAPS  C314 1182   4.255  -0.135  19.126  0.4973  0.3102  0.6116
    9SAPS  H14X 1183   4.242  -0.105  19.232 -0.5587  1.5952  0.1542
    9SAPS  H14Y 1184   4.344  -0.080  19.088  2.2643 -1.6600  1.6968
    9SAPS  C315 1185   4.271  -0.286  19.108 -0.9269 -0.4166  0.3926
    9SAPS  H15X 1186   4.369  -0.308  19.155  0.7282  0.6829 -2.3025
    9SAPS  H15Y 1187   4.290  -0.308  19.000  1.5175 -3.8984  1.3595
    9SAPS  C316 1188   4.162  -0.371  19.176 -0.3073 -0.2268 -0.5529
    9SAPS  H16X 1189   4.060  -0.370  19.131 -2.1463 -1.9010  3.1493
    9SAPS  H16Y 1190   4.163  -0.332  19.280 -0.3069 -1.0025 -0.2580
    9SAPS  C317 1191   4.203  -0.520  19.174 -0.4002 -0.0818  0.8737
    9SAPS  H17X 1192   4.304  -0.540  19.214  0.0021 -2.1919 -1.0268
    9SAPS  H17Y 1193   4.199  -0.550  19.067  1.1835 -0.4901  0.9170
    9SAPS  C318 1194   4.107  -0.599  19.264  0.3351 -0.3266 -0.8673
    9SAPS  H18X 1195   4.149  -0.701  19.252  3.0255  0.2411  2.3249
    9SAPS  H18Y 1196   4.005  -0.596  19.220 -0.6195 -0.5712  1.1668
    9SAPS  H18Z 1197   4.111  -0.564  19.370  1.4890  0.1808 -1.0709
   10SAPS     N 1198   0.968   2.979  15.462 -0.1063  0.0910 -0.4159
   10SAPS   HN1 1199   0.876   3.023  15.442  1.1197  2.7616 -0.6178
   10SAPS   HN2 1200   1.034   3.055  15.436 -1.5379  0.7402 -2.4759
   10SAPS   HN3 1201   0.985   2.895  15.402 -1.4823 -0.8715  0.4930
   10SAPS   C12 1202   0.972   2.932  15.605  0.5836  0.5372  0.3685
   10SAPS  H12A 1203   0.955   2.825  15.602  1.9887  0.3308 -1.8770
   10SAPS   C13 1204   1.112   2.953  15.671  0.1303 -0.1552 -0.3686
   10SAPS  O13A 1205   1.204   3.012  15.610  0.4061 -0.1216  0.4912
   10SAPS  O13B 1206   1.141   2.898  15.779 -0.0076  0.3007 -0.0203
   10SAPS   C11 1207   0.870   3.016  15.685  0.0872  0.1501 -0.2788
   10SAPS  H11A 1208   0.908   3.117  15.710 -1.2578  0.7101 -0.3885
   10SAPS  H11B 1209   0.855   2.979  15.788 -0.7737 -1.4077 -0.9252
   10SAPS     P 1210   0.641   2.902  15.624 -0.3500  0.4517  0.2371
   10SAPS   O13 1211   0.661   2.813  15.500 -0.7234 -0.8014 -0.2591
   10SAPS   O14 1212   0.640   2.831  15.753  0.1326  0.2255  0.1031
   10SAPS   O12 1213   0.740   3.021  15.619  0.0432  0.3599 -0.2728
   10SAPS   O11 1214   0.506   2.967  15.605 -0.1352 -0.3735  0.7527
   10SAPS    C1 1215   0.469   3.045  15.490  0.0614 -0.5425  1.3797
   10SAPS    HA 1216   0.559   3.075  15.432 -1.2454 -2.8138 -2.1898
   10SAPS    HB 1217   0.413   2.987  15.413 -2.4155 -0.7678  3.2563
   10SAPS    C2 1218   0.376   3.170  15.517  0.3886  0.9645  0.0814
   10SAPS    HS 1219   0.398   3.247  15.439  2.0263 -0.3960 -0.8878
   10SAPS   O21 1220   0.395   3.227  15.650 -0.3707  0.0172 -0.4254
   10SAPS   C21 1221   0.521   3.274  15.662  0.0159  0.7661  0.0201
   10SAPS   O22 1222   0.592   3.312  15.564  0.7940  0.5776  0.2602
   10SAPS   C22 1223   0.565   3.294  15.803 -0.0248 -0.0090  0.1108
   10SAPS   H2R 1224   0.493   3.347  15.870  3.5909  3.5314  1.6216
   10SAPS   H2S 1225   0.581   3.191  15.841  0.0427 -1.3326 -3.1991
   10SAPS    C3 1226   0.223   3.126  15.494  0.0165 -0.4716  0.1102
   10SAPS    HX 1227   0.196   3.045  15.566 -1.5616 -2.2086 -2.2562
   10SAPS    HY 1228   0.211   3.081  15.392 -1.1820 -0.3462  0.1839
   10SAPS   O31 1229   0.134   3.233  15.513  0.0586 -0.6602 -0.0528
   10SAPS   C31 1230   0.147   3.340  15.435 -1.0673 -0.5981 -0.0662
   10SAPS   O32 1231   0.221   3.361  15.339 -0.2192  0.2332 -0.2061
   10SAPS   C32 1232   0.056   3.446  15.492  0.0095 -0.4406  0.0882
   10SAPS   H2X 1233   0.007   3.408  15.584  0.0411 -0.6927  0.0018
   10SAPS   H2Y 1234  -0.025   3.456  15.417  0.9778 -1.0752 -1.0783
   10SAPS   C23 1235   0.689   3.387  15.811  0.1325  0.3542 -0.3072
   10SAPS   H3R 1236   0.653   3.490  15.789 -2.7552 -0.5020 -0.0471
   10SAPS   H3S 1237   0.769   3.367  15.737  0.8129 -0.8450  0.7186
   10SAPS   C24 1238   0.747   3.391  15.952 -0.4673 -0.4602 -0.0522
   10SAPS   H4R 1239   0.779   3.288  15.977  1.1802  0.1704  0.5362
   10SAPS   H4S 1240   0.669   3.419  16.027 -0.6534 -1.0750 -0.0154
   10SAPS   C25 1241   0.865   3.482  15.971  0.6192 -0.2055 -0.5536
   10SAPS   H5R 1242   0.875   3.572  15.910  0.3863 -0.6848 -1.3038
   10SAPS   C26 1243   0.961   3.482  16.066 -0.4522  0.5675 -0.6469
   10SAPS   H6R 1244   1.036   3.563  16.073 -0.1545  0.1569  2.0651
   10SAPS   C27 1245   0.978   3.380  16.179 -0.3868 -1.1620  0.2597
   10SAPS   H7R 1246   0.877   3.349  16.212 -0.2520 -0.0393  1.8331
   10SAPS   H7S 1247   1.026   3.430  16.266 -0.0345 -2.1551  0.6520
   10SAPS   C28 1248   1.068   3.260  16.150 -0.3204 -0.0239 -0.4396
   10SAPS   H8R 1249   1.107   3.266  16.047  2.6283 -0.9600  0.5121
   10SAPS   C29 1250   1.100   3.152  16.229  0.1685  0.6976 -0.6318
   10SAPS   H9R 1251   1.175   3.082  16.188  0.8350 -0.3821  2.1997
   10SAPS  C210 1252   1.055   3.119  16.373 -0.0157  0.1632  0.1247
   10SAPS  H10R 1253   0.946   3.133  16.386  0.2933  0.6341  2.6373
   10SAPS  H10S 1254   1.111   3.184  16.444 -0.2111 -2.1536  2.5255
   10SAPS  C211 1255   1.085   2.981  16.409 -0.2234  0.4144 -0.1636
   10SAPS  H11R 1256   1.051   2.903  16.339  0.2742 -1.7412  1.8483
   10SAPS  C212 1257   1.141   2.944  16.531  0.6354 -0.4219 -0.4651
   10SAPS  H12R 1258   1.149   2.836  16.550 -3.2653 -0.5482  1.4074
   10SAPS  C213 1259   1.177   3.026  16.655 -0.3336  0.6530  0.0462
   10SAPS  H13R 1260   1.099   3.013  16.732 -0.3588  0.9698  0.0761
   10SAPS  H13S 1261   1.179   3.133  16.626  0.7478  0.3382 -1.1476
   10SAPS  C214 1262   1.308   2.987  16.719 -0.7178  0.3239 -0.2811
   10SAPS  H14R 1263   1.347   2.892  16.681  0.2978  0.6290 -0.0410
   10SAPS  C215 1264   1.357   3.049  16.825  0.1676 -0.2380  0.0944
   10SAPS  H15R 1265   1.449   2.998  16.857 -0.0423 -0.7222 -0.0643
   10SAPS  C216 1266   1.310   3.170  16.896  0.3703 -0.6235 -0.2840
   10SAPS  H16R 1267   1.214   3.203  16.852  0.8711  0.6159 -0.5117
   10SAPS  H16S 1268   1.385   3.249  16.874  0.4939 -0.2819  1.2342
   10SAPS  C217 1269   1.298   3.163  17.053  0.0594  0.5346  0.1968
   10SAPS  H17R 1270   1.212   3.094  17.070  0.9792  0.0097  3.5244
   10SAPS  H17S 1271   1.266   3.263  17.089  0.2322  0.3676  0.8362
   10SAPS  C218 1272   1.434   3.119  17.119 -0.3976 -0.1192  0.1012
   10SAPS  H18R 1273   1.500   3.209  17.123 -0.0587 -0.3863  3.1328
   10SAPS  H18S 1274   1.478   3.032  17.066 -2.2856 -1.1836  0.1752
   10SAPS  C219 1275   1.417   3.088  17.271  0.0171 -0.3782 -0.4242
   10SAPS  H19R 1276   1.508   3.031  17.299  0.4095 -1.1196 -2.9188
   10SAPS  H19S 1277   1.336   3.013  17.288 -0.1916  0.0407  0.4555
   10SAPS  C220 1278   1.379   3.200  17.371  0.7394 -0.4556 -0.7855
   10SAPS  H20R 1279   1.435   3.291  17.338  0.5672  0.8546  2.1963
   10SAPS  H20S 1280   1.388   3.169  17.477  0.9643 -0.1619 -0.7165
   10SAPS  H20T 1281   1.271   3.220  17.360  0.8326  0.7110  0.1741
   10SAPS   C33 1282   0.122   3.579  15.531  0.4871  0.5026 -0.1597
   10SAPS   H3X 1283   0.044   3.654  15.556 -0.0497 -0.1641  0.1988
   10SAPS   H3Y 1284   0.184   3.614  15.446  0.9120 -0.3640 -0.2176
   10SAPS   C34 1285   0.215   3.562  15.655 -0.1182  0.0809  0.1381
   10SAPS   H4X 1286   0.276   3.654  15.659  1.3224 -0.8461  3.7907
   10SAPS   H4Y 1287   0.271   3.468  15.638 -1.2425 -0.3562 -1.3664
   10SAPS   C35 1288   0.138   3.544  15.783  0.5498  0.4476  0.1149
   10SAPS   H5X 1289   0.093   3.443  15.776  1.2607  0.1393 -0.0355
   10SAPS   H5Y 1290   0.051   3.613  15.792 -0.7659 -1.1240 -0.1193
   10SAPS   C36 1291   0.233   3.550  15.901  0.1144 -0.4532  0.7486
   10SAPS   H6X 1292   0.266   3.653  15.923 -2.3398  1.4423 -3.3027
   10SAPS   H6Y 1293   0.329   3.502  15.875  0.2542 -1.0599  2.2849
   10SAPS   C37 1294   0.178   3.479  16.023  0.0399  0.3369 -0.1808
   10SAPS   H7X 1295   0.197   3.371  16.010  1.0258  0.2732  1.5583
   10SAPS   H7Y 1296   0.073   3.512  16.040 -0.4984 -0.7904 -1.2242
   10SAPS   C38 1297   0.257   3.513  16.150  0.1375 -0.1371 -0.2719
   10SAPS   H8X 1298   0.235   3.619  16.174 -0.8946 -0.2580 -0.6331
   10SAPS   H8Y 1299   0.368   3.516  16.150  0.1506 -0.6787  0.0504
   10SAPS   C39 1300   0.234   3.422  16.270  0.2253 -0.0995  0.3428
   10SAPS   H9X 1301   0.295   3.331  16.249  0.5420 -0.4402  2.4318
   10SAPS   H9Y 1302   0.129   3.392  16.292  0.0101  0.2474 -0.2064
   10SAPS  C310 1303   0.287   3.475  16.402 -0.0677 -0.1634 -0.0912
   10SAPS  H10X 1304   0.250   3.579  16.410 -2.0562 -0.9652  2.7135
   10SAPS  H10Y 1305   0.398   3.477  16.403 -0.0686  1.1451  1.9891
   10SAPS  C311 1306   0.246   3.392  16.521  0.2307  0.0468 -0.2808
   10SAPS  H11X 1307   0.279   3.287  16.505 -1.3618 -0.8167  1.6643
   10SAPS  H11Y 1308   0.137   3.382  16.541  0.4626  1.4380  2.0272
   10SAPS  C312 1309   0.300   3.448  16.656  0.4554 -0.0287  0.9368
   10SAPS  H12X 1310   0.409   3.429  16.664  0.6852  1.0214  0.4872
   10SAPS  H12Y 1311   0.246   3.387  16.732  0.1230  0.7922  1.3767
   10SAPS  C313 1312   0.278   3.597  16.678  1.0005  0.0600  0.1249
   10SAPS  H13X 1313   0.168   3.611  16.670  0.8764 -1.5058 -1.6068
   10SAPS  H13Y 1314   0.308   3.657  16.589 -0.5548 -0.8182 -1.0514
   10SAPS  C314 1315   0.326   3.661  16.808  0.5501  0.1265 -0.3320
   10SAPS  H14X 1316   0.419   3.719  16.790 -0.5319  1.9289 -0.3067
   10SAPS  H14Y 1317   0.350   3.573  16.872 -2.2221  0.1041  0.7996
   10SAPS  C315 1318   0.219   3.745  16.880  0.9936  0.1774 -0.4583
   10SAPS  H15X 1319   0.122   3.692  16.891  0.2012  1.5025 -0.8695
   10SAPS  H15Y 1320   0.208   3.835  16.817  2.0665 -0.3156 -1.3835
   10SAPS  C316 1321   0.242   3.787  17.026  0.0847  0.0253 -0.0943
   10SAPS  H16X 1322   0.162   3.857  17.058 -0.5382 -0.1304 -1.2669
   10SAPS  H16Y 1323   0.341   3.839  17.023  2.0250 -3.1523  2.4702
   10SAPS  C317 1324   0.252   3.676  17.131  0.2792  1.1464 -0.6381
   10SAPS  H17X 1325   0.358   3.641  17.132 -0.2513 -0.4891 -0.3974
   10SAPS  H17Y 1326   0.200   3.583  17.100 -0.7946  0.8877  1.7293
   10SAPS  C318 1327   0.206   3.722  17.270  0.2137  0.5717 -0.0848
   10SAPS  H18X 1328   0.095   3.721  17.271  0.1244 -2.7191 -1.4561
   10SAPS  H18Y 1329   0.242   3.821  17.306  0.3482  0.6866 -0.5332
   10SAPS  H18Z 1330   0.240   3.652  17.349 -3.9885  0.2731  1.7205
   11SAPS     N 1331   2.057   2.223  22.041 -0.2746  0.0292  0.1269
   11SAPS   HN1 1332   2.014   2.167  22.118  1.1166 -0.3786  0.6449
   11SAPS   HN2 1333   2.012   2.314  22.022 -1.4920 -0.5900 -0.0778
   11SAPS   HN3 1334   2.045   2.166  21.955 -0.5429  1.1001 -0.5611
   11SAPS   C12 1335   2.202   2.249  22.078  0.1255 -0.2890  0.3671
   11SAPS  H12A 1336   2.236   2.165  22.137  2.2569  1.0534  1.1564
   11SAPS   C13 1337   2.307   2.260  21.967  0.0092  0.3340 -0.8816
   11SAPS  O13A 1338   2.269   2.235  21.850 -0.4169 -0.5706 -0.0373
   11SAPS  O13B 1339   2.424   2.305  21.991 -0.6936 -0.3538  0.0347
   11SAPS   C11 1340   2.213   2.358  22.192 -0.1392  0.6488 -0.5008
   11SAPS  H11A 1341   2.156   2.451  22.171 -2.2246 -1.0080 -2.7403
   11SAPS  H11B 1342   2.322   2.379  22.201  0.0229 -0.1007 -0.6605
   11SAPS     P 1343   2.231   2.245  22.437  0.1165 -0.4751  0.5893
   11SAPS   O13 1344   2.148   2.159  22.528  0.2196 -0.0787  0.0441
   11SAPS   O14 1345   2.354   2.176  22.383  0.1955 -0.6012 -0.0577
   11SAPS   O12 1346   2.149   2.316  22.321  0.7320 -0.5615 -0.1957
   11SAPS   O11 1347   2.283   2.369  22.533  0.3586  0.1462 -0.0183
   11SAPS    C1 1348   2.217   2.493  22.539 -0.3657  0.2260  0.8288
   11SAPS    HA 1349   2.139   2.498  22.459  0.8258  1.1413 -0.3202
   11SAPS    HB 1350   2.186   2.508  22.645 -2.6199  0.5287  0.1779
   11SAPS    C2 1351   2.315   2.609  22.502 -0.0523 -0.1445  0.0209
   11SAPS    HS 1352   2.319   2.600  22.392  0.5482 -2.7878  0.2030
   11SAPS   O21 1353   2.438   2.586  22.569  0.2809  0.2960 -0.7516
   11SAPS   C21 1354   2.546   2.593  22.504 -0.0377 -0.2527 -0.4514
   11SAPS   O22 1355   2.556   2.616  22.386 -0.4086 -0.4680 -0.2135
   11SAPS   C22 1356   2.664   2.577  22.602  0.4872  0.0069 -0.3262
   11SAPS   H2R 1357   2.672   2.468  22.618 -0.1687 -0.0662 -0.4481
   11SAPS   H2S 1358   2.751   2.616  22.546  0.0334 -0.4440 -1.3667
   11SAPS    C3 1359   2.247   2.748  22.540 -0.2554 -0.9402  0.2754
   11SAPS    HX 1360   2.146   2.751  22.494 -0.5468  1.3348  0.9562
   11SAPS    HY 1361   2.305   2.825  22.486  0.2458 -1.0379  0.6677
   11SAPS   O31 1362   2.225   2.776  22.680 -0.1204 -0.2608 -0.2414
   11SAPS   C31 1363   2.328   2.826  22.744 -0.6348  0.1297  0.3449
   11SAPS   O32 1364   2.430   2.864  22.683 -0.3593  0.2818 -0.6904
   11SAPS   C32 1365   2.313   2.796  22.897  0.5555 -0.1436 -0.1402
   11SAPS   H2X 1366   2.417   2.779  22.930  0.4222  0.4920  0.6293
   11SAPS   H2Y 1367   2.261   2.697  22.904 -0.0345  0.1646 -0.1135
   11SAPS   C23 1368   2.649   2.655  22.738  0.8988 -0.2077  0.1302
   11SAPS   H3R 1369   2.560   2.632  22.800  0.5511  1.7176  0.3880
   11SAPS   H3S 1370   2.659   2.762  22.712  0.1818 -0.2147 -0.1744
   11SAPS   C24 1371   2.775   2.625  22.833 -0.3150 -0.0524 -0.0323
   11SAPS   H4R 1372   2.772   2.691  22.923 -3.7493 -0.5453  0.3470
   11SAPS   H4S 1373   2.870   2.640  22.778 -0.9273  0.3270 -1.0017
   11SAPS   C25 1374   2.767   2.490  22.888  0.1896  0.1354  0.0215
   11SAPS   H5R 1375   2.802   2.407  22.825 -0.3400 -0.7394  0.8441
   11SAPS   C26 1376   2.710   2.462  23.011  0.0374 -0.2565  0.0405
   11SAPS   H6R 1377   2.717   2.357  23.044 -2.3625 -0.2773  0.6273
   11SAPS   C27 1378   2.653   2.561  23.109 -0.1951  1.0963  0.4553
   11SAPS   H7R 1379   2.581   2.512  23.177 -1.1893  2.2104  0.2333
   11SAPS   H7S 1380   2.581   2.627  23.056 -2.2069 -2.5639 -1.7662
   11SAPS   C28 1381   2.758   2.649  23.186 -0.2601  0.2891 -0.4887
   11SAPS   H8R 1382   2.865   2.648  23.159  0.4865 -1.0230  2.1735
   11SAPS   C29 1383   2.724   2.724  23.291 -0.4725  0.4425  0.1763
   11SAPS   H9R 1384   2.803   2.781  23.343 -0.8972  1.5406 -0.3553
   11SAPS  C210 1385   2.590   2.748  23.344  0.0173  0.1407 -0.2350
   11SAPS  H10R 1386   2.505   2.703  23.289 -0.8952  1.0889  0.3557
   11SAPS  H10S 1387   2.568   2.857  23.332  0.2862  0.0121 -2.1880
   11SAPS  C211 1388   2.581   2.702  23.488 -0.4438  0.2924 -0.1693
   11SAPS  H11R 1389   2.630   2.607  23.514 -0.8764  0.2366  0.4656
   11SAPS  C212 1390   2.512   2.765  23.585 -0.1070 -0.3148  0.0094
   11SAPS  H12R 1391   2.502   2.715  23.682  1.4543 -1.2750 -0.2847
   11SAPS  C213 1392   2.411   2.874  23.554  0.2909 -0.0399 -0.2929
   11SAPS  H13R 1393   2.460   2.946  23.485  1.4900 -0.0898  0.4894
   11SAPS  H13S 1394   2.421   2.937  23.645  1.1046  0.1354 -0.4968
   11SAPS  C214 1395   2.270   2.832  23.513  0.5893 -0.4430  0.2346
   11SAPS  H14R 1396   2.257   2.820  23.405 -1.0331  1.0189  0.2196
   11SAPS  C215 1397   2.159   2.812  23.586 -0.2290  0.4640  0.2334
   11SAPS  H15R 1398   2.064   2.813  23.530 -0.1506 -0.4693  0.0600
   11SAPS  C216 1399   2.144   2.823  23.734 -0.1196 -0.4220 -0.0824
   11SAPS  H16R 1400   2.075   2.903  23.768 -1.3140 -2.6885  3.4231
   11SAPS  H16S 1401   2.242   2.857  23.775 -0.8608  2.4000 -0.4629
   11SAPS  C217 1402   2.101   2.691  23.803 -0.1649 -0.2259 -1.1631
   11SAPS  H17R 1403   2.137   2.595  23.760 -4.2480 -0.8880 -3.6778
   11SAPS  H17S 1404   1.992   2.683  23.783 -0.5980  0.5079  0.7284
   11SAPS  C218 1405   2.124   2.682  23.952 -0.8356  0.7975  0.3747
   11SAPS  H18R 1406   2.093   2.770  24.014 -1.5758 -0.1112  1.3383
   11SAPS  H18S 1407   2.235   2.682  23.955 -0.8446  0.0457  1.4449
   11SAPS  C219 1408   2.073   2.553  24.020 -0.2569  0.2597  0.2301
   11SAPS  H19R 1409   2.109   2.465  23.963 -0.7425 -0.3054  0.7853
   11SAPS  H19S 1410   1.964   2.558  23.998 -0.5473  0.7596  1.6858
   11SAPS  C220 1411   2.093   2.522  24.174 -0.1735 -0.2602  1.1750
   11SAPS  H20R 1412   2.035   2.588  24.242  0.4925  2.1268 -0.4403
   11SAPS  H20S 1413   2.199   2.543  24.198 -0.6050  2.5573  0.9356
   11SAPS  H20T 1414   2.058   2.417  24.189 -1.3194  0.0471  0.8131
   11SAPS   C33 1415   2.225   2.900  22.970 -0.0598  0.8747  0.1074
   11SAPS   H3X 1416   2.196   2.851  23.065 -0.8546  1.3947  0.1405
   11SAPS   H3Y 1417   2.138   2.927  22.906 -0.8358 -1.4761  0.0733
   11SAPS   C34 1418   2.304   3.024  23.004 -0.2587  0.2645  0.2915
   11SAPS   H4X 1419   2.301   3.093  22.917  0.0260 -0.4479 -0.2977
   11SAPS   H4Y 1420   2.411   2.999  23.023  0.2202  1.8712 -0.0922
   11SAPS   C35 1421   2.246   3.101  23.118 -0.2662 -0.3342 -0.0733
   11SAPS   H5X 1422   2.244   3.049  23.216 -4.3386  0.4009  0.4240
   11SAPS   H5Y 1423   2.140   3.108  23.085 -0.7524 -0.5859  1.3920
   11SAPS   C36 1424   2.312   3.236  23.147 -0.4173  0.0824  0.8688
   11SAPS   H6X 1425   2.301   3.293  23.053 -1.0578 -0.2494  0.7376
   11SAPS   H6Y 1426   2.422   3.221  23.151 -0.0415  1.2491 -2.2152
   11SAPS   C37 1427   2.255   3.329  23.258 -0.4271  0.1625 -0.0808
   11SAPS   H7X 1428   2.303   3.309  23.357 -1.6639  0.1038  0.5272
   11SAPS   H7Y 1429   2.146   3.309  23.256 -0.1035 -1.6708 -1.1247
   11SAPS   C38 1430   2.274   3.479  23.239 -0.7467  0.3396  0.3278
   11SAPS   H8X 1431   2.214   3.519  23.155  0.0433  1.3917  0.2549
   11SAPS   H8Y 1432   2.381   3.499  23.217 -0.5380  0.1900  1.1563
   11SAPS   C39 1433   2.234   3.560  23.354  0.0897 -0.1612  0.7212
   11SAPS   H9X 1434   2.295   3.548  23.446 -0.0247 -2.4704  0.5578
   11SAPS   H9Y 1435   2.131   3.529  23.383  0.7695 -1.2920  2.0431
   11SAPS  C310 1436   2.245   3.706  23.309 -0.5169 -0.7661 -0.5817
   11SAPS  H10X 1437   2.192   3.734  23.216 -1.8275  0.1847  0.4190
   11SAPS  H10Y 1438   2.346   3.729  23.267  0.6253 -1.4864  1.6054
   11SAPS  C311 1439   2.228   3.804  23.422  0.2478  0.4616 -0.2702
   11SAPS  H11X 1440   2.282   3.766  23.511 -0.4406  0.5396  0.1932
   11SAPS  H11Y 1441   2.120   3.805  23.451  0.0741  0.6043 -0.8996
   11SAPS  C312 1442   2.261   3.953  23.397 -0.0128 -0.1649 -0.2115
   11SAPS  H12X 1443   2.350   3.954  23.329 -1.3254  1.0746 -2.0251
   11SAPS  H12Y 1444   2.282   4.007  23.492 -1.9243 -2.0472  1.3643
   11SAPS  C313 1445   2.142   4.022  23.322 -0.4217 -0.0899 -0.2205
   11SAPS  H13X 1446   2.061   4.026  23.398 -0.9958 -0.4414 -0.8034
   11SAPS  H13Y 1447   2.117   3.951  23.241 -0.8284  0.1594 -0.3175
   11SAPS  C314 1448   2.170   4.162  23.266 -0.1996 -0.2459  0.1048
   11SAPS  H14X 1449   2.111   4.178  23.174  0.0266  0.3403  0.0525
   11SAPS  H14Y 1450   2.279   4.166  23.246 -0.5547  0.0430 -1.9392
   11SAPS  C315 1451   2.135   4.279  23.358 -0.6706  1.3956  0.0849
   11SAPS  H15X 1452   2.204   4.266  23.444 -1.5119 -1.0802  0.4737
   11SAPS  H15Y 1453   2.032   4.260  23.394  0.4506 -3.2719  1.5437
   11SAPS  C316 1454   2.146   4.402  23.276  0.5605 -0.9300 -0.3313
   11SAPS  H16X 1455   2.080   4.378  23.190 -1.9261  2.3027  0.4518
   11SAPS  H16Y 1456   2.252   4.418  23.246  1.7980 -2.6352  2.6409
   11SAPS  C317 1457   2.090   4.524  23.344 -0.6562  0.8549  0.4146
   11SAPS  H17X 1458   2.165   4.545  23.423  0.8861  0.5041 -0.9052
   11SAPS  H17Y 1459   1.998   4.492  23.398  0.3128 -2.6672  0.2423
   11SAPS  C318 1460   2.059   4.648  23.254 -0.2084  0.2100 -1.0257
   11SAPS  H18X 1461   2.150   4.680  23.199  1.0114  0.3442  0.9932
   11SAPS  H18Y 1462   2.030   4.736  23.315  1.1490 -0.0135 -0.0281
   11SAPS  H18Z 1463   1.977   4.613  23.187 -0.4557 -0.2733 -0.4878
   12SAPS     N 1464   2.874   1.651  21.178 -0.3176  0.6782 -0.1627
   12SAPS   HN1 1465   2.917   1.636  21.272  1.6690 -0.0851 -1.1439
   12SAPS   HN2 1466   2.855   1.753  21.167 -1.9997  0.3999 -0.1257
   12SAPS   HN3 1467   2.780   1.606  21.177  0.0406 -0.1106  0.8302
   12SAPS   C12 1468   2.952   1.583  21.067  0.3298  0.1370 -0.4861
   12SAPS  H12A 1469   2.890   1.578  20.979  0.1647 -0.0381 -0.3611
   12SAPS   C13 1470   3.080   1.647  21.007  0.2083 -0.6734  0.1947
   12SAPS  O13A 1471   3.120   1.759  21.048  0.4127 -0.1403  0.2682
   12SAPS  O13B 1472   3.114   1.604  20.891 -0.0153 -0.1633 -0.4492
   12SAPS   C11 1473   2.974   1.437  21.102  0.0247 -0.0104 -0.2087
   12SAPS  H11A 1474   3.014   1.380  21.015  0.7279  0.7631 -0.4130
   12SAPS  H11B 1475   2.877   1.389  21.125  0.9804 -0.7796  2.6479
   12SAPS     P 1476   3.114   1.282  21.263 -0.1652  0.0375 -0.2984
   12SAPS   O13 1477   3.094   1.177  21.157 -0.1623  0.3156  0.0686
   12SAPS   O14 1478   3.254   1.293  21.312  0.4523  0.4500 -0.1321
   12SAPS   O12 1479   3.064   1.426  21.210 -0.1550 -0.6400 -0.0788
   12SAPS   O11 1480   3.021   1.257  21.390 -0.1474 -0.0467 -0.3334
   12SAPS    C1 1481   2.894   1.316  21.406 -0.3447  0.1883 -0.4970
   12SAPS    HA 1482   2.908   1.424  21.426 -2.3205  0.5827 -1.1071
   12SAPS    HB 1483   2.836   1.316  21.312  0.1199  0.3579 -0.7888
   12SAPS    C2 1484   2.808   1.249  21.518 -0.4124  0.2149 -0.1726
   12SAPS    HS 1485   2.862   1.268  21.613 -0.3885  2.0894 -0.5112
   12SAPS   O21 1486   2.786   1.103  21.489  0.1444  0.5507 -0.0353
   12SAPS   C21 1487   2.890   1.031  21.528  0.1491 -0.3598  0.0791
   12SAPS   O22 1488   2.977   1.071  21.605  0.0723  0.2937  0.6760
   12SAPS   C22 1489   2.870   0.886  21.470 -0.0797 -0.1144 -0.2575
   12SAPS   H2R 1490   2.835   0.820  21.552 -0.3492 -0.5279 -0.6925
   12SAPS   H2S 1491   2.791   0.881  21.392 -3.1175  1.6930  2.4398
   12SAPS    C3 1492   2.678   1.329  21.540 -0.2124  0.3197  0.6240
   12SAPS    HX 1493   2.608   1.293  21.461  0.0762 -0.7984  0.8654
   12SAPS    HY 1494   2.695   1.437  21.521 -1.9840  0.6322  0.6463
   12SAPS   O31 1495   2.628   1.311  21.678  0.2916 -0.2919  0.2289
   12SAPS   C31 1496   2.499   1.283  21.688  0.0943  1.3295 -0.5142
   12SAPS   O32 1497   2.419   1.277  21.602 -0.0618 -0.2400  0.7059
   12SAPS   C32 1498   2.470   1.238  21.828 -0.5381  0.2876  0.0744
   12SAPS   H2X 1499   2.365   1.270  21.847 -0.4891  0.3372  0.2709
   12SAPS   H2Y 1500   2.539   1.290  21.898  0.4316  0.0099 -0.6619
   12SAPS   C23 1501   3.002   0.814  21.437 -0.9413 -0.1387 -0.0267
   12SAPS   H3R 1502   3.078   0.818  21.518 -2.1684  0.4125  1.1342
   12SAPS   H3S 1503   3.036   0.879  21.354  1.4372 -0.1728  0.8414
   12SAPS   C24 1504   2.996   0.668  21.389 -0.2317  0.1991  0.6464
   12SAPS   H4R 1505   3.097   0.623  21.380 -0.9179 -1.8221  2.2927
   12SAPS   H4S 1506   2.968   0.682  21.282 -0.4947 -0.3367  0.6435
   12SAPS   C25 1507   2.897   0.573  21.453 -0.2877 -0.8730 -0.5321
   12SAPS   H5R 1508   2.795   0.597  21.421 -0.2473 -0.7716 -0.5830
   12SAPS   C26 1509   2.927   0.457  21.516 -0.1512  1.7041  0.4102
   12SAPS   H6R 1510   2.840   0.400  21.553  1.4321 -0.3920  1.0991
   12SAPS   C27 1511   3.059   0.411  21.568  0.1053 -0.0573 -0.1585
   12SAPS   H7R 1512   3.054   0.414  21.679 -0.1905 -2.4299 -0.0684
   12SAPS   H7S 1513   3.136   0.488  21.547 -1.0248  0.8354 -1.1717
   12SAPS   C28 1514   3.106   0.277  21.513 -0.5828  0.3240 -0.0800
   12SAPS   H8R 1515   3.142   0.279  21.409 -0.8881 -1.0067 -0.2374
   12SAPS   C29 1516   3.127   0.165  21.586 -0.1872 -0.3160  0.6331
   12SAPS   H9R 1517   3.161   0.083  21.521 -0.4311  1.6626 -2.1564
   12SAPS  C210 1518   3.093   0.131  21.725  0.4461  0.0986 -0.3176
   12SAPS  H10R 1519   3.126   0.209  21.797  0.3403 -1.1706  1.1746
   12SAPS  H10S 1520   3.149   0.037  21.747  1.1279 -0.2477 -3.1797
   12SAPS  C211 1521   2.951   0.115  21.763 -0.8678 -0.3177  0.7677
   12SAPS  H11R 1522   2.885   0.080  21.682 -1.2877 -0.0683  0.9989
   12SAPS  C212 1523   2.898   0.130  21.888  0.0209 -0.0021  0.3629
   12SAPS  H12R 1524   2.791   0.108  21.891  0.1068 -0.7176 -1.1485
   12SAPS  C213 1525   2.969   0.163  22.019 -0.7045  0.1114 -0.0122
   12SAPS  H13R 1526   3.076   0.185  22.004  0.1051 -3.8104 -1.0248
   12SAPS  H13S 1527   2.987   0.075  22.084  1.5111  1.3819  1.1841
   12SAPS  C214 1528   2.908   0.279  22.099  0.2591 -0.5326  0.0906
   12SAPS  H14R 1529   2.844   0.236  22.177 -2.5464  2.6000 -0.2896
   12SAPS  C215 1530   2.915   0.410  22.080 -0.0190 -0.2153 -0.2772
   12SAPS  H15R 1531   2.851   0.480  22.136 -1.1277 -0.0789 -1.6567
   12SAPS  C216 1532   2.983   0.473  21.956 -0.2608 -0.4100  0.5189
   12SAPS  H16R 1533   2.908   0.455  21.876  0.1597 -2.0909  0.4679
   12SAPS  H16S 1534   3.076   0.420  21.926 -1.2590 -0.6123 -2.5329
   12SAPS  C217 1535   3.016   0.626  21.960 -0.5688  0.3300 -0.6382
   12SAPS  H17R 1536   3.080   0.656  22.046 -1.4956 -0.0899  0.2086
   12SAPS  H17S 1537   2.920   0.678  21.981 -1.9135 -2.7178  1.4210
   12SAPS  C218 1538   3.095   0.667  21.835  0.0536 -0.1828  0.2887
   12SAPS  H18R 1539   3.023   0.666  21.751  0.0321 -1.7362  0.3004
   12SAPS  H18S 1540   3.181   0.602  21.809 -0.2321 -0.3022 -0.3672
   12SAPS  C219 1541   3.148   0.811  21.848 -0.3623 -0.3030 -0.3434
   12SAPS  H19R 1542   3.201   0.855  21.761 -0.5320  1.7358  0.5266
   12SAPS  H19S 1543   3.224   0.822  21.928  0.9615  1.1307 -1.7312
   12SAPS  C220 1544   3.041   0.922  21.881  0.2964 -0.2236 -1.0807
   12SAPS  H20R 1545   2.960   0.913  21.806 -1.4562  1.2380  0.5316
   12SAPS  H20S 1546   3.081   1.026  21.875 -1.1577  0.5021  0.8368
   12SAPS  H20T 1547   2.985   0.905  21.975  0.9812 -1.1435 -0.8269
   12SAPS   C33 1548   2.486   1.084  21.852  0.7399 -0.5224 -0.2756
   12SAPS   H3X 1549   2.446   1.034  21.761  3.6425 -2.7255 -0.4887
   12SAPS   H3Y 1550   2.415   1.071  21.936  0.1362 -1.5251 -0.9250
   12SAPS   C34 1551   2.624   1.030  21.874  0.4088  0.6868  0.3286
   12SAPS   H4X 1552   2.646   1.032  21.983  0.8180 -0.9398  0.2991
   12SAPS   H4Y 1553   2.700   1.100  21.832  1.5526 -1.3187 -1.0874
   12SAPS   C35 1554   2.645   0.896  21.805  0.1964 -0.0166 -0.4539
   12SAPS   H5X 1555   2.753   0.873  21.811  0.2578  0.2490 -0.5268
   12SAPS   H5Y 1556   2.603   0.913  21.703 -1.8878  0.0967  0.3650
   12SAPS   C36 1557   2.564   0.779  21.871 -0.2889  0.9984  0.0653
   12SAPS   H6X 1558   2.459   0.815  21.874 -0.4648  0.4532  1.9308
   12SAPS   H6Y 1559   2.598   0.763  21.976  1.7681  0.4842 -0.6305
   12SAPS   C37 1560   2.590   0.650  21.803 -0.3633 -0.1980 -0.1835
   12SAPS   H7X 1561   2.695   0.614  21.800 -0.4195 -0.3353 -0.8135
   12SAPS   H7Y 1562   2.560   0.662  21.696  1.0789 -1.1507 -0.7273
   12SAPS   C38 1563   2.508   0.547  21.880 -0.1168  0.0826  0.0066
   12SAPS   H8X 1564   2.400   0.569  21.871  0.1705  1.4189 -0.3064
   12SAPS   H8Y 1565   2.544   0.542  21.985 -2.3746 -1.3698  0.7811
   12SAPS   C39 1566   2.529   0.401  21.831 -0.9357  0.1565  0.6422
   12SAPS   H9X 1567   2.638   0.379  21.826 -1.1101 -0.7804  0.7651
   12SAPS   H9Y 1568   2.484   0.374  21.733 -1.2831  0.2066  0.7856
   12SAPS  C310 1569   2.472   0.301  21.933  0.3237 -0.4284  0.2378
   12SAPS  H10X 1570   2.363   0.324  21.923  0.7201  1.9497  0.8378
   12SAPS  H10Y 1571   2.505   0.306  22.039  0.7649 -1.2235  0.1443
   12SAPS  C311 1572   2.495   0.154  21.884 -0.1268 -0.1394  0.2650
   12SAPS  H11X 1573   2.594   0.135  21.837 -0.5951  0.3034 -0.9138
   12SAPS  H11Y 1574   2.415   0.155  21.808  1.2714  2.1273 -1.3111
   12SAPS  C312 1575   2.469   0.043  21.993  0.1567  0.3588  0.4975
   12SAPS  H12X 1576   2.396  -0.030  21.952 -0.2936  0.1885  1.5699
   12SAPS  H12Y 1577   2.428   0.084  22.088 -0.0482 -0.2431  0.6721
   12SAPS  C313 1578   2.602  -0.039  22.030  0.8291 -0.0564 -0.1148
   12SAPS  H13X 1579   2.684   0.033  22.051  2.6486 -2.0212 -0.1698
   12SAPS  H13Y 1580   2.627  -0.096  21.938  0.9243  0.1327 -0.2086
   12SAPS  C314 1581   2.573  -0.126  22.153 -1.1460 -0.3656  0.3965
   12SAPS  H14X 1582   2.495  -0.198  22.120 -0.6630 -0.0927 -1.4497
   12SAPS  H14Y 1583   2.541  -0.071  22.244  1.7458  0.8506  0.7938
   12SAPS  C315 1584   2.702  -0.206  22.191  0.3075 -0.1620  0.5112
   12SAPS  H15X 1585   2.775  -0.128  22.223  0.0712 -0.1453  1.0123
   12SAPS  H15Y 1586   2.731  -0.251  22.094  0.2500 -0.5079  0.6532
   12SAPS  C316 1587   2.678  -0.308  22.305  0.3805 -0.7880 -0.0016
   12SAPS  H16X 1588   2.656  -0.250  22.398 -0.8250 -2.2953  0.7065
   12SAPS  H16Y 1589   2.766  -0.372  22.328  2.0629  1.2076 -0.5280
   12SAPS  C317 1590   2.561  -0.403  22.277 -0.0157 -0.2692 -0.0611
   12SAPS  H17X 1591   2.561  -0.429  22.169  1.7608 -0.8569  0.0521
   12SAPS  H17Y 1592   2.475  -0.340  22.309 -0.3083 -2.0903  3.1931
   12SAPS  C318 1593   2.560  -0.526  22.370 -0.1079 -0.2679  0.0988
   12SAPS  H18X 1594   2.655  -0.583  22.369  0.8210  1.2186 -0.3874
   12SAPS  H18Y 1595   2.481  -0.598  22.343 -2.2486  1.5335  1.1948
   12SAPS  H18Z 1596   2.554  -0.489  22.475 -1.2554  0.9304 -0.3638
   13SAPS     N 1597   3.905   3.796  15.333  0.4587 -0.1299 -0.6423
   13SAPS   HN1 1598   3.936   3.798  15.432  3.6748  0.5417 -1.5424
   13SAPS   HN2 1599   3.916   3.700  15.293 -0.8419  0.6149 -3.0016
   13SAPS   HN3 1600   3.962   3.856  15.270  2.0043 -0.0196  0.8062
   13SAPS   C12 1601   3.768   3.844  15.311 -0.1415  0.1846 -0.1929
   13SAPS  H12A 1602   3.770   3.948  15.339  1.9656 -0.6347  3.2533
   13SAPS   C13 1603   3.724   3.831  15.165  0.0868  0.3926 -0.2239
   13SAPS  O13A 1604   3.801   3.773  15.081  0.2756  0.1814 -0.1952
   13SAPS  O13B 1605   3.621   3.893  15.124 -1.4062  0.5576 -0.0628
   13SAPS   C11 1606   3.665   3.763  15.403 -0.0592  0.5316 -0.8023
   13SAPS  H11A 1607   3.564   3.809  15.400 -1.0355 -1.3589  0.6283
   13SAPS  H11B 1608   3.702   3.768  15.508  3.9317 -0.8250 -1.9417
   13SAPS     P 1609   3.646   3.513  15.456 -0.3203 -0.4247 -0.0371
   13SAPS   O13 1610   3.514   3.450  15.458  0.4576 -0.0383 -0.1035
   13SAPS   O14 1611   3.754   3.420  15.423 -0.4660 -0.2478  0.3510
   13SAPS   O12 1612   3.651   3.628  15.361  0.0173 -0.0454  0.2848
   13SAPS   O11 1613   3.677   3.572  15.597  0.2656 -0.6209 -0.3838
   13SAPS    C1 1614   3.697   3.498  15.715 -0.4920  0.2172  0.2858
   13SAPS    HA 1615   3.721   3.390  15.702 -1.1825  0.1283 -0.3156
   13SAPS    HB 1616   3.788   3.540  15.763 -1.0156 -0.4926  1.9783
   13SAPS    C2 1617   3.578   3.504  15.815  0.5947 -0.8591  0.2150
   13SAPS    HS 1618   3.606   3.438  15.900 -1.0800  0.4137  1.8439
   13SAPS   O21 1619   3.450   3.468  15.760 -0.2352  0.4180 -0.5513
   13SAPS   C21 1620   3.441   3.347  15.722  0.4113 -0.1022 -0.1874
   13SAPS   O22 1621   3.529   3.260  15.732  0.1118 -0.8622  0.4401
   13SAPS   C22 1622   3.308   3.324  15.652  0.0009 -0.7701 -0.2029
   13SAPS   H2R 1623   3.299   3.398  15.569  1.9567  1.1497  1.1743
   13SAPS   H2S 1624   3.304   3.221  15.611  1.2374 -1.1196  0.5055
   13SAPS    C3 1625   3.565   3.643  15.880 -0.0285  0.4110  0.3965
   13SAPS    HX 1626   3.539   3.713  15.797 -1.2488 -2.7328 -2.0641
   13SAPS    HY 1627   3.661   3.675  15.927 -0.5964  0.6988  1.3804
   13SAPS   O31 1628   3.467   3.642  15.988  0.3770 -0.4219  0.1645
   13SAPS   C31 1629   3.352   3.697  15.964 -0.7994 -0.4619 -0.4690
   13SAPS   O32 1630   3.321   3.758  15.859 -0.2555  0.4928 -0.4005
   13SAPS   C32 1631   3.260   3.673  16.077  0.7237  0.4117 -0.4444
   13SAPS   H2X 1632   3.197   3.763  16.089  2.6783  1.9331 -1.1098
   13SAPS   H2Y 1633   3.314   3.681  16.173 -0.6566 -1.0029  0.4980
   13SAPS   C23 1634   3.191   3.343  15.752 -0.3134 -0.1947  0.4962
   13SAPS   H3R 1635   3.098   3.314  15.700 -0.1245 -0.7489  0.4576
   13SAPS   H3S 1636   3.185   3.443  15.800  0.4313  0.1805 -0.1633
   13SAPS   C24 1637   3.192   3.238  15.872 -0.8196 -0.0593 -0.2750
   13SAPS   H4R 1638   3.111   3.271  15.940  0.0389 -0.4123  0.9567
   13SAPS   H4S 1639   3.283   3.243  15.935 -0.5680  2.5988 -0.7573
   13SAPS   C25 1640   3.169   3.093  15.825 -0.4396  0.0381  0.1454
   13SAPS   H5R 1641   3.254   3.027  15.801  0.2017 -0.7611  3.9522
   13SAPS   C26 1642   3.053   3.027  15.818 -0.1950 -0.2678 -0.2403
   13SAPS   H6R 1643   3.051   2.924  15.778  1.5812  0.4622 -2.4214
   13SAPS   C27 1644   2.914   3.094  15.841 -0.4341  0.4543 -0.5710
   13SAPS   H7R 1645   2.868   3.121  15.743 -0.8109 -0.1934 -0.5812
   13SAPS   H7S 1646   2.919   3.177  15.914 -0.7572 -1.2893  1.5320
   13SAPS   C28 1647   2.815   2.988  15.890  0.1344 -0.1284  0.6128
   13SAPS   H8R 1648   2.844   2.884  15.910  0.1198 -0.2298  0.1270
   13SAPS   C29 1649   2.686   3.020  15.912  0.1858  0.7507  0.1053
   13SAPS   H9R 1650   2.625   2.946  15.968 -0.2918  0.9635 -0.1265
   13SAPS  C210 1651   2.611   3.151  15.898  0.6893  0.1890 -0.4541
   13SAPS  H10R 1652   2.508   3.110  15.905  0.7714  0.2539  1.6083
   13SAPS  H10S 1653   2.625   3.195  15.796 -1.0063 -0.7158 -1.1197
   13SAPS  C211 1654   2.644   3.251  16.007 -0.3216 -0.2096  0.6410
   13SAPS  H11R 1655   2.748   3.248  16.044 -0.5372 -0.4412  1.2314
   13SAPS  C212 1656   2.566   3.320  16.085  0.3881 -0.1533 -0.0718
   13SAPS  H12R 1657   2.608   3.385  16.163  0.1984  1.2793 -1.1278
   13SAPS  C213 1658   2.422   3.334  16.077  0.8235  1.0600 -0.4071
   13SAPS  H13R 1659   2.378   3.358  16.176  0.5901 -1.2662  0.1178
   13SAPS  H13S 1660   2.387   3.232  16.050 -0.8152  1.5790 -0.3701
   13SAPS  C214 1661   2.366   3.435  15.986 -0.0265  0.3642  1.5022
   13SAPS  H14R 1662   2.306   3.395  15.903 -0.1604 -3.2873  3.1698
   13SAPS  C215 1663   2.356   3.565  16.015 -0.4104  0.1845 -0.4166
   13SAPS  H15R 1664   2.300   3.635  15.952 -1.3301  1.2973  1.5446
   13SAPS  C216 1665   2.408   3.626  16.137 -0.5441 -0.3674 -0.2743
   13SAPS  H16R 1666   2.485   3.700  16.108 -0.3241 -0.2794  0.5117
   13SAPS  H16S 1667   2.457   3.560  16.212 -1.7800 -1.8126 -0.6825
   13SAPS  C217 1668   2.291   3.697  16.208  0.2186 -0.1487 -0.5185
   13SAPS  H17R 1669   2.237   3.772  16.147 -0.8208 -1.2019 -0.9369
   13SAPS  H17S 1670   2.334   3.753  16.294 -0.3775  1.5723 -1.2999
   13SAPS  C218 1671   2.188   3.596  16.260  0.2186 -0.4632  0.3797
   13SAPS  H18R 1672   2.253   3.520  16.309  2.0752 -0.9433 -2.5633
   13SAPS  H18S 1673   2.138   3.537  16.180  0.2068  0.1700 -0.0865
   13SAPS  C219 1674   2.096   3.656  16.370  0.3077 -0.1080 -0.0598
   13SAPS  H19R 1675   2.166   3.704  16.442 -0.8292  0.9628  0.3619
   13SAPS  H19S 1676   2.044   3.570  16.417 -1.2219  0.9701  0.3015
   13SAPS  C220 1677   2.011   3.772  16.314 -0.3590  0.4770  0.1158
   13SAPS  H20R 1678   1.928   3.719  16.262  0.0171  0.4062 -0.4162
   13SAPS  H20S 1679   2.059   3.852  16.254 -2.4609  1.4124 -0.4027
   13SAPS  H20T 1680   1.964   3.813  16.406  1.0048 -2.0158  2.0643
   13SAPS   C33 1681   3.182   3.532  16.067 -0.5031 -0.4088 -0.9070
   13SAPS   H3X 1682   3.252   3.446  16.077 -0.0354 -0.2515 -2.5127
   13SAPS   H3Y 1683   3.121   3.513  15.976 -1.7509 -1.3497  0.0802
   13SAPS   C34 1684   3.091   3.518  16.190  0.3333 -0.0739  0.8807
   13SAPS   H4X 1685   3.020   3.604  16.195 -0.5468 -0.4392 -2.7477
   13SAPS   H4Y 1686   3.153   3.514  16.282  2.0120  0.5232 -0.1765
   13SAPS   C35 1687   2.997   3.396  16.177 -0.7962 -0.1178 -0.5502
   13SAPS   H5X 1688   3.064   3.310  16.154 -0.5756 -1.5463  4.3396
   13SAPS   H5Y 1689   2.925   3.404  16.093 -1.0452 -0.8656 -0.4235
   13SAPS   C36 1690   2.937   3.352  16.312  0.2480 -0.1658  0.3795
   13SAPS   H6X 1691   3.007   3.307  16.387  2.1533 -0.0235 -1.2359
   13SAPS   H6Y 1692   2.864   3.269  16.295  1.7186 -2.1977  3.0964
   13SAPS   C37 1693   2.851   3.464  16.372  0.1588  0.1587 -1.0196
   13SAPS   H7X 1694   2.780   3.502  16.296 -1.3132  1.4108  0.8665
   13SAPS   H7Y 1695   2.910   3.543  16.425 -0.2260 -0.4293  0.3419
   13SAPS   C38 1696   2.757   3.410  16.486 -0.4493  0.4785 -0.2258
   13SAPS   H8X 1697   2.811   3.375  16.577 -0.7843  1.1052  0.2190
   13SAPS   H8Y 1698   2.703   3.330  16.430  1.3949  0.6696 -2.4282
   13SAPS   C39 1699   2.657   3.517  16.548  0.4386  0.2563  0.3276
   13SAPS   H9X 1700   2.606   3.573  16.467  0.4232  2.8624  2.0530
   13SAPS   H9Y 1701   2.710   3.597  16.603 -0.5607  0.3875  1.1261
   13SAPS  C310 1702   2.549   3.449  16.630  0.5360  0.4214  0.0706
   13SAPS  H10X 1703   2.596   3.412  16.723  0.6560  2.3678  0.8280
   13SAPS  H10Y 1704   2.520   3.357  16.575  1.4441  0.6066 -0.7442
   13SAPS  C311 1705   2.430   3.533  16.667  0.2416 -0.0469  0.1359
   13SAPS  H11X 1706   2.394   3.569  16.568  0.7152  2.5580  0.8447
   13SAPS  H11Y 1707   2.460   3.624  16.721 -1.8502  2.0034 -1.9024
   13SAPS  C312 1708   2.315   3.465  16.744 -0.7344  0.6584 -0.0887
   13SAPS  H12X 1709   2.359   3.414  16.832  2.4193  1.1581 -1.2609
   13SAPS  H12Y 1710   2.285   3.383  16.675  0.1381 -0.7218  1.1279
   13SAPS  C313 1711   2.182   3.544  16.771 -0.0203 -0.2589  0.9255
   13SAPS  H13X 1712   2.091   3.480  16.776  1.1175 -1.8675  2.0384
   13SAPS  H13Y 1713   2.165   3.616  16.689 -0.7275 -0.2325  1.0913
   13SAPS  C314 1714   2.219   3.622  16.906 -0.0089  0.0496 -0.5669
   13SAPS  H14X 1715   2.289   3.702  16.875 -1.5607  1.0896 -1.5682
   13SAPS  H14Y 1716   2.255   3.545  16.977 -1.9738 -0.6877 -0.3071
   13SAPS  C315 1717   2.103   3.695  16.974  0.2422 -0.4224  0.2194
   13SAPS  H15X 1718   2.021   3.627  17.006 -0.8625  0.5086 -0.5232
   13SAPS  H15Y 1719   2.063   3.775  16.907  0.8261  0.1490  0.5387
   13SAPS  C316 1720   2.156   3.760  17.098  0.3640 -0.1659  0.6154
   13SAPS  H16X 1721   2.248   3.817  17.073 -0.9953  0.9718 -2.2676
   13SAPS  H16Y 1722   2.195   3.679  17.163  0.5739  0.9599  1.9391
   13SAPS  C317 1723   2.062   3.855  17.171  1.1231 -0.0762 -0.2405
   13SAPS  H17X 1724   1.976   3.800  17.214  0.5115  1.7325  0.9704
   13SAPS  H17Y 1725   2.027   3.930  17.098  0.1210 -1.5529 -1.3303
   13SAPS  C318 1726   2.126   3.922  17.289 -0.3455  0.3471 -0.2768
   13SAPS  H18X 1727   2.196   3.995  17.243 -0.9558  1.0003 -0.1932
   13SAPS  H18Y 1728   2.185   3.844  17.342 -1.4129  0.2831  0.8848
   13SAPS  H18Z 1729   2.054   3.970  17.360  0.2256 -0.9682  1.2376
   14SAPS     N 1730   2.163   1.507  20.925  0.1253 -0.1125 -0.2039
   14SAPS   HN1 1731   2.207   1.413  20.922  0.6577  0.0741  1.0828
   14SAPS   HN2 1732   2.077   1.494  20.983 -1.9135 -1.4030 -3.2656
   14SAPS   HN3 1733   2.122   1.528  20.832 -1.6749 -1.0118  0.3424
   14SAPS   C12 1734   2.245   1.621  20.978 -0.3224 -0.0901 -0.0184
   14SAPS  H12A 1735   2.331   1.628  20.914 -0.6691 -2.9106 -0.9241
   14SAPS   C13 1736   2.180   1.765  20.986  0.3701 -0.3460  0.1893
   14SAPS  O13A 1737   2.062   1.783  20.940 -0.3155  0.1178 -0.1858
   14SAPS  O13B 1738   2.241   1.865  21.027 -0.5327  0.1717  0.0455
   14SAPS   C11 1739   2.303   1.595  21.122  0.3705  0.6090 -0.1400
   14SAPS  H11A 1740   2.225   1.594  21.201  0.8120  1.8125  0.3292
   14SAPS  H11B 1741   2.356   1.687  21.153  0.7714  0.8458 -1.4704
   14SAPS     P 1742   2.499   1.454  21.232  0.2853 -0.1990  0.1763
   14SAPS   O13 1743   2.614   1.539  21.197 -0.6562  0.3364  0.6415
   14SAPS   O14 1744   2.444   1.471  21.366 -0.1738 -0.4853  0.4050
   14SAPS   O12 1745   2.381   1.472  21.125  0.0398  0.2935 -0.3914
   14SAPS   O11 1746   2.537   1.313  21.235 -0.6869  0.0227  0.4265
   14SAPS    C1 1747   2.556   1.218  21.132  0.4246  0.5434 -0.2025
   14SAPS    HA 1748   2.560   1.263  21.031  0.6922  1.7675  0.3361
   14SAPS    HB 1749   2.659   1.178  21.145 -1.0145 -2.8583  2.3670
   14SAPS    C2 1750   2.442   1.116  21.132  0.1232  0.2970  0.4147
   14SAPS    HS 1751   2.343   1.165  21.140  0.0372  0.1126  0.4806
   14SAPS   O21 1752   2.469   1.017  21.235  0.1167 -0.1455  0.1121
   14SAPS   C21 1753   2.416   1.039  21.350 -0.3075 -0.5631 -0.2484
   14SAPS   O22 1754   2.351   1.131  21.391  0.8991 -0.5430 -0.2020
   14SAPS   C22 1755   2.451   0.920  21.444 -0.5219  0.5705  0.8187
   14SAPS   H2R 1756   2.521   0.846  21.399 -1.8226 -2.1851  3.0157
   14SAPS   H2S 1757   2.494   0.976  21.530  1.2106  0.4229  0.0907
   14SAPS    C3 1758   2.447   1.041  20.998  0.1093  0.3055 -0.1810
   14SAPS    HX 1759   2.547   0.997  20.979  0.6329  0.3806  2.0276
   14SAPS    HY 1760   2.433   1.123  20.925 -0.8930  0.7458  0.4773
   14SAPS   O31 1761   2.337   0.946  20.979  0.1984 -0.0647  0.2737
   14SAPS   C31 1762   2.373   0.815  21.001 -0.0239 -0.2120  0.9975
   14SAPS   O32 1763   2.484   0.776  21.030  0.3707 -0.0082  0.2889
   14SAPS   C32 1764   2.256   0.728  20.960 -0.4594 -0.9625 -0.7912
   14SAPS   H2X 1765   2.248   0.719  20.850  0.5765  0.6037 -1.0263
   14SAPS   H2Y 1766   2.161   0.772  20.997 -0.0223 -0.7223  0.0790
   14SAPS   C23 1767   2.318   0.851  21.480 -0.4246 -0.3045  0.0702
   14SAPS   H3R 1768   2.232   0.918  21.500 -0.7213 -0.2602 -1.2886
   14SAPS   H3S 1769   2.337   0.792  21.572 -1.1511  0.5085  0.7513
   14SAPS   C24 1770   2.273   0.748  21.374  0.3281  0.3713 -0.3710
   14SAPS   H4R 1771   2.353   0.671  21.365  0.2141  0.2480 -0.3390
   14SAPS   H4S 1772   2.266   0.816  21.286 -0.0674  0.4055 -0.3185
   14SAPS   C25 1773   2.141   0.688  21.414 -0.2152  0.5714 -0.2411
   14SAPS   H5R 1774   2.056   0.754  21.387 -0.4410  0.8733  1.1208
   14SAPS   C26 1775   2.114   0.556  21.449 -0.2160  0.2643 -0.1081
   14SAPS   H6R 1776   2.008   0.532  21.466  0.3591 -0.8068  2.3795
   14SAPS   C27 1777   2.217   0.448  21.486 -0.6281 -0.0961  0.7310
   14SAPS   H7R 1778   2.323   0.472  21.460 -1.0163 -0.1110 -1.0142
   14SAPS   H7S 1779   2.193   0.357  21.427 -0.7619  0.2281  0.2788
   14SAPS   C28 1780   2.206   0.411  21.634  0.1345 -0.0264  0.3449
   14SAPS   H8R 1781   2.254   0.489  21.695 -0.3393  0.4640  0.1098
   14SAPS   C29 1782   2.162   0.303  21.693 -0.3443 -0.1335 -0.1776
   14SAPS   H9R 1783   2.149   0.303  21.803 -0.9375 -1.7194 -0.2180
   14SAPS  C210 1784   2.111   0.181  21.617 -0.2728 -0.0833 -0.2278
   14SAPS  H10R 1785   2.133   0.087  21.672  2.1506  0.3205 -0.4062
   14SAPS  H10S 1786   2.167   0.178  21.522  0.3985  1.7190  0.0734
   14SAPS  C211 1787   1.966   0.204  21.590 -0.3705  0.1077  0.0280
   14SAPS  H11R 1788   1.932   0.306  21.612  2.7974  1.7413 -1.8863
   14SAPS  C212 1789   1.874   0.103  21.577 -0.3126 -0.7137 -0.1784
   14SAPS  H12R 1790   1.769   0.136  21.567  0.0453 -0.1561 -2.8770
   14SAPS  C213 1791   1.895  -0.045  21.568 -0.0529 -0.2335  0.0546
   14SAPS  H13R 1792   2.001  -0.068  21.544 -0.2647 -2.2906  0.8728
   14SAPS  H13S 1793   1.832  -0.093  21.491  1.3138 -0.2617 -1.0952
   14SAPS  C214 1794   1.872  -0.111  21.701  0.1581 -0.0947 -0.3648
   14SAPS  H14R 1795   1.772  -0.090  21.742  0.2996  1.3480 -0.6685
   14SAPS  C215 1796   1.961  -0.189  21.768 -0.4118  0.3302 -0.3423
   14SAPS  H15R 1797   1.928  -0.234  21.863  0.0368 -0.2364 -0.4475
   14SAPS  C216 1798   2.099  -0.231  21.725 -0.2299  0.2317 -0.6973
   14SAPS  H16R 1799   2.125  -0.176  21.632  0.8496 -0.7981 -1.0307
   14SAPS  H16S 1800   2.115  -0.336  21.692 -0.6213  0.0500 -0.3179
   14SAPS  C217 1801   2.200  -0.205  21.841  0.6024 -0.7811 -0.0869
   14SAPS  H17R 1802   2.193  -0.097  21.869  1.1184 -1.1799  1.7056
   14SAPS  H17S 1803   2.307  -0.214  21.812  0.2564  0.5935 -2.0253
   14SAPS  C218 1804   2.178  -0.279  21.973 -0.7817 -0.7780  0.5393
   14SAPS  H18R 1805   2.084  -0.253  22.026  0.2434  0.9927  1.5869
   14SAPS  H18S 1806   2.252  -0.246  22.049 -2.1405 -1.3544  2.1846
   14SAPS  C219 1807   2.193  -0.435  21.948 -0.1544 -0.6167 -1.1143
   14SAPS  H19R 1808   2.249  -0.454  21.854 -1.0618  2.9561 -2.5325
   14SAPS  H19S 1809   2.089  -0.472  21.938 -0.1754 -0.2077 -2.5492
   14SAPS  C220 1810   2.245  -0.512  22.065  0.4177 -0.0073  0.4680
   14SAPS  H20R 1811   2.252  -0.622  22.050 -1.6746 -0.0759 -0.2815
   14SAPS  H20S 1812   2.180  -0.481  22.150 -2.3295  1.8272 -2.0925
   14SAPS  H20T 1813   2.346  -0.470  22.084  0.3835  0.9112 -1.2201
   14SAPS   C33 1814   2.259   0.580  21.008  0.1651 -0.7203 -0.2736
   14SAPS   H3X 1815   2.278   0.587  21.118  2.5146  1.0124 -0.7121
   14SAPS   H3Y 1816   2.340   0.522  20.958  0.4484 -0.8046  0.2664
   14SAPS   C34 1817   2.120   0.517  20.995  0.1190  0.2246  0.1058
   14SAPS   H4X 1818   2.112   0.518  20.884  2.6275  1.9884 -0.1556
   14SAPS   H4Y 1819   2.036   0.572  21.042 -0.4314 -0.8057  0.3539
   14SAPS   C35 1820   2.119   0.373  21.048  0.1387 -0.3873 -0.3627
   14SAPS   H5X 1821   2.151   0.367  21.154  0.8459 -1.3603 -0.6205
   14SAPS   H5Y 1822   2.197   0.314  20.995  0.8900  1.9069 -1.9715
   14SAPS   C36 1823   1.985   0.305  21.034  0.0807 -0.0795 -0.0228
   14SAPS   H6X 1824   1.936   0.337  20.939 -1.2547  0.7378  0.9119
   14SAPS   H6Y 1825   1.916   0.332  21.116  0.3615  0.3339  0.0755
   14SAPS   C37 1826   2.007   0.155  21.027  0.4368  0.5502 -0.5489
   14SAPS   H7X 1827   2.091   0.138  20.957  1.6503 -1.4813  1.2770
   14SAPS   H7Y 1828   1.915   0.107  20.989  0.2925  2.0932 -2.2890
   14SAPS   C38 1829   2.040   0.095  21.167  0.9578 -0.0224  0.7160
   14SAPS   H8X 1830   1.954   0.088  21.236  0.6017  0.7897  0.3698
   14SAPS   H8Y 1831   2.120   0.158  21.213  1.1990  0.9418 -0.9144
   14SAPS   C39 1832   2.088  -0.043  21.143  0.4363  0.3238 -0.5296
   14SAPS   H9X 1833   2.178  -0.041  21.078  0.1619  1.6725 -0.8952
   14SAPS   H9Y 1834   2.004  -0.091  21.089  1.3741 -0.5910 -1.2262
   14SAPS  C310 1835   2.109  -0.127  21.276  0.1407  0.1997 -0.3514
   14SAPS  H10X 1836   2.007  -0.130  21.321 -0.5467  0.2946 -1.8439
   14SAPS  H10Y 1837   2.174  -0.075  21.349  0.9060 -1.5395  0.2715
   14SAPS  C311 1838   2.168  -0.271  21.253 -0.2744 -0.7380 -0.0167
   14SAPS  H11X 1839   2.279  -0.268  21.252 -0.2829  0.8121  0.4770
   14SAPS  H11Y 1840   2.116  -0.320  21.168 -0.6026 -2.3173  1.0601
   14SAPS  C312 1841   2.148  -0.357  21.382 -0.3892 -0.3631  0.6695
   14SAPS  H12X 1842   2.038  -0.346  21.397 -0.4680  0.4518 -0.3990
   14SAPS  H12Y 1843   2.205  -0.319  21.469 -3.1885 -1.2781  3.0758
   14SAPS  C313 1844   2.181  -0.507  21.363 -0.6182 -0.0486 -0.5247
   14SAPS  H13X 1845   2.292  -0.500  21.351 -0.2354 -2.3778  1.0825
   14SAPS  H13Y 1846   2.125  -0.554  21.280 -1.2901  0.3645 -0.3170
   14SAPS  C314 1847   2.166  -0.599  21.491 -0.1635 -0.1250 -0.1250
   14SAPS  H14X 1848   2.057  -0.617  21.505 -0.4033  1.8291  1.0274
   14SAPS  H14Y 1849   2.197  -0.547  21.584 -1.9685  0.5339  0.1523
   14SAPS  C315 1850   2.238  -0.742  21.491 -0.1952 -0.4633  0.4212
   14SAPS  H15X 1851   2.219  -0.784  21.592 -1.0973 -0.4456  0.2746
   14SAPS  H15Y 1852   2.348  -0.736  21.483 -0.2113 -1.5876 -0.8921
   14SAPS  C316 1853   2.181  -0.835  21.384 -0.3562 -0.8026 -0.9936
   14SAPS  H16X 1854   2.220  -0.795  21.288  1.0745  0.8329  0.2025
   14SAPS  H16Y 1855   2.070  -0.825  21.388 -0.2057  1.3716 -0.8662
   14SAPS  C317 1856   2.226  -0.979  21.417  0.3486 -0.7846 -0.0973
   14SAPS  H17X 1857   2.173  -1.008  21.510  0.8578  1.3011  0.9190
   14SAPS  H17Y 1858   2.333  -0.987  21.446 -0.2006  0.4428  2.5540
   14SAPS  C318 1859   2.201  -1.073  21.299  0.2153 -0.4675  0.1918
   14SAPS  H18X 1860   2.097  -1.110  21.307  0.4173 -0.9428  0.7070
   14SAPS  H18Y 1861   2.269  -1.159  21.316 -0.5486 -1.4712 -1.5428
   14SAPS  H18Z 1862   2.224  -1.025  21.202 -1.9091 -2.1233 -1.2078
   15SAPS     N 1863   3.008   2.135  21.567 -0.3988  0.2855  0.1140
   15SAPS   HN1 1864   3.035   2.235  21.560 -0.0396  0.2261  0.6254
   15SAPS   HN2 1865   3.095   2.080  21.580 -0.2009  0.2495 -1.2318
   15SAPS   HN3 1866   2.962   2.094  21.483 -1.1761 -2.4666  1.7512
   15SAPS   C12 1867   2.929   2.096  21.681 -0.6545 -0.0657 -0.1975
   15SAPS  H12A 1868   2.976   2.144  21.766 -3.1751 -0.6118  1.6193
   15SAPS   C13 1869   2.775   2.136  21.674 -0.2783  0.8624 -0.5506
   15SAPS  O13A 1870   2.721   2.197  21.584 -0.4113  0.4297 -0.1698
   15SAPS  O13B 1871   2.719   2.133  21.787 -0.1411 -0.3108 -0.0707
   15SAPS   C11 1872   2.934   1.941  21.687  0.2012  0.1468 -0.3559
   15SAPS  H11A 1873   2.880   1.904  21.776 -0.9454  0.4347 -0.9141
   15SAPS  H11B 1874   3.039   1.910  21.710 -0.2430 -1.0316  0.1643
   15SAPS     P 1875   2.921   1.723  21.530 -0.1857 -0.1070 -0.7126
   15SAPS   O13 1876   2.790   1.666  21.480 -0.6216 -0.3536 -0.3218
   15SAPS   O14 1877   3.037   1.708  21.440 -0.2899  1.1323 -0.4820
   15SAPS   O12 1878   2.889   1.874  21.567  0.2100  0.4495  0.3232
   15SAPS   O11 1879   2.944   1.663  21.665  0.0887  1.0630 -0.6591
   15SAPS    C1 1880   3.051   1.560  21.676  0.2017 -0.6310 -0.1156
   15SAPS    HA 1881   3.024   1.463  21.629  0.4456  0.2384 -2.1825
   15SAPS    HB 1882   3.145   1.589  21.623 -1.1335  2.0778 -1.1765
   15SAPS    C2 1883   3.088   1.534  21.825  0.8155  0.1405 -1.4162
   15SAPS    HS 1884   3.179   1.472  21.814  1.0246 -0.3251  1.9298
   15SAPS   O21 1885   2.982   1.460  21.885  0.6487 -0.6658  0.8118
   15SAPS   C21 1886   3.014   1.337  21.927  0.1500  0.6671  0.6570
   15SAPS   O22 1887   3.126   1.291  21.923 -1.0560 -0.1681 -0.4221
   15SAPS   C22 1888   2.888   1.261  21.964  0.2490 -0.0006  0.6866
   15SAPS   H2R 1889   2.822   1.289  21.878  0.5974 -0.0764  0.3896
   15SAPS   H2S 1890   2.924   1.156  21.971  1.8741  0.2880 -1.8227
   15SAPS    C3 1891   3.121   1.663  21.910 -0.5521  0.3167  0.3037
   15SAPS    HX 1892   3.026   1.716  21.929 -0.7965  0.3335 -0.9087
   15SAPS    HY 1893   3.185   1.723  21.842  0.6947 -0.2037  0.9696
   15SAPS   O31 1894   3.192   1.631  22.030 -0.6057 -0.0650  0.3045
   15SAPS   C31 1895   3.321   1.595  22.010 -0.5560 -0.3197 -0.2458
   15SAPS   O32 1896   3.383   1.617  21.908  0.0494  0.1750 -0.3742
   15SAPS   C32 1897   3.387   1.535  22.139  0.1820  0.1923 -0.0310
   15SAPS   H2X 1898   3.323   1.447  22.163  0.0846  0.3894  0.4568
   15SAPS   H2Y 1899   3.371   1.613  22.217  2.3266 -1.3293  2.0804
   15SAPS   C23 1900   2.835   1.296  22.105  0.2346  0.2490  0.0197
   15SAPS   H3R 1901   2.726   1.281  22.114  0.2698 -0.0044  0.0358
   15SAPS   H3S 1902   2.845   1.404  22.130 -0.9394 -0.1337  2.5265
   15SAPS   C24 1903   2.906   1.225  22.225 -0.3599  0.2771  0.8757
   15SAPS   H4R 1904   2.903   1.296  22.311 -1.2525  2.2928 -0.7471
   15SAPS   H4S 1905   3.016   1.225  22.206 -0.8902  0.8548 -2.8436
   15SAPS   C25 1906   2.847   1.077  22.241 -0.2715  0.4005  0.2913
   15SAPS   H5R 1907   2.856   1.008  22.156 -1.8780  2.7625 -1.9424
   15SAPS   C26 1908   2.786   1.029  22.358 -0.8319  0.4357 -0.0791
   15SAPS   H6R 1909   2.755   0.923  22.364 -0.5511  0.2789 -1.2575
   15SAPS   C27 1910   2.758   1.104  22.485 -0.6323  0.0441  0.5663
   15SAPS   H7R 1911   2.650   1.100  22.512 -0.7324  0.8688  0.3351
   15SAPS   H7S 1912   2.776   1.213  22.471 -3.0195  0.4094 -0.1775
   15SAPS   C28 1913   2.854   1.047  22.591 -0.3969 -0.1568 -0.4818
   15SAPS   H8R 1914   2.961   1.038  22.567 -0.5228 -1.4711 -0.6420
   15SAPS   C29 1915   2.812   1.008  22.722 -0.7849  0.4269  0.5522
   15SAPS   H9R 1916   2.890   0.973  22.791 -2.3823 -0.1710  2.1349
   15SAPS  C210 1917   2.675   1.024  22.776 -0.3054 -0.3222 -0.1950
   15SAPS  H10R 1918   2.616   0.941  22.734 -1.1408 -0.0360  0.3754
   15SAPS  H10S 1919   2.630   1.120  22.741  0.7289  1.2450  2.4319
   15SAPS  C211 1920   2.676   1.039  22.925  0.3938  0.0400  0.2203
   15SAPS  H11R 1921   2.671   1.141  22.965  0.2353  0.7442 -1.5131
   15SAPS  C212 1922   2.679   0.934  23.011  0.3898 -0.9700  0.0907
   15SAPS  H12R 1923   2.673   0.963  23.117  0.4008  0.5173 -0.2878
   15SAPS  C213 1924   2.699   0.790  22.979  0.4622  0.0255 -0.3585
   15SAPS  H13R 1925   2.809   0.776  22.985  0.2434 -1.2172  2.7253
   15SAPS  H13S 1926   2.672   0.767  22.874  3.1914  0.0166 -1.1297
   15SAPS  C214 1927   2.633   0.691  23.068 -0.9952 -0.0621  0.2240
   15SAPS  H14R 1928   2.585   0.735  23.157 -1.1641  1.2312 -0.4832
   15SAPS  C215 1929   2.631   0.559  23.050 -0.1634 -0.1924  0.1933
   15SAPS  H15R 1930   2.598   0.511  23.143  1.3843  1.4162  1.6521
   15SAPS  C216 1931   2.685   0.472  22.936  0.5161 -0.7905  0.7898
   15SAPS  H16R 1932   2.722   0.538  22.854  2.5118 -2.3789  0.3197
   15SAPS  H16S 1933   2.601   0.414  22.893  0.9178 -0.5775 -0.3057
   15SAPS  C217 1934   2.804   0.383  22.984  0.7457 -0.0882 -0.4014
   15SAPS  H17R 1935   2.831   0.330  22.890  1.0426 -0.1359 -0.2918
   15SAPS  H17S 1936   2.770   0.309  23.059 -0.4702 -0.3020 -1.1340
   15SAPS  C218 1937   2.917   0.460  23.043  0.3505  0.0867 -0.2228
   15SAPS  H18R 1938   2.879   0.500  23.139 -1.1480  1.7447 -1.4380
   15SAPS  H18S 1939   2.938   0.555  22.990 -1.5381 -1.0382 -3.2380
   15SAPS  C219 1940   3.042   0.377  23.080 -0.5980 -0.1567  0.6497
   15SAPS  H19R 1941   3.093   0.443  23.154  2.9621 -2.8483  0.8540
   15SAPS  H19S 1942   3.111   0.382  22.993 -1.8051 -1.4205 -0.4292
   15SAPS  C220 1943   3.040   0.230  23.134 -0.0205 -0.6884  0.4840
   15SAPS  H20R 1944   3.130   0.215  23.197  0.5735  0.0345 -0.1801
   15SAPS  H20S 1945   3.040   0.155  23.053 -1.2210 -0.7363  0.5094
   15SAPS  H20T 1946   2.945   0.215  23.190 -1.0781  1.6834 -0.5354
   15SAPS   C33 1947   3.535   1.501  22.135 -0.2870 -0.5183  0.8615
   15SAPS   H3X 1948   3.591   1.589  22.097 -1.3979 -0.5831 -1.0591
   15SAPS   H3Y 1949   3.547   1.424  22.055 -0.5593  0.1289  0.1916
   15SAPS   C34 1950   3.591   1.454  22.274 -0.6607 -0.0958 -0.0843
   15SAPS   H4X 1951   3.698   1.426  22.256  0.2342  3.8469 -2.1511
   15SAPS   H4Y 1952   3.525   1.390  22.336  1.8254  0.3756  3.3851
   15SAPS   C35 1953   3.609   1.588  22.351  0.2051  1.2202  0.3716
   15SAPS   H5X 1954   3.508   1.632  22.363  0.6482  1.7489  2.6556
   15SAPS   H5Y 1955   3.672   1.662  22.297  0.3175 -0.4260 -1.8889
   15SAPS   C36 1956   3.672   1.572  22.491  0.5118 -0.4868 -0.3540
   15SAPS   H6X 1957   3.615   1.502  22.555 -0.3181 -0.9862 -1.5937
   15SAPS   H6Y 1958   3.671   1.668  22.545 -2.2820  0.3233 -1.6590
   15SAPS   C37 1959   3.806   1.500  22.492 -0.4288  0.3741 -0.5980
   15SAPS   H7X 1960   3.802   1.400  22.443 -2.8003 -1.5222  2.9992
   15SAPS   H7Y 1961   3.830   1.495  22.600 -1.9843  2.4440 -0.0937
   15SAPS   C38 1962   3.915   1.579  22.426 -0.7033 -0.4826  1.0965
   15SAPS   H8X 1963   3.881   1.591  22.321  0.9458  0.2671  0.5990
   15SAPS   H8Y 1964   4.006   1.516  22.436 -1.3506 -1.7356 -0.5492
   15SAPS   C39 1965   3.948   1.720  22.480 -0.0485 -0.0668 -0.4559
   15SAPS   H9X 1966   3.964   1.721  22.590  0.0794  0.0983 -0.4758
   15SAPS   H9Y 1967   3.860   1.780  22.448 -2.7785 -2.3345  2.1349
   15SAPS  C310 1968   4.068   1.783  22.408 -0.4374  0.0204  0.2868
   15SAPS  H10X 1969   4.050   1.767  22.300 -1.1019  2.0524  0.0520
   15SAPS  H10Y 1970   4.154   1.724  22.448 -1.3164 -0.7428  1.0905
   15SAPS  C311 1971   4.084   1.933  22.422 -0.1203  0.4226 -0.1493
   15SAPS  H11X 1972   4.004   1.986  22.367 -0.2286  1.4237  0.9343
   15SAPS  H11Y 1973   4.180   1.957  22.371 -0.1507  0.2217 -0.3073
   15SAPS  C312 1974   4.074   1.986  22.556  0.6875 -0.3381  0.1778
   15SAPS  H12X 1975   4.110   1.909  22.629 -0.0535 -0.3489  0.5361
   15SAPS  H12Y 1976   3.966   1.996  22.580  0.7288 -0.3028  0.3556
   15SAPS  C313 1977   4.159   2.114  22.590 -0.2086  0.8311  0.4947
   15SAPS  H13X 1978   4.134   2.186  22.509 -2.1521  0.0039  0.3080
   15SAPS  H13Y 1979   4.263   2.083  22.567 -0.9018 -1.7066  0.4795
   15SAPS  C314 1980   4.136   2.163  22.728 -0.3087 -0.0136  0.1584
   15SAPS  H14X 1981   4.115   2.082  22.801 -0.6708  0.8205  1.0090
   15SAPS  H14Y 1982   4.041   2.221  22.724 -2.0586 -2.7223  0.0394
   15SAPS  C315 1983   4.262   2.238  22.785  0.7842 -0.5962  0.3873
   15SAPS  H15X 1984   4.280   2.331  22.726  2.6288 -0.1981  1.5191
   15SAPS  H15Y 1985   4.346   2.166  22.777  0.8960 -0.6351  1.6598
   15SAPS  C316 1986   4.228   2.287  22.926  0.0719  0.0219 -0.1015
   15SAPS  H16X 1987   4.227   2.198  22.994 -1.0477  0.5086  0.5416
   15SAPS  H16Y 1988   4.122   2.315  22.939 -0.4329 -0.1425 -3.0729
   15SAPS  C317 1989   4.325   2.395  22.980  0.4176  0.3245 -0.2995
   15SAPS  H17X 1990   4.418   2.340  23.005  0.3136 -1.1406 -2.8359
   15SAPS  H17Y 1991   4.280   2.440  23.072  1.6685  0.2254  0.3812
   15SAPS  C318 1992   4.339   2.514  22.886 -0.3491  0.1542  0.4923
   15SAPS  H18X 1993   4.241   2.528  22.836 -1.0533 -1.4347  1.3363
   15SAPS  H18Y 1994   4.410   2.496  22.802 -2.4316 -1.8816 -0.9588
   15SAPS  H18Z 1995   4.358   2.602  22.950  1.6797 -2.1703  3.3868
   16SAPS     N 1996   3.035   1.997  20.957  0.0178 -0.1439  0.0992
   16SAPS   HN1 1997   3.055   1.896  20.972 -0.6989 -0.1714  0.9284
   16SAPS   HN2 1998   2.939   2.011  20.918  0.4749 -0.8205 -1.3651
   16SAPS   HN3 1999   3.105   2.039  20.893  0.2005 -2.9605 -1.6946
   16SAPS   C12 2000   3.059   2.076  21.079  0.2029  0.0843 -0.4871
   16SAPS  H12A 2001   3.053   2.181  21.058  2.7832  0.5283  0.6301
   16SAPS   C13 2002   2.959   2.038  21.198 -0.3961  0.0948  0.4167
   16SAPS  O13A 2003   2.892   1.936  21.183 -0.1073  0.5728  0.8267
   16SAPS  O13B 2004   2.980   2.096  21.306 -0.1421  0.6898  0.6308
   16SAPS   C11 2005   3.202   2.059  21.127 -0.1574 -0.0577  0.6966
   16SAPS  H11A 2006   3.225   1.958  21.166  1.9445  0.0608 -0.1167
   16SAPS  H11B 2007   3.217   2.130  21.212  0.8289 -0.6216  1.0087
   16SAPS     P 2008   3.438   2.081  21.017  0.1675  0.0694 -0.4177
   16SAPS   O13 2009   3.471   1.942  21.050  0.2060 -0.6701  0.2689
   16SAPS   O14 2010   3.478   2.127  20.883  0.3061 -0.1015 -0.7689
   16SAPS   O12 2011   3.286   2.104  21.010  0.6704  0.3150  0.2427
   16SAPS   O11 2012   3.477   2.191  21.120  0.4379 -0.3433  0.4037
   16SAPS    C1 2013   3.494   2.327  21.087 -0.4242  0.3083  0.4470
   16SAPS    HA 2014   3.409   2.358  21.022  0.2483 -2.4064 -1.8571
   16SAPS    HB 2015   3.483   2.379  21.185 -0.4797  1.7593 -0.3045
   16SAPS    C2 2016   3.638   2.361  21.033  0.1362 -0.6694 -0.3294
   16SAPS    HS 2017   3.669   2.282  20.961  2.0279 -0.9657  0.7579
   16SAPS   O21 2018   3.728   2.347  21.154 -0.0627  0.0016  0.8293
   16SAPS   C21 2019   3.855   2.331  21.130  0.2606 -0.6166  0.2335
   16SAPS   O22 2020   3.905   2.313  21.023 -0.2244  0.3283  0.5344
   16SAPS   C22 2021   3.930   2.356  21.260  0.1338  0.3916 -0.5251
   16SAPS   H2R 2022   3.892   2.283  21.335 -0.7488  1.3806  0.0158
   16SAPS   H2S 2023   4.034   2.325  21.237 -0.0732 -1.4209  0.8080
   16SAPS    C3 2024   3.652   2.513  20.994 -0.4823  0.0297 -0.0684
   16SAPS    HX 2025   3.758   2.529  20.964  0.5265 -0.8417  2.6672
   16SAPS    HY 2026   3.625   2.564  21.089  0.0583  0.4859 -0.1559
   16SAPS   O31 2027   3.557   2.546  20.892  0.3689 -0.1616 -0.4982
   16SAPS   C31 2028   3.591   2.627  20.796 -0.7829 -0.2289  0.1670
   16SAPS   O32 2029   3.702   2.677  20.788 -0.1409  0.8757 -0.6590
   16SAPS   C32 2030   3.469   2.659  20.704 -0.0217 -0.3926 -0.0806
   16SAPS   H2X 2031   3.383   2.678  20.771 -0.2022 -1.3047 -0.0502
   16SAPS   H2Y 2032   3.452   2.567  20.645  2.3390 -0.4691 -0.7398
   16SAPS   C23 2033   3.936   2.496  21.320  0.1258 -1.0685  0.0760
   16SAPS   H3R 2034   3.831   2.530  21.331  0.7158  0.6654  0.6507
   16SAPS   H3S 2035   3.968   2.559  21.234  0.3144  0.4566  1.2243
   16SAPS   C24 2036   4.038   2.518  21.436 -0.3822 -0.9034 -0.1515
   16SAPS   H4R 2037   4.056   2.626  21.457 -1.8387 -0.7444  0.3949
   16SAPS   H4S 2038   4.125   2.479  21.380 -1.0396 -0.9615 -1.1686
   16SAPS   C25 2039   3.995   2.443  21.559  0.4006 -0.4173  0.1106
   16SAPS   H5R 2040   4.053   2.358  21.599  0.1301 -0.4831  0.3714
   16SAPS   C26 2041   3.899   2.489  21.644 -0.0229  0.5586 -0.3135
   16SAPS   H6R 2042   3.868   2.422  21.725 -1.5781  0.9456 -0.5426
   16SAPS   C27 2043   3.809   2.615  21.633 -0.2253  1.3907  0.1036
   16SAPS   H7R 2044   3.800   2.647  21.527 -2.5942  1.2001  0.1988
   16SAPS   H7S 2045   3.849   2.700  21.692  1.2162  2.4612 -2.2525
   16SAPS   C28 2046   3.671   2.586  21.683  0.8539  0.0208 -0.0473
   16SAPS   H8R 2047   3.623   2.495  21.645  0.1868 -0.0127  0.8356
   16SAPS   C29 2048   3.605   2.670  21.767  0.3215  0.3577  0.4347
   16SAPS   H9R 2049   3.500   2.654  21.795 -0.1884  2.2917 -0.2261
   16SAPS  C210 2050   3.654   2.795  21.846 -0.1036 -0.0290  0.1021
   16SAPS  H10R 2051   3.568   2.862  21.866  0.4694  0.2995  1.5592
   16SAPS  H10S 2052   3.715   2.863  21.783 -2.4016 -0.3776 -2.7234
   16SAPS  C211 2053   3.736   2.769  21.965  0.1675 -0.0273  0.0028
   16SAPS  H11R 2054   3.790   2.673  21.954  1.5800  0.9176 -2.2123
   16SAPS  C212 2055   3.776   2.858  22.068 -0.3401 -0.2005  0.3880
   16SAPS  H12R 2056   3.845   2.822  22.146  2.5900  1.0327 -1.4834
   16SAPS  C213 2057   3.724   3.003  22.067 -0.1352  0.6160  0.3969
   16SAPS  H13R 2058   3.699   3.047  22.166  1.2049  3.5749 -0.4433
   16SAPS  H13S 2059   3.629   3.004  22.010 -0.6431  0.3172  1.2359
   16SAPS  C214 2060   3.823   3.083  21.987  0.2879 -0.4969  0.3611
   16SAPS  H14R 2061   3.858   3.043  21.890 -0.7415  1.6923 -0.9831
   16SAPS  C215 2062   3.864   3.213  22.006  0.5380 -0.0929 -0.0191
   16SAPS  H15R 2063   3.940   3.262  21.943 -0.2797  0.2070 -0.7877
   16SAPS  C216 2064   3.819   3.311  22.115 -0.0059  0.0965 -0.3465
   16SAPS  H16R 2065   3.765   3.256  22.194  0.3516 -0.1068 -0.2410
   16SAPS  H16S 2066   3.766   3.393  22.063 -1.4424 -1.0323 -0.7267
   16SAPS  C217 2067   3.940   3.381  22.187 -0.1260  0.4922  0.4012
   16SAPS  H17R 2068   4.013   3.426  22.117 -0.0224  0.1574  0.2926
   16SAPS  H17S 2069   3.987   3.300  22.246  1.4051  0.7936 -0.3667
   16SAPS  C218 2070   3.875   3.487  22.282  0.6567 -0.1706  0.0464
   16SAPS  H18R 2071   3.796   3.442  22.347 -4.1585  2.4738 -3.2963
   16SAPS  H18S 2072   3.815   3.557  22.220  3.4342  1.3102 -1.1105
   16SAPS  C219 2073   3.976   3.567  22.367  0.2335 -0.1987  0.0508
   16SAPS  H19R 2074   3.914   3.624  22.440 -0.4059 -2.2731  1.2102
   16SAPS  H19S 2075   4.033   3.635  22.301 -0.6106  1.1470  0.6667
   16SAPS  C220 2076   4.077   3.480  22.442 -0.7131  0.0169  0.5707
   16SAPS  H20R 2077   4.122   3.400  22.379 -1.3475  0.2605 -0.2005
   16SAPS  H20S 2078   4.032   3.439  22.536 -2.0182  0.3002  0.0826
   16SAPS  H20T 2079   4.168   3.533  22.477  0.3772 -2.1671  1.2267
   16SAPS   C33 2080   3.494   2.775  20.602  0.4231 -0.0500 -0.9391
   16SAPS   H3X 2081   3.411   2.775  20.528 -0.4186  2.9903 -0.1209
   16SAPS   H3Y 2082   3.593   2.760  20.555  0.1645  1.4409 -1.9981
   16SAPS   C34 2083   3.486   2.910  20.678 -0.0928 -0.1400  0.6324
   16SAPS   H4X 2084   3.537   2.979  20.608  2.0227 -0.3102  1.9095
   16SAPS   H4Y 2085   3.559   2.918  20.761  1.6708  2.1717 -0.9907
   16SAPS   C35 2086   3.347   2.961  20.721 -0.5753  0.9528  0.3154
   16SAPS   H5X 2087   3.289   2.874  20.758 -0.4297 -0.1121 -1.8274
   16SAPS   H5Y 2088   3.281   2.987  20.636 -1.3479  1.2857  0.9959
   16SAPS   C36 2089   3.356   3.086  20.801  0.3994 -0.1848  0.3325
   16SAPS   H6X 2090   3.399   3.170  20.741 -1.5288 -0.6590 -1.8525
   16SAPS   H6Y 2091   3.415   3.061  20.892 -3.8630 -1.3847  3.0590
   16SAPS   C37 2092   3.225   3.129  20.859  0.5661 -0.3352 -0.4954
   16SAPS   H7X 2093   3.162   3.047  20.899 -2.3216  1.5111 -0.9112
   16SAPS   H7Y 2094   3.165   3.182  20.782  0.8266 -3.0051 -2.6840
   16SAPS   C38 2095   3.251   3.238  20.964  0.2194 -0.0692  0.1047
   16SAPS   H8X 2096   3.238   3.339  20.920 -0.1425  0.3050  1.0487
   16SAPS   H8Y 2097   3.352   3.218  21.007 -0.9505  0.2159  3.2655
   16SAPS   C39 2098   3.170   3.220  21.096  0.3627 -0.2162  0.0958
   16SAPS   H9X 2099   3.190   3.123  21.147 -1.4454 -0.1254  1.0452
   16SAPS   H9Y 2100   3.063   3.221  21.066  0.1783 -1.5240  0.6031
   16SAPS  C310 2101   3.186   3.337  21.195 -0.2451  0.1082 -0.5244
   16SAPS  H10X 2102   3.290   3.375  21.190  0.2067 -1.1495 -1.2930
   16SAPS  H10Y 2103   3.168   3.296  21.296 -0.2363 -0.3544 -0.7081
   16SAPS  C311 2104   3.086   3.448  21.181  0.1363 -0.4205 -0.1521
   16SAPS  H11X 2105   2.990   3.416  21.227 -0.8964  2.5964  0.0105
   16SAPS  H11Y 2106   3.074   3.472  21.073  0.1731 -1.0989 -0.3100
   16SAPS  C312 2107   3.138   3.581  21.251  0.1914  0.5735 -0.1372
   16SAPS  H12X 2108   3.065   3.664  21.243  0.8833  1.2166  0.1376
   16SAPS  H12Y 2109   3.235   3.614  21.208  2.4632 -0.9708  3.3262
   16SAPS  C313 2110   3.174   3.561  21.398  0.0468 -0.6993 -0.4296
   16SAPS  H13X 2111   3.261   3.493  21.413 -0.1333 -0.7086  0.5839
   16SAPS  H13Y 2112   3.083   3.536  21.455 -0.2969 -0.8136 -1.0164
   16SAPS  C314 2113   3.236   3.689  21.463  0.1391 -0.4172 -0.0754
   16SAPS  H14X 2114   3.168   3.774  21.443 -1.0850 -1.9377 -2.7902
   16SAPS  H14Y 2115   3.321   3.702  21.392 -2.6227  0.4219 -3.4727
   16SAPS  C315 2116   3.276   3.678  21.607  0.7093 -0.2713 -0.5636
   16SAPS  H15X 2117   3.359   3.607  21.624  0.5845 -0.6181 -1.3602
   16SAPS  H15Y 2118   3.182   3.648  21.658  1.9122 -1.8781  0.8066
   16SAPS  C316 2119   3.321   3.815  21.659  0.1683  0.0787  0.8524
   16SAPS  H16X 2120   3.281   3.829  21.762 -1.4323  0.9791  0.1456
   16SAPS  H16Y 2121   3.269   3.894  21.600  1.0278 -1.3769 -2.0253
   16SAPS  C317 2122   3.473   3.844  21.622  0.0291 -0.6749 -0.2848
   16SAPS  H17X 2123   3.486   3.849  21.512  1.1103  1.0482 -0.1129
   16SAPS  H17Y 2124   3.527   3.749  21.643 -2.3827 -2.5125 -1.8454
   16SAPS  C318 2125   3.543   3.965  21.694 -0.5654 -0.1630  0.7844
   16SAPS  H18X 2126   3.548   3.930  21.800  2.3904 -1.7239  0.2439
   16SAPS  H18Y 2127   3.489   4.061  21.682 -1.9232 -1.0642 -0.7402
   16SAPS  H18Z 2128   3.645   3.978  21.652 -1.2189  2.5489 -0.1679
   17SAPC     N 2129   2.133   3.309  27.229 -0.0938  0.1423  0.2796
   17SAPC   C12 2130   2.052   3.182  27.208 -0.4200  0.3196 -0.4726
   17SAPC  H12A 2131   2.106   3.110  27.267 -0.4873 -0.2454 -1.0930
   17SAPC  H12B 2132   2.068   3.145  27.108  1.5688  0.4664 -0.2541
   17SAPC   C13 2133   2.116   3.341  27.378 -0.0877 -0.3807 -0.3295
   17SAPC  H13A 2134   2.171   3.431  27.400 -0.5350  0.3500 -2.0508
   17SAPC  H13B 2135   2.016   3.351  27.418  0.1996 -2.5177  1.1031
   17SAPC  H13C 2136   2.159   3.264  27.441 -0.1172 -2.3433 -2.5670
   17SAPC   C14 2137   2.279   3.288  27.200  0.3944 -0.2351  0.1669
   17SAPC  H14A 2138   2.333   3.379  27.222 -0.7545 -0.0502  2.5839
   17SAPC  H14B 2139   2.316   3.210  27.265 -0.9742  0.8312  2.3558
   17SAPC  H14C 2140   2.292   3.261  27.097  0.4909 -1.6073  0.5220
   17SAPC   C15 2141   2.073   3.425  27.155  0.2783 -0.4944  0.5554
   17SAPC  H15A 2142   2.095   3.427  27.049 -2.6762  0.0504 -0.1473
   17SAPC  H15B 2143   1.966   3.407  27.156  0.4367 -2.0862 -1.7198
   17SAPC  H15C 2144   2.094   3.521  27.198 -0.3780  0.5011 -1.2501
   17SAPC   C11 2145   1.897   3.181  27.211 -0.6446  0.5823 -0.2903
   17SAPC  H11A 2146   1.871   3.231  27.307  1.3924 -1.8074  1.6346
   17SAPC  H11B 2147   1.866   3.075  27.219 -0.8220  0.7404  1.5669
   17SAPC     P 2148   1.833   3.203  26.961  0.1502 -0.4206  0.5882
   17SAPC   O13 2149   1.850   3.325  26.882  0.1302 -0.1503  0.4866
   17SAPC   O14 2150   1.928   3.089  26.955 -0.1104  0.0231 -0.3940
   17SAPC   O12 2151   1.833   3.256  27.109  0.4936  0.5380  0.5236
   17SAPC   O11 2152   1.690   3.148  26.948  0.0929  0.2611 -0.0848
   17SAPC    C1 2153   1.595   3.209  26.863 -0.1636 -0.0372  0.4462
   17SAPC    HA 2154   1.495   3.178  26.901 -0.0422 -1.1245 -0.0670
   17SAPC    HB 2155   1.596   3.320  26.863  0.2253 -0.0334 -0.4306
   17SAPC    C2 2156   1.592   3.152  26.709 -0.3652  0.0314 -0.1313
   17SAPC    HS 2157   1.491   3.175  26.670 -0.0062  2.1689  0.0228
   17SAPC   O21 2158   1.619   3.010  26.704 -0.5173  0.1359  0.1284
   17SAPC   C21 2159   1.525   2.941  26.764  0.8290 -0.1261  0.1929
   17SAPC   O22 2160   1.412   2.983  26.784 -0.5893 -0.6580  0.0188
   17SAPC   C22 2161   1.572   2.798  26.796  0.0525  1.0044  0.6167
   17SAPC   H2R 2162   1.682   2.796  26.783 -0.3461 -1.9003 -5.2037
   17SAPC   H2S 2163   1.552   2.782  26.905 -2.9222  0.5683  0.1091
   17SAPC    C3 2164   1.690   3.223  26.615 -0.4620 -0.1074 -0.9079
   17SAPC    HX 2165   1.790   3.196  26.657 -1.3405 -4.6159 -1.1529
   17SAPC    HY 2166   1.666   3.331  26.615 -1.0414 -0.2357 -0.7529
   17SAPC   O31 2167   1.671   3.175  26.481 -0.2486  0.1087 -0.3122
   17SAPC   C31 2168   1.768   3.104  26.430  0.1648 -0.8491 -0.2181
   17SAPC   O32 2169   1.880   3.092  26.473 -0.4274  0.2063  0.2264
   17SAPC   C32 2170   1.738   3.062  26.287 -0.0366 -0.0190  0.0731
   17SAPC   H2X 2171   1.777   3.147  26.228 -0.6265 -0.0810 -0.4176
   17SAPC   H2Y 2172   1.629   3.069  26.266  0.0926 -1.0083 -1.0268
   17SAPC   C23 2173   1.495   2.693  26.719  0.6618  0.6376  0.7170
   17SAPC   H3R 2174   1.486   2.716  26.611 -2.7642 -1.7589  0.3182
   17SAPC   H3S 2175   1.389   2.692  26.752  0.6855  0.0598  0.7892
   17SAPC   C24 2176   1.548   2.550  26.742 -0.5830 -0.0088  0.3935
   17SAPC   H4R 2177   1.541   2.532  26.852  0.7899 -0.9528  0.3429
   17SAPC   H4S 2178   1.653   2.538  26.711 -0.5123  1.4051  0.0301
   17SAPC   C25 2179   1.468   2.437  26.675 -0.0056 -0.5255 -0.2655
   17SAPC   H5R 2180   1.417   2.460  26.581 -0.5113 -0.0453  0.1229
   17SAPC   C26 2181   1.467   2.305  26.715 -0.5471 -0.1994  0.4450
   17SAPC   H6R 2182   1.403   2.235  26.659  0.7964  0.2712 -1.7872
   17SAPC   C27 2183   1.549   2.236  26.821  0.4951  0.1820  0.0664
   17SAPC   H7R 2184   1.477   2.171  26.876  0.3965  0.8031  0.6889
   17SAPC   H7S 2185   1.583   2.324  26.881 -0.2198  1.5677 -1.4871
   17SAPC   C28 2186   1.658   2.144  26.773  0.6205 -0.3403 -0.4701
   17SAPC   H8R 2187   1.636   2.092  26.679  1.9142 -0.7810 -0.5529
   17SAPC   C29 2188   1.758   2.093  26.846 -0.0207 -0.0536 -0.2923
   17SAPC   H9R 2189   1.835   2.028  26.803  3.2613  3.1959  0.1219
   17SAPC  C210 2190   1.796   2.147  26.985 -0.3180 -0.5873  0.7337
   17SAPC  H10R 2191   1.764   2.252  26.996  4.5093  1.2423 -0.1786
   17SAPC  H10S 2192   1.902   2.140  27.016 -0.1542 -2.7105 -0.1422
   17SAPC  C211 2193   1.707   2.082  27.086 -0.5395 -0.2697  0.4859
   17SAPC  H11R 2194   1.602   2.108  27.070 -0.3768  0.3962  0.4742
   17SAPC  C212 2195   1.739   2.008  27.186  0.0262 -0.2793 -0.6308
   17SAPC  H12R 2196   1.656   1.963  27.243 -0.2250 -1.6036 -1.9809
   17SAPC  C213 2197   1.884   1.947  27.217 -0.1545  0.0854 -0.1267
   17SAPC  H13R 2198   1.951   2.032  27.244  0.2745 -0.5441  0.8387
   17SAPC  H13S 2199   1.922   1.908  27.120 -0.8420  1.2867 -0.9038
   17SAPC  C214 2200   1.902   1.831  27.318 -0.5141 -0.3203 -0.1051
   17SAPC  H14R 2201   1.817   1.762  27.327 -0.9249 -0.1719 -2.2467
   17SAPC  C215 2202   2.000   1.812  27.410  0.2101 -0.4704 -0.7928
   17SAPC  H15R 2203   1.996   1.727  27.479  2.3554 -0.2587 -0.3537
   17SAPC  C216 2204   2.129   1.878  27.415  0.0896  0.4667 -0.6779
   17SAPC  H16R 2205   2.141   1.964  27.345 -0.7660  2.2485  1.2456
   17SAPC  H16S 2206   2.193   1.795  27.378 -1.0288  0.2521 -2.2301
   17SAPC  C217 2207   2.161   1.921  27.556 -0.0492 -0.0056 -0.1963
   17SAPC  H17R 2208   2.184   1.828  27.612 -0.1076 -0.7110 -1.3074
   17SAPC  H17S 2209   2.078   1.981  27.600  0.5069  2.2951 -2.0457
   17SAPC  C218 2210   2.291   1.997  27.571 -0.2876 -1.0849 -0.4650
   17SAPC  H18R 2211   2.277   2.099  27.528  0.8776 -1.0382 -0.7897
   17SAPC  H18S 2212   2.370   1.949  27.509 -0.3539 -0.2648 -1.2136
   17SAPC  C219 2213   2.332   2.005  27.720 -0.4476 -0.1507  0.8909
   17SAPC  H19R 2214   2.359   1.906  27.762  1.3431  0.3940  1.1119
   17SAPC  H19S 2215   2.246   2.036  27.783 -0.6599  1.7599 -0.2349
   17SAPC  C220 2216   2.446   2.099  27.746 -0.5382  0.0546 -0.1144
   17SAPC  H20R 2217   2.428   2.197  27.698  0.0187  0.4556  0.4834
   17SAPC  H20S 2218   2.544   2.062  27.709  0.3860  1.9279  0.3891
   17SAPC  H20T 2219   2.448   2.116  27.856  1.3897  1.7453 -0.3688
   17SAPC   C33 2220   1.797   2.918  26.263 -0.0483 -0.7395  0.8216
   17SAPC   H3X 2221   1.894   2.907  26.316 -0.7196 -2.3446  1.7604
   17SAPC   H3Y 2222   1.835   2.927  26.159  0.0215  1.4081  0.9719
   17SAPC   C34 2223   1.703   2.807  26.288  0.2705  0.5773 -0.1839
   17SAPC   H4X 2224   1.618   2.816  26.217 -0.5664 -1.0868  0.5522
   17SAPC   H4Y 2225   1.654   2.814  26.387  0.9488 -0.5771  0.2561
   17SAPC   C35 2226   1.767   2.669  26.283  0.3320  1.4752 -0.0411
   17SAPC   H5X 2227   1.854   2.676  26.352  0.3602 -2.2476  0.5034
   17SAPC   H5Y 2228   1.791   2.651  26.176 -2.6703  0.6325 -0.6849
   17SAPC   C36 2229   1.680   2.549  26.350  0.2018 -0.1112 -0.1620
   17SAPC   H6X 2230   1.591   2.517  26.291 -0.7310 -2.2982  2.2227
   17SAPC   H6Y 2231   1.620   2.592  26.433 -0.1722 -2.4434  0.8644
   17SAPC   C37 2232   1.764   2.427  26.388 -0.1849 -0.3329 -0.0826
   17SAPC   H7X 2233   1.700   2.390  26.472 -0.8791 -0.4823 -0.6665
   17SAPC   H7Y 2234   1.863   2.447  26.433  0.7732 -2.3404 -1.1679
   17SAPC   C38 2235   1.764   2.313  26.280 -0.0649 -0.1421  0.1797
   17SAPC   H8X 2236   1.809   2.341  26.182  0.1002  0.1305  0.3365
   17SAPC   H8Y 2237   1.659   2.278  26.268 -0.9149  1.3550  2.5940
   17SAPC   C39 2238   1.847   2.188  26.333 -0.7230 -0.1075  0.1884
   17SAPC   H9X 2239   1.817   2.180  26.440  3.0066 -0.7015  1.3584
   17SAPC   H9Y 2240   1.952   2.222  26.346 -1.4131  2.7547 -1.0521
   17SAPC  C310 2241   1.840   2.061  26.259 -0.3169 -0.0090  0.4088
   17SAPC  H10X 2242   1.891   2.064  26.160 -1.2785 -0.4915 -0.1146
   17SAPC  H10Y 2243   1.739   2.019  26.239  0.7865 -1.9791 -1.4299
   17SAPC  C311 2244   1.917   1.959  26.351  0.4835 -0.1840 -0.6627
   17SAPC  H11X 2245   1.856   1.962  26.444  1.1002 -3.8509  0.0286
   17SAPC  H11Y 2246   2.020   1.998  26.368  0.1282  0.0361  1.2630
   17SAPC  C312 2247   1.936   1.818  26.307 -0.6574  0.4333  1.1425
   17SAPC  H12X 2248   2.003   1.804  26.219 -0.2180 -1.0819  1.6863
   17SAPC  H12Y 2249   1.838   1.779  26.271 -0.4933  1.5693 -0.6544
   17SAPC  C313 2250   1.984   1.726  26.424 -0.0794 -0.3414  0.5038
   17SAPC  H13X 2251   2.091   1.744  26.449  0.3881 -0.3164 -1.3516
   17SAPC  H13Y 2252   1.973   1.622  26.386  3.8892  0.0132 -2.2818
   17SAPC  C314 2253   1.904   1.738  26.552  0.2797  0.1407 -0.0265
   17SAPC  H14X 2254   1.793   1.736  26.549  0.0817  2.8072  2.0606
   17SAPC  H14Y 2255   1.913   1.841  26.593 -1.3228  1.3600 -2.4435
   17SAPC  C315 2256   1.945   1.639  26.666  0.2691 -0.7956  0.5264
   17SAPC  H15X 2257   2.032   1.681  26.722  1.1805  0.9302 -2.0333
   17SAPC  H15Y 2258   1.970   1.540  26.624 -0.4843 -1.3000  1.2605
   17SAPC  C316 2259   1.840   1.633  26.782 -0.3383  0.1451  0.6711
   17SAPC  H16X 2260   1.746   1.608  26.729 -0.4779 -1.3306  1.5585
   17SAPC  H16Y 2261   1.827   1.736  26.822 -0.1143  0.4682 -0.0548
   17SAPC  C317 2262   1.864   1.528  26.888 -0.3085 -0.3597  0.9929
   17SAPC  H17X 2263   1.956   1.546  26.949  0.8575 -0.3311 -0.7147
   17SAPC  H17Y 2264   1.877   1.433  26.832 -4.8961 -0.8482  0.3706
   17SAPC  C318 2265   1.736   1.517  26.982 -0.0624 -0.6173  0.0346
   17SAPC  H18X 2266   1.762   1.456  27.072 -1.5703 -0.7567  0.4052
   17SAPC  H18Y 2267   1.696   1.616  27.012  0.7320  0.3471 -1.9676
   17SAPC  H18Z 2268   1.656   1.468  26.923 -1.2635  1.2925  0.0127
   18SAPC     N 2269   0.489   4.041  28.647  0.3594 -0.1159  0.3261
   18SAPC   C12 2270   0.408   3.914  28.604 -0.3484 -1.2690 -0.2610
   18SAPC  H12A 2271   0.365   3.938  28.508  2.7810  4.0296 -0.7506
   18SAPC  H12B 2272   0.335   3.896  28.681 -0.4646  0.3439  0.0288
   18SAPC   C13 2273   0.410   4.160  28.660 -0.4842  0.0277 -0.0642
   18SAPC  H13A 2274   0.321   4.150  28.721 -0.6607  0.0712 -0.3163
   18SAPC  H13B 2275   0.464   4.252  28.679 -3.0196  1.4776  0.5868
   18SAPC  H13C 2276   0.365   4.171  28.562 -4.2579  0.5933  1.5501
   18SAPC   C14 2277   0.554   4.017  28.779 -0.2882 -0.1094  0.0001
   18SAPC  H14A 2278   0.607   4.103  28.816 -2.2151  0.6928  0.9879
   18SAPC  H14B 2279   0.481   3.994  28.854  0.7827  0.2613  1.1879
   18SAPC  H14C 2280   0.621   3.932  28.784  0.9894  0.7990 -0.9519
   18SAPC   C15 2281   0.596   4.080  28.548 -0.8254 -0.4021 -0.3025
   18SAPC  H15A 2282   0.672   4.004  28.552  0.0358  0.4972  1.2475
   18SAPC  H15B 2283   0.545   4.082  28.452 -0.9138  2.8692 -0.2975
   18SAPC  H15C 2284   0.651   4.169  28.573 -1.4277 -0.3726  0.9656
   18SAPC   C11 2285   0.489   3.789  28.584  0.3902  0.0873  0.3007
   18SAPC  H11A 2286   0.566   3.784  28.504  0.3921 -0.0220  0.3080
   18SAPC  H11B 2287   0.409   3.721  28.548  1.3350 -1.9328  1.7895
   18SAPC     P 2288   0.482   3.627  28.798  0.0888  0.0215  0.4125
   18SAPC   O13 2289   0.579   3.601  28.903  0.1283 -0.2413  0.2650
   18SAPC   O14 2290   0.349   3.669  28.841 -0.2852 -0.5028 -0.2505
   18SAPC   O12 2291   0.547   3.739  28.708 -0.1729 -0.4430 -0.2026
   18SAPC   O11 2292   0.467   3.511  28.701  0.8579  0.0929  0.0317
   18SAPC    C1 2293   0.582   3.450  28.655 -0.2474  0.5255  0.6704
   18SAPC    HA 2294   0.646   3.520  28.597  1.4823 -1.7752 -0.3595
   18SAPC    HB 2295   0.647   3.409  28.735  1.0550  0.0024 -0.5902
   18SAPC    C2 2296   0.547   3.323  28.561  0.7226 -0.7752  0.2094
   18SAPC    HS 2297   0.484   3.360  28.477  0.9734 -1.6493 -0.3787
   18SAPC   O21 2298   0.480   3.237  28.649 -0.6584  0.6598  1.0201
   18SAPC   C21 2299   0.391   3.162  28.589  0.0882  0.0072  0.6446
   18SAPC   O22 2300   0.345   3.175  28.479 -0.3137 -0.2720  0.8348
   18SAPC   C22 2301   0.361   3.043  28.672 -0.2860  0.2879 -0.4849
   18SAPC   H2R 2302   0.358   3.081  28.777 -3.0226 -2.1582  0.4598
   18SAPC   H2S 2303   0.264   3.005  28.633  0.1403 -1.4584  0.0836
   18SAPC    C3 2304   0.668   3.251  28.498 -0.1593 -0.1998  0.2087
   18SAPC    HX 2305   0.732   3.221  28.584  0.3242 -0.4669 -0.2454
   18SAPC    HY 2306   0.724   3.329  28.442  1.8354 -1.2487  0.6780
   18SAPC   O31 2307   0.630   3.136  28.408  0.1627 -0.7048  0.1314
   18SAPC   C31 2308   0.591   3.176  28.293 -0.3450 -0.4900  0.6176
   18SAPC   O32 2309   0.575   3.294  28.257 -0.4049 -0.0818 -0.7303
   18SAPC   C32 2310   0.544   3.058  28.204 -0.3134  0.1492 -0.8172
   18SAPC   H2X 2311   0.508   3.082  28.101  0.7669  3.0430 -0.6302
   18SAPC   H2Y 2312   0.452   3.013  28.247  0.4369 -1.0391 -0.4091
   18SAPC   C23 2313   0.468   2.927  28.654  0.4317 -0.7539 -0.4622
   18SAPC   H3R 2314   0.467   2.855  28.739  0.7058  0.5615  0.7045
   18SAPC   H3S 2315   0.566   2.978  28.665 -1.6959  3.8179 -0.4153
   18SAPC   C24 2316   0.468   2.851  28.526 -0.3862 -0.2155 -0.2402
   18SAPC   H4R 2317   0.472   2.925  28.443 -2.4590  0.4335  0.1804
   18SAPC   H4S 2318   0.374   2.795  28.512 -0.4404 -0.3152  0.4683
   18SAPC   C25 2319   0.599   2.765  28.528  0.3911 -0.4021  0.5281
   18SAPC   H5R 2320   0.679   2.788  28.599  2.8382 -1.5254 -1.7028
   18SAPC   C26 2321   0.617   2.660  28.443 -0.9398 -0.2924  0.4858
   18SAPC   H6R 2322   0.711   2.603  28.452 -0.1645  0.5329 -1.7055
   18SAPC   C27 2323   0.531   2.615  28.330 -0.6341  0.4408 -0.1135
   18SAPC   H7R 2324   0.551   2.682  28.243 -0.1969  0.3216 -0.1063
   18SAPC   H7S 2325   0.423   2.629  28.351 -0.8212 -0.5811 -0.3208
   18SAPC   C28 2326   0.567   2.468  28.303  0.5491  0.7868 -0.1507
   18SAPC   H8R 2327   0.526   2.391  28.370  1.2978  0.5146  0.0054
   18SAPC   C29 2328   0.667   2.433  28.218  1.1831 -0.3199 -0.3827
   18SAPC   H9R 2329   0.695   2.327  28.211  3.0932  0.0046  1.3535
   18SAPC  C210 2330   0.734   2.531  28.121 -0.5864 -0.0946 -0.1111
   18SAPC  H10R 2331   0.692   2.634  28.113  0.2348  0.3295  0.7725
   18SAPC  H10S 2332   0.716   2.479  28.025 -0.6010 -2.8361  1.2848
   18SAPC  C211 2333   0.874   2.527  28.176 -1.3315  0.6161  1.2656
   18SAPC  H11R 2334   0.889   2.544  28.283  4.5122  0.0186  0.8695
   18SAPC  C212 2335   0.987   2.494  28.105  0.0495  0.3304  0.1391
   18SAPC  H12R 2336   1.088   2.500  28.150  0.6519 -0.9186 -0.9924
   18SAPC  C213 2337   0.989   2.467  27.954  0.3826  0.1014 -0.3634
   18SAPC  H13R 2338   0.918   2.383  27.938  0.7250 -0.1361 -0.6353
   18SAPC  H13S 2339   1.084   2.424  27.917 -0.9789 -2.7221 -0.8962
   18SAPC  C214 2340   0.959   2.585  27.857 -0.8149 -0.0345 -0.0075
   18SAPC  H14R 2341   0.952   2.685  27.902  0.0487 -0.1092  0.3185
   18SAPC  C215 2342   0.937   2.570  27.726  1.0549  0.1881  0.0017
   18SAPC  H15R 2343   0.914   2.660  27.667  0.1416 -0.1162 -0.1230
   18SAPC  C216 2344   0.938   2.446  27.637  0.1958  0.6073 -0.2735
   18SAPC  H16R 2345   1.021   2.380  27.670 -1.4442 -1.1487  0.6002
   18SAPC  H16S 2346   0.957   2.480  27.534 -2.4646 -0.7691 -1.3379
   18SAPC  C217 2347   0.809   2.371  27.655  0.1946 -0.1379  0.3854
   18SAPC  H17R 2348   0.796   2.345  27.762  2.1153 -2.7498  0.0736
   18SAPC  H17S 2349   0.819   2.273  27.606 -2.7445 -0.6444  0.6540
   18SAPC  C218 2350   0.682   2.452  27.616 -0.1854 -0.2069  0.4797
   18SAPC  H18R 2351   0.701   2.497  27.516 -1.4233  2.0090  1.1667
   18SAPC  H18S 2352   0.686   2.539  27.685 -0.5509  0.3339 -0.1661
   18SAPC  C219 2353   0.553   2.366  27.626  0.4903 -0.2698  0.5264
   18SAPC  H19R 2354   0.459   2.424  27.614  1.7561  2.7287  3.4910
   18SAPC  H19S 2355   0.537   2.327  27.729 -1.1033  0.0930  0.4449
   18SAPC  C220 2356   0.548   2.249  27.530 -0.1599 -0.3957 -0.0861
   18SAPC  H20R 2357   0.570   2.279  27.425 -0.5223  0.3489  0.0464
   18SAPC  H20S 2358   0.447   2.203  27.528  0.5413 -2.0523  0.5429
   18SAPC  H20T 2359   0.621   2.167  27.551 -1.9248 -1.6426  1.5124
   18SAPC   C33 2360   0.653   2.946  28.213 -0.0899 -0.2130 -0.0822
   18SAPC   H3X 2361   0.635   2.860  28.146 -0.7700  0.2463 -0.5001
   18SAPC   H3Y 2362   0.658   2.909  28.318  0.9461  1.1506  0.3695
   18SAPC   C34 2363   0.795   2.997  28.187 -0.0451  0.9131 -0.1344
   18SAPC   H4X 2364   0.828   3.058  28.274 -1.1380  0.1343  0.8472
   18SAPC   H4Y 2365   0.788   3.054  28.092  0.4899  0.2928 -0.5596
   18SAPC   C35 2366   0.897   2.883  28.174  0.8062  0.2641 -0.5553
   18SAPC   H5X 2367   0.878   2.833  28.077 -0.7699 -0.0242 -0.1256
   18SAPC   H5Y 2368   0.881   2.818  28.262  4.4138 -1.5284 -1.0479
   18SAPC   C36 2369   1.038   2.941  28.162 -0.5597 -0.4937  0.2200
   18SAPC   H6X 2370   1.050   3.025  28.234  0.0421  1.3565 -1.9423
   18SAPC   H6Y 2371   1.034   2.988  28.061 -1.8845  0.9653  0.9022
   18SAPC   C37 2372   1.138   2.831  28.169  0.2615  0.3871  0.2116
   18SAPC   H7X 2373   1.146   2.785  28.068  1.5589  2.0788 -0.5128
   18SAPC   H7Y 2374   1.105   2.749  28.235  1.2555 -0.6855 -0.5929
   18SAPC   C38 2375   1.282   2.887  28.197  0.3443 -0.1631 -0.2424
   18SAPC   H8X 2376   1.284   2.948  28.289 -3.4723  1.5228 -1.0767
   18SAPC   H8Y 2377   1.312   2.945  28.107  0.4175 -3.1535 -2.3102
   18SAPC   C39 2378   1.379   2.778  28.244 -0.0517 -0.3362 -0.3214
   18SAPC   H9X 2379   1.347   2.728  28.337  2.5437  0.8077  1.2981
   18SAPC   H9Y 2380   1.475   2.822  28.278 -0.5948 -0.6699  1.7397
   18SAPC  C310 2381   1.427   2.677  28.137 -0.2871  0.2146 -0.2862
   18SAPC  H10X 2382   1.486   2.733  28.061 -0.4790 -0.4711 -0.9605
   18SAPC  H10Y 2383   1.336   2.646  28.081  0.0797 -1.3299 -0.0736
   18SAPC  C311 2384   1.492   2.545  28.194 -0.5711  0.5663 -0.5373
   18SAPC  H11X 2385   1.410   2.489  28.244  1.2399 -1.3690  0.4496
   18SAPC  H11Y 2386   1.570   2.567  28.270  0.7993 -1.0591 -1.3930
   18SAPC  C312 2387   1.546   2.448  28.082  0.2919  0.1689  0.3940
   18SAPC  H12X 2388   1.476   2.453  27.996  0.6776 -1.2318 -0.0321
   18SAPC  H12Y 2389   1.547   2.342  28.116 -1.7551  0.0912  0.2920
   18SAPC  C313 2390   1.681   2.488  28.025  0.0343  0.0443 -0.4174
   18SAPC  H13X 2391   1.753   2.477  28.108 -0.7215 -3.6812 -0.0846
   18SAPC  H13Y 2392   1.687   2.597  28.008  0.4668  0.6161  2.7712
   18SAPC  C314 2393   1.738   2.412  27.906  0.0101 -0.0189 -0.4127
   18SAPC  H14X 2394   1.658   2.411  27.829  0.6322  1.6220 -1.1361
   18SAPC  H14Y 2395   1.762   2.309  27.940 -2.0819 -0.1407  0.8612
   18SAPC  C315 2396   1.863   2.488  27.861 -0.4620 -0.5734 -0.0758
   18SAPC  H15X 2397   1.924   2.524  27.948 -0.5806  0.2454 -0.3278
   18SAPC  H15Y 2398   1.834   2.585  27.817  0.4072 -0.6319 -0.8232
   18SAPC  C316 2399   1.946   2.419  27.756  0.6712 -0.0210  0.3342
   18SAPC  H16X 2400   1.897   2.424  27.656 -1.9175  0.5357  1.5517
   18SAPC  H16Y 2401   1.957   2.311  27.777  1.3144 -0.2025 -0.7957
   18SAPC  C317 2402   2.083   2.481  27.724 -0.0312  0.9866 -0.2881
   18SAPC  H17X 2403   2.140   2.411  27.659 -1.5395 -0.9431  0.3747
   18SAPC  H17Y 2404   2.128   2.465  27.825  0.8403  0.4028 -0.7528
   18SAPC  C318 2405   2.094   2.633  27.700  0.3335 -0.0864  0.9460
   18SAPC  H18X 2406   2.053   2.655  27.599  2.1055 -0.3815  0.1223
   18SAPC  H18Y 2407   2.199   2.669  27.706 -0.3082  1.8852  1.2040
   18SAPC  H18Z 2408   2.039   2.693  27.776  1.0609 -0.6051  1.9071
   19SAPC     N 2409   0.066   0.472  25.513 -1.0594  0.1526 -0.1990
   19SAPC   C12 2410   0.178   0.440  25.412 -0.5510  0.0095 -0.8818
   19SAPC  H12A 2411   0.266   0.494  25.444 -0.6531 -0.8510  0.9486
   19SAPC  H12B 2412   0.159   0.490  25.318 -2.9508  0.2057 -0.3652
   19SAPC   C13 2413  -0.064   0.416  25.457 -0.0358 -0.4597  0.1934
   19SAPC  H13A 2414  -0.152   0.440  25.514 -0.0758  0.6037 -0.2844
   19SAPC  H13B 2415  -0.084   0.449  25.356  0.0500 -0.7692  0.0753
   19SAPC  H13C 2416  -0.052   0.310  25.441 -2.6673 -0.6058 -1.3934
   19SAPC   C14 2417   0.105   0.413  25.645  0.4498  0.1205 -0.1636
   19SAPC  H14A 2418   0.148   0.314  25.639  0.9799  0.2359  1.2806
   19SAPC  H14B 2419   0.174   0.472  25.704 -0.9576  0.2090  1.4398
   19SAPC  H14C 2420   0.018   0.406  25.708 -1.1054 -1.0354 -2.3090
   19SAPC   C15 2421   0.050   0.616  25.527  0.2329  0.1348 -0.5196
   19SAPC  H15A 2422  -0.039   0.635  25.585 -0.1473 -1.8613 -0.3592
   19SAPC  H15B 2423   0.143   0.652  25.568  1.1200 -0.6419 -1.7544
   19SAPC  H15C 2424   0.026   0.659  25.431 -3.2558 -1.5852 -0.5898
   19SAPC   C11 2425   0.219   0.295  25.381 -0.0501  1.0367 -0.2728
   19SAPC  H11A 2426   0.253   0.243  25.473  2.3893  0.1270 -1.5972
   19SAPC  H11B 2427   0.305   0.288  25.310 -0.9950 -0.2693 -1.3338
   19SAPC     P 2428   0.080   0.229  25.174  0.0378  0.5776 -0.5770
   19SAPC   O13 2429   0.191   0.169  25.102 -0.0750 -0.1196  0.3562
   19SAPC   O14 2430  -0.046   0.157  25.153  0.4608  0.2442 -0.2428
   19SAPC   O12 2431   0.110   0.227  25.329  0.6204  0.1181 -0.4101
   19SAPC   O11 2432   0.062   0.383  25.152 -0.4266 -0.2900  0.6435
   19SAPC    C1 2433   0.085   0.447  25.027 -0.0770  0.1459 -0.0531
   19SAPC    HA 2434   0.194   0.450  25.006  0.0540  2.9356  0.5911
   19SAPC    HB 2435   0.026   0.400  24.946 -1.0114 -0.1520  0.7916
   19SAPC    C2 2436   0.039   0.596  25.027 -0.3439 -0.1958  0.1805
   19SAPC    HS 2437   0.049   0.631  24.922  2.8890 -2.0906 -0.2776
   19SAPC   O21 2438   0.120   0.662  25.122 -0.7205 -0.4856 -0.3841
   19SAPC   C21 2439   0.245   0.698  25.083 -0.4362 -0.6387  0.0213
   19SAPC   O22 2440   0.299   0.671  24.977  0.5751 -0.0365 -0.4757
   19SAPC   C22 2441   0.312   0.779  25.192  0.4560  0.1724 -0.7903
   19SAPC   H2R 2442   0.322   0.722  25.287 -1.2996  2.7650  1.1007
   19SAPC   H2S 2443   0.417   0.808  25.171  0.4205  1.1819  0.3353
   19SAPC    C3 2444  -0.112   0.592  25.067  0.2346  0.1685 -0.7024
   19SAPC    HX 2445  -0.113   0.533  25.161  2.3907 -1.4432 -1.6046
   19SAPC    HY 2446  -0.167   0.521  25.002 -3.1303  1.5833  0.3870
   19SAPC   O31 2447  -0.178   0.721  25.079  0.5707  0.3847  0.0786
   19SAPC   C31 2448  -0.151   0.796  25.192  0.2600  0.2526 -0.6226
   19SAPC   O32 2449  -0.076   0.757  25.280  0.3757  0.0512 -0.0622
   19SAPC   C32 2450  -0.233   0.923  25.202  0.3205 -0.1782  0.2185
   19SAPC   H2X 2451  -0.339   0.894  25.183 -0.2277  2.1182 -0.6068
   19SAPC   H2Y 2452  -0.217   0.991  25.116 -1.8209  0.7105  0.4502
   19SAPC   C23 2453   0.233   0.914  25.219 -0.8444 -0.4993  0.3743
   19SAPC   H3R 2454   0.270   0.951  25.317  2.1289 -0.7700 -0.5422
   19SAPC   H3S 2455   0.123   0.896  25.220 -0.5705 -2.4675  1.4135
   19SAPC   C24 2456   0.269   1.021  25.111 -0.7521  0.2194 -0.2591
   19SAPC   H4R 2457   0.379   1.012  25.093 -0.7785 -4.4556  0.6742
   19SAPC   H4S 2458   0.256   1.123  25.155 -3.9049  0.1972 -0.9145
   19SAPC   C25 2459   0.199   1.023  24.984  0.5187  0.1832  0.1677
   19SAPC   H5R 2460   0.239   0.950  24.911  2.3914  1.9767 -0.7225
   19SAPC   C26 2461   0.102   1.105  24.937  0.2401  0.5302 -0.2420
   19SAPC   H6R 2462   0.074   1.094  24.832 -0.1678  1.4362 -0.2339
   19SAPC   C27 2463   0.056   1.224  25.018 -0.4069  0.0177 -1.0407
   19SAPC   H7R 2464   0.130   1.279  25.079  1.4558 -0.8970 -2.3657
   19SAPC   H7S 2465  -0.034   1.193  25.075  1.4232 -3.2791  0.3652
   19SAPC   C28 2466   0.009   1.325  24.912 -0.3281 -0.4382 -0.3801
   19SAPC   H8R 2467   0.089   1.367  24.849  0.1363  1.2429  1.2551
   19SAPC   C29 2468  -0.116   1.375  24.888 -0.9010  0.5469  0.7903
   19SAPC   H9R 2469  -0.140   1.446  24.808 -0.1991  1.7751  1.6305
   19SAPC  C210 2470  -0.233   1.305  24.947  0.4516  0.2977 -0.7538
   19SAPC  H10R 2471  -0.231   1.195  24.959 -0.7439  0.4034  0.6252
   19SAPC  H10S 2472  -0.315   1.307  24.872 -0.8541 -0.0488  0.6298
   19SAPC  C211 2473  -0.277   1.353  25.081  0.0048 -0.1333  0.4514
   19SAPC  H11R 2474  -0.203   1.381  25.158  0.4604  0.2614 -0.1206
   19SAPC  C212 2475  -0.399   1.374  25.125  0.0423 -0.5397  0.4066
   19SAPC  H12R 2476  -0.422   1.410  25.226 -2.7423  1.1131 -0.6931
   19SAPC  C213 2477  -0.520   1.335  25.048 -0.1486 -0.2758 -0.0054
   19SAPC  H13R 2478  -0.514   1.231  25.009  0.7381 -1.1458  2.2556
   19SAPC  H13S 2479  -0.540   1.394  24.956 -0.2565 -2.5163 -1.5033
   19SAPC  C214 2480  -0.641   1.352  25.145  0.8677  0.0689  0.2559
   19SAPC  H14R 2481  -0.649   1.281  25.228 -0.5874 -0.8760 -0.6416
   19SAPC  C215 2482  -0.731   1.453  25.147  0.4643 -0.2067 -0.1249
   19SAPC  H15R 2483  -0.817   1.434  25.213  2.3304 -0.4128  2.4014
   19SAPC  C216 2484  -0.736   1.569  25.053 -1.1598  0.4310  0.5025
   19SAPC  H16R 2485  -0.645   1.579  24.991 -1.1675 -0.9304  0.2389
   19SAPC  H16S 2486  -0.732   1.665  25.109 -1.6903 -0.2152  1.6928
   19SAPC  C217 2487  -0.857   1.563  24.959 -0.0519  0.1741 -0.0137
   19SAPC  H17R 2488  -0.949   1.577  25.019  0.8163 -1.0150  1.6611
   19SAPC  H17S 2489  -0.874   1.465  24.910  0.8002  0.9711 -1.9995
   19SAPC  C218 2490  -0.838   1.674  24.858  0.5538  0.3822  0.7024
   19SAPC  H18R 2491  -0.929   1.675  24.794  0.9168 -3.2267 -0.1373
   19SAPC  H18S 2492  -0.754   1.655  24.787 -0.0310 -1.3806  0.4113
   19SAPC  C219 2493  -0.832   1.816  24.918 -0.1181  0.3476 -0.3902
   19SAPC  H19R 2494  -0.830   1.881  24.827  0.8092 -0.1547 -0.7316
   19SAPC  H19S 2495  -0.737   1.839  24.969  0.3695  0.5546 -1.3633
   19SAPC  C220 2496  -0.953   1.855  25.006  0.4704  0.7214 -1.1251
   19SAPC  H20R 2497  -1.050   1.852  24.952 -0.4045 -0.6214  0.4259
   19SAPC  H20S 2498  -0.948   1.956  25.052 -3.1067  0.7191 -0.4271
   19SAPC  H20T 2499  -0.969   1.782  25.088  0.9481  0.2606 -1.4408
   19SAPC   C33 2500  -0.207   0.998  25.339 -0.5351 -0.5201  0.0662
   19SAPC   H3X 2501  -0.176   0.932  25.423 -0.2281 -0.2523  0.1621
   19SAPC   H3Y 2502  -0.303   1.049  25.364  0.2626  1.7381 -1.1863
   19SAPC   C34 2503  -0.108   1.109  25.318 -0.0467  0.0480 -0.1637
   19SAPC   H4X 2504  -0.137   1.177  25.236 -0.4765  0.0703  0.0037
   19SAPC   H4Y 2505  -0.006   1.076  25.290 -0.7026 -1.0218 -1.4025
   19SAPC   C35 2506  -0.103   1.200  25.444  0.0601 -0.3408  0.6717
   19SAPC   H5X 2507  -0.095   1.142  25.539 -0.0643  2.9338  2.8439
   19SAPC   H5Y 2508  -0.204   1.241  25.463  1.7291  4.3944  0.8217
   19SAPC   C36 2509  -0.009   1.319  25.429  0.5226  0.1691 -0.0608
   19SAPC   H6X 2510  -0.003   1.342  25.321  0.9358 -0.3215 -0.1463
   19SAPC   H6Y 2511   0.088   1.285  25.473 -0.8133 -2.9602  0.7724
   19SAPC   C37 2512  -0.059   1.452  25.499  0.0070  0.7096  0.2533
   19SAPC   H7X 2513   0.029   1.493  25.554  1.2228 -2.9519  1.3158
   19SAPC   H7Y 2514  -0.137   1.417  25.570  1.9878 -1.8654  1.3232
   19SAPC   C38 2515  -0.098   1.563  25.403 -0.3571 -0.1706 -0.0856
   19SAPC   H8X 2516  -0.181   1.523  25.341 -0.3494 -0.4753  0.0979
   19SAPC   H8Y 2517  -0.009   1.564  25.337 -0.5562 -1.0831 -0.3818
   19SAPC   C39 2518  -0.122   1.692  25.483  0.2636  0.4420 -0.2690
   19SAPC   H9X 2519  -0.144   1.666  25.589 -2.4120  0.3756 -0.7788
   19SAPC   H9Y 2520  -0.222   1.729  25.453 -1.3110 -1.3070  2.4299
   19SAPC  C310 2521  -0.012   1.796  25.468  0.5533  0.6339  0.4930
   19SAPC  H10X 2522   0.027   1.792  25.364  0.1952  0.2367  0.3682
   19SAPC  H10Y 2523   0.079   1.759  25.520  0.3376  0.3903  0.7038
   19SAPC  C311 2524  -0.047   1.941  25.508 -0.1450 -0.3960  0.6909
   19SAPC  H11X 2525  -0.103   1.942  25.604 -1.3883 -0.0036 -0.0271
   19SAPC  H11Y 2526  -0.125   1.967  25.434 -0.8680 -1.6967  0.9582
   19SAPC  C312 2527   0.072   2.043  25.511 -0.3538  0.4405  0.3041
   19SAPC  H12X 2528   0.124   2.023  25.415  1.3452  1.1914  1.0189
   19SAPC  H12Y 2529   0.151   2.038  25.588  0.3932  2.3208 -0.2654
   19SAPC  C313 2530   0.016   2.185  25.495 -0.1524 -0.1648 -0.4443
   19SAPC  H13X 2531   0.096   2.259  25.519  0.0771 -0.6470  0.3133
   19SAPC  H13Y 2532  -0.065   2.193  25.570 -0.7338 -1.8743 -0.8264
   19SAPC  C314 2533  -0.036   2.222  25.353 -0.3320  0.0646 -0.1413
   19SAPC  H14X 2534  -0.118   2.149  25.337  0.1563 -0.2901 -1.1136
   19SAPC  H14Y 2535   0.054   2.203  25.289 -1.4508  1.0021 -2.0812
   19SAPC  C315 2536  -0.085   2.371  25.345 -0.5343  0.2160 -0.2365
   19SAPC  H15X 2537  -0.091   2.407  25.240  0.0987  0.8422 -0.0662
   19SAPC  H15Y 2538  -0.004   2.436  25.383 -1.9835  2.4099 -0.7176
   19SAPC  C316 2539  -0.221   2.402  25.418  0.2015  0.0054  0.6294
   19SAPC  H16X 2540  -0.211   2.387  25.527  1.0741  2.7080  0.9846
   19SAPC  H16Y 2541  -0.304   2.340  25.376 -2.1117  1.4605  2.7995
   19SAPC  C317 2542  -0.266   2.545  25.403 -0.2265 -0.0491  0.7665
   19SAPC  H17X 2543  -0.377   2.542  25.403 -0.3088  0.8128 -2.0797
   19SAPC  H17Y 2544  -0.238   2.591  25.306 -0.7967  0.3622  0.7896
   19SAPC  C318 2545  -0.218   2.637  25.513  0.3583 -0.1769  0.0403
   19SAPC  H18X 2546  -0.282   2.728  25.515  0.5742 -0.0135  2.0064
   19SAPC  H18Y 2547  -0.114   2.675  25.513  0.2114  0.3123  1.5950
   19SAPC  H18Z 2548  -0.236   2.602  25.617  1.4952  0.6794  0.5524
   20SAPC     N 2549   1.657   3.910  28.615  0.2240  1.1081  0.5256
   20SAPC   C12 2550   1.768   3.989  28.545  0.1368 -0.4712 -0.0377
   20SAPC  H12A 2551   1.793   3.933  28.456  0.3957  0.0166 -0.2725
   20SAPC  H12B 2552   1.844   3.987  28.621  0.0229 -2.2508  0.0720
   20SAPC   C13 2553   1.727   3.781  28.658  0.4104 -0.0943  0.2025
   20SAPC  H13A 2554   1.814   3.810  28.715 -0.4948  1.1388  1.0109
   20SAPC  H13B 2555   1.658   3.721  28.716 -2.4818  1.9728 -0.8280
   20SAPC  H13C 2556   1.772   3.718  28.582 -0.8199 -0.7156 -0.0436
   20SAPC   C14 2557   1.615   3.974  28.731 -0.2629 -0.0261 -1.0288
   20SAPC  H14A 2558   1.698   3.992  28.798 -1.6960  0.2720  0.7478
   20SAPC  H14B 2559   1.588   4.077  28.711  0.9031  0.8028  1.2921
   20SAPC  H14C 2560   1.532   3.925  28.780  0.8132 -1.4195 -0.5325
   20SAPC   C15 2561   1.547   3.884  28.519  0.3014 -0.1057  0.2660
   20SAPC  H15A 2562   1.523   3.969  28.458  1.7543 -0.1778 -0.4380
   20SAPC  H15B 2563   1.572   3.798  28.458 -1.0355  0.0972 -0.6095
   20SAPC  H15C 2564   1.459   3.856  28.577 -0.4247  0.9702 -0.2814
   20SAPC   C11 2565   1.741   4.135  28.498 -0.5426 -0.3177 -0.2383
   20SAPC  H11A 2566   1.836   4.166  28.449 -1.4348  0.8090 -1.3048
   20SAPC  H11B 2567   1.722   4.198  28.588 -0.4292 -2.4175  1.3313
   20SAPC     P 2568   1.637   4.142  28.254  0.0323  0.3558 -0.2027
   20SAPC   O13 2569   1.708   4.019  28.213 -0.2233 -0.3515 -0.2690
   20SAPC   O14 2570   1.501   4.161  28.203 -0.3264 -0.0133  0.4245
   20SAPC   O12 2571   1.635   4.160  28.408  0.0837  0.2642  0.2473
   20SAPC   O11 2572   1.722   4.263  28.207  0.1012 -0.5233  0.3483
   20SAPC    C1 2573   1.705   4.397  28.269 -0.0205 -0.7566 -0.5142
   20SAPC    HA 2574   1.654   4.404  28.367 -1.2389 -1.7208 -1.0564
   20SAPC    HB 2575   1.806   4.442  28.258 -0.5023  0.0279 -2.1151
   20SAPC    C2 2576   1.626   4.492  28.173 -0.4767 -1.0202 -0.9070
   20SAPC    HS 2577   1.527   4.447  28.152 -1.1606 -0.6707  1.3192
   20SAPC   O21 2578   1.702   4.503  28.043  0.1445 -0.5179 -0.2111
   20SAPC   C21 2579   1.625   4.505  27.935 -0.8404 -0.0648  0.2445
   20SAPC   O22 2580   1.502   4.477  27.936 -0.5565  0.4076 -0.5796
   20SAPC   C22 2581   1.720   4.530  27.808 -0.8157 -0.4318 -0.0163
   20SAPC   H2R 2582   1.758   4.633  27.820 -2.1268 -0.0282  0.8452
   20SAPC   H2S 2583   1.801   4.455  27.821  0.1582  0.5802 -0.1658
   20SAPC    C3 2584   1.617   4.630  28.237 -0.0150 -0.7565  0.2195
   20SAPC    HX 2585   1.723   4.656  28.257  0.6350 -3.6278  0.8602
   20SAPC    HY 2586   1.564   4.649  28.333 -0.0925 -0.3336  0.0974
   20SAPC   O31 2587   1.572   4.726  28.142  0.5846 -0.4855  0.4194
   20SAPC   C31 2588   1.436   4.740  28.135 -0.0972 -1.2177 -0.6793
   20SAPC   O32 2589   1.360   4.681  28.203  0.1378  0.1132  0.3557
   20SAPC   C32 2590   1.384   4.846  28.041 -0.2526 -0.0284 -0.1053
   20SAPC   H2X 2591   1.355   4.933  28.104  0.9798 -0.6985  1.4799
   20SAPC   H2Y 2592   1.296   4.798  27.994 -0.4542 -0.2008  0.4316
   20SAPC   C23 2593   1.655   4.502  27.666  0.3423  0.0709  0.4122
   20SAPC   H3R 2594   1.603   4.404  27.670 -2.6910  1.5482 -0.2984
   20SAPC   H3S 2595   1.734   4.504  27.588  0.7633 -0.9546  0.7856
   20SAPC   C24 2596   1.556   4.612  27.615  0.3530 -0.0318 -0.6000
   20SAPC   H4R 2597   1.627   4.697  27.610  0.1635  0.4960  2.9441
   20SAPC   H4S 2598   1.478   4.624  27.694 -1.9035 -4.1620 -1.9089
   20SAPC   C25 2599   1.474   4.576  27.491  0.3811  0.2534  0.0055
   20SAPC   H5R 2600   1.498   4.479  27.443 -0.4142  1.1142 -2.2710
   20SAPC   C26 2601   1.386   4.659  27.427  0.1574 -0.6072 -0.3950
   20SAPC   H6R 2602   1.337   4.640  27.331 -0.8300  0.1707 -0.0577
   20SAPC   C27 2603   1.361   4.807  27.465 -0.1929  0.2554  0.1444
   20SAPC   H7R 2604   1.434   4.829  27.545  2.3575 -3.6848 -0.7839
   20SAPC   H7S 2605   1.261   4.818  27.510  0.6993 -1.2127  2.6728
   20SAPC   C28 2606   1.391   4.905  27.347  0.8431  1.2913 -0.7767
   20SAPC   H8R 2607   1.401   4.867  27.245 -3.8660  0.2314 -1.0851
   20SAPC   C29 2608   1.397   5.038  27.356  0.7002 -0.5747 -0.5612
   20SAPC   H9R 2609   1.418   5.097  27.265 -1.2261  0.2247 -0.5348
   20SAPC  C210 2610   1.374   5.127  27.479  0.0037 -0.0996  0.1412
   20SAPC  H10R 2611   1.471   5.172  27.509 -0.6382  0.9360  0.7601
   20SAPC  H10S 2612   1.332   5.069  27.564 -1.2296  1.8309  0.9188
   20SAPC  C211 2613   1.288   5.250  27.447  0.0103  0.3896  0.0784
   20SAPC  H11R 2614   1.225   5.253  27.356  0.7467 -0.4860 -0.4704
   20SAPC  C212 2615   1.277   5.353  27.530 -0.7746  0.4766 -0.1506
   20SAPC  H12R 2616   1.201   5.428  27.502 -1.5118  0.2502  1.1217
   20SAPC  C213 2617   1.346   5.361  27.665  0.2026 -0.5631 -0.7430
   20SAPC  H13R 2618   1.352   5.467  27.696 -3.1306 -0.5699  0.3648
   20SAPC  H13S 2619   1.443   5.307  27.667 -0.7199 -2.2917  0.5675
   20SAPC  C214 2620   1.256   5.303  27.773  0.3131  0.5431 -0.1550
   20SAPC  H14R 2621   1.285   5.197  27.774  1.4226  0.7730 -2.0227
   20SAPC  C215 2622   1.160   5.349  27.850 -0.1910 -0.5330  0.0753
   20SAPC  H15R 2623   1.103   5.284  27.918 -0.6964  1.6196  1.7962
   20SAPC  C216 2624   1.113   5.493  27.853 -0.1041  0.5348 -0.2367
   20SAPC  H16R 2625   1.012   5.495  27.807  0.0906 -1.5047 -0.8185
   20SAPC  H16S 2626   1.182   5.557  27.793  0.7758 -0.2912 -0.1366
   20SAPC  C217 2627   1.096   5.556  27.995 -0.0103 -0.0563 -0.1232
   20SAPC  H17R 2628   1.188   5.543  28.055 -0.7283 -0.3697  0.9408
   20SAPC  H17S 2629   1.015   5.501  28.048 -1.4043  0.3330 -1.7637
   20SAPC  C218 2630   1.048   5.701  27.972  0.0758 -0.6601 -0.0478
   20SAPC  H18R 2631   0.959   5.686  27.908  0.5581  1.1096 -1.2133
   20SAPC  H18S 2632   1.125   5.766  27.925  1.2203 -0.9995  1.2818
   20SAPC  C219 2633   1.009   5.777  28.106 -0.0827 -0.6579 -0.3200
   20SAPC  H19R 2634   0.938   5.714  28.164  1.8323 -0.3889  2.5556
   20SAPC  H19S 2635   0.959   5.871  28.074 -0.0683 -0.6141 -0.2152
   20SAPC  C220 2636   1.135   5.831  28.173 -0.7048  0.4214 -0.7031
   20SAPC  H20R 2637   1.204   5.746  28.192 -0.7867  0.1938 -1.3960
   20SAPC  H20S 2638   1.118   5.898  28.260  2.6066  2.1165 -1.1913
   20SAPC  H20T 2639   1.186   5.896  28.098  1.8515 -0.3546  0.2692
   20SAPC   C33 2640   1.470   4.892  27.925 -0.1715  0.2984 -0.5060
   20SAPC   H3X 2641   1.412   4.952  27.851  0.9444  0.3340 -1.3818
   20SAPC   H3Y 2642   1.503   4.801  27.871  1.4004 -0.1337  1.1323
   20SAPC   C34 2643   1.597   4.981  27.964  1.0861  1.1809 -0.0660
   20SAPC   H4X 2644   1.662   4.931  28.039 -2.0601  1.8511  3.3799
   20SAPC   H4Y 2645   1.546   5.068  28.011  1.7151  1.7398 -0.3996
   20SAPC   C35 2646   1.673   5.027  27.840 -0.0848 -0.0613 -0.5061
   20SAPC   H5X 2647   1.605   5.039  27.752  0.7987  0.7013 -1.1043
   20SAPC   H5Y 2648   1.747   4.953  27.805 -1.0740 -0.8667 -0.9577
   20SAPC   C36 2649   1.750   5.163  27.870 -0.0455 -0.2924  0.5300
   20SAPC   H6X 2650   1.673   5.239  27.892 -0.6737  0.0674 -2.5226
   20SAPC   H6Y 2651   1.792   5.198  27.773  2.6217 -1.6794  1.0877
   20SAPC   C37 2652   1.856   5.150  27.975  0.0920  0.3710 -0.2374
   20SAPC   H7X 2653   1.818   5.094  28.063  2.2467 -2.1659 -0.8010
   20SAPC   H7Y 2654   1.882   5.255  28.004 -1.6940  1.7320 -3.1222
   20SAPC   C38 2655   1.987   5.086  27.923 -0.4788  1.2188  0.8532
   20SAPC   H8X 2656   2.051   5.159  27.870 -2.7217  1.9018 -1.0685
   20SAPC   H8Y 2657   1.960   5.010  27.847  0.2395  0.5174  1.2834
   20SAPC   C39 2658   2.078   5.023  28.039  0.1361 -0.2773 -0.0717
   20SAPC   H9X 2659   2.113   5.102  28.109 -1.7475 -0.3941  1.0693
   20SAPC   H9Y 2660   2.164   4.992  27.976 -1.2245 -0.9838 -1.6659
   20SAPC  C310 2661   2.022   4.901  28.113  0.0381  0.5282 -0.0809
   20SAPC  H10X 2662   2.015   4.819  28.038  3.1066  1.2198 -1.2431
   20SAPC  H10Y 2663   1.921   4.918  28.157  1.0053  1.7956  1.7413
   20SAPC  C311 2664   2.100   4.834  28.234 -0.8935 -0.6731 -0.2050
   20SAPC  H11X 2665   2.112   4.912  28.312 -1.1938  0.6420 -1.4353
   20SAPC  H11Y 2666   2.198   4.801  28.193 -0.4640  2.0619 -1.6578
   20SAPC  C312 2667   2.031   4.713  28.290  0.5964 -0.6837 -0.2103
   20SAPC  H12X 2668   2.029   4.622  28.227 -0.5785 -1.6422  1.1492
   20SAPC  H12Y 2669   1.929   4.743  28.325  1.4256  0.5601  1.2897
   20SAPC  C313 2670   2.091   4.669  28.422  0.8994  0.1931 -0.0677
   20SAPC  H13X 2671   2.116   4.757  28.485  1.4120  0.7040 -0.9749
   20SAPC  H13Y 2672   2.185   4.616  28.392 -0.9397 -2.0936 -2.1930
   20SAPC  C314 2673   1.989   4.562  28.492 -0.8361 -0.1502  0.6025
   20SAPC  H14X 2674   1.965   4.489  28.411  0.9578  0.5806 -0.6425
   20SAPC  H14Y 2675   1.894   4.616  28.514 -1.4826 -1.0503  0.1184
   20SAPC  C315 2676   2.038   4.503  28.624 -0.0570 -0.7075  0.3545
   20SAPC  H15X 2677   2.123   4.441  28.591  0.5885  0.5073 -0.3159
   20SAPC  H15Y 2678   1.963   4.425  28.651  0.2868 -1.3800 -0.5626
   20SAPC  C316 2679   2.068   4.607  28.729 -0.2313  0.2165 -0.1903
   20SAPC  H16X 2680   1.976   4.661  28.761  0.9409  1.8153  0.6265
   20SAPC  H16Y 2681   2.147   4.676  28.696 -0.0382 -1.7340 -4.4484
   20SAPC  C317 2682   2.121   4.541  28.861  0.8060  0.7414 -0.3188
   20SAPC  H17X 2683   2.044   4.469  28.895 -0.1115  1.5148 -0.7050
   20SAPC  H17Y 2684   2.118   4.620  28.939  1.3951  0.6966 -0.2526
   20SAPC  C318 2685   2.264   4.480  28.843 -0.3260 -0.3067 -0.3835
   20SAPC  H18X 2686   2.257   4.400  28.766 -0.7181  0.4232 -1.1200
   20SAPC  H18Y 2687   2.306   4.438  28.937  0.7718  2.4787  0.4656
   20SAPC  H18Z 2688   2.345   4.545  28.804  2.7948 -3.6827 -0.1935
   21SAPC     N 2689   0.401   3.925  27.213  0.5560 -0.4400  0.4373
   21SAPC   C12 2690   0.383   4.047  27.299  0.7366 -0.4681  0.4712
   21SAPC  H12A 2691   0.451   4.119  27.256 -1.7960  2.0350  0.3943
   21SAPC  H12B 2692   0.418   4.024  27.399  0.0282 -0.3766  0.7461
   21SAPC   C13 2693   0.349   3.949  27.071 -0.2442  0.2156 -0.0379
   21SAPC  H13A 2694   0.242   3.937  27.078  0.0548 -2.2661  1.3492
   21SAPC  H13B 2695   0.374   4.046  27.029  0.8151 -0.4017 -0.8718
   21SAPC  H13C 2696   0.383   3.868  27.009 -2.4217 -0.3969 -0.5169
   21SAPC   C14 2697   0.552   3.899  27.202  0.2728  0.4653  0.2936
   21SAPC  H14A 2698   0.579   3.833  27.121  2.3143  1.9353 -0.3080
   21SAPC  H14B 2699   0.595   3.996  27.180 -1.4858  1.0085 -1.0202
   21SAPC  H14C 2700   0.593   3.856  27.292  1.0166 -0.2216 -0.3549
   21SAPC   C15 2701   0.326   3.805  27.267  0.0826 -0.3213 -0.2321
   21SAPC  H15A 2702   0.233   3.851  27.295 -0.6093 -1.5327 -0.4629
   21SAPC  H15B 2703   0.323   3.724  27.195  0.7487 -0.5119 -0.0535
   21SAPC  H15C 2704   0.365   3.770  27.361  1.0487  0.6306 -0.2520
   21SAPC   C11 2705   0.245   4.105  27.309  0.1756 -0.4842  0.6071
   21SAPC  H11A 2706   0.184   4.095  27.217  1.4516  1.5370 -0.5472
   21SAPC  H11B 2707   0.245   4.214  27.332 -1.7763 -0.3112 -0.0291
   21SAPC     P 2708   0.031   3.998  27.422 -0.1098 -0.5280  0.2526
   21SAPC   O13 2709   0.019   3.857  27.371 -0.2180  0.1386  0.0645
   21SAPC   O14 2710  -0.030   4.033  27.553  0.3359 -0.1784 -0.2365
   21SAPC   O12 2711   0.181   4.039  27.420  0.5215 -0.1622  0.9208
   21SAPC   O11 2712  -0.030   4.086  27.310  0.3905  0.1724  0.3145
   21SAPC    C1 2713  -0.125   4.188  27.343 -0.0081 -0.6600  0.6358
   21SAPC    HA 2714  -0.212   4.173  27.275  1.8275  1.4559 -2.4227
   21SAPC    HB 2715  -0.163   4.190  27.448  1.2311  1.3405  1.0951
   21SAPC    C2 2716  -0.063   4.334  27.323  0.7365  0.2110  0.4441
   21SAPC    HS 2717  -0.033   4.345  27.217  0.1616 -0.5682  0.2009
   21SAPC   O21 2718   0.044   4.356  27.419  0.5459  0.6420  0.7964
   21SAPC   C21 2719   0.128   4.450  27.388  0.2324  0.3972  0.1092
   21SAPC   O22 2720   0.147   4.492  27.276  0.2773  0.0349  0.3914
   21SAPC   C22 2721   0.204   4.498  27.514 -0.8652  0.2528  0.3741
   21SAPC   H2R 2722   0.134   4.563  27.570 -2.7096 -0.1847 -1.3319
   21SAPC   H2S 2723   0.232   4.413  27.581  3.0512  0.9459 -0.1385
   21SAPC    C3 2724  -0.170   4.439  27.359  0.0537 -0.1726 -0.4621
   21SAPC    HX 2725  -0.144   4.545  27.342 -1.9797  0.9646  2.6654
   21SAPC    HY 2726  -0.194   4.445  27.467  0.4570 -0.7438 -0.3338
   21SAPC   O31 2727  -0.302   4.410  27.294  0.9473  0.8128 -0.5316
   21SAPC   C31 2728  -0.319   4.472  27.172  0.0901  0.4523  0.1380
   21SAPC   O32 2729  -0.233   4.535  27.120 -0.3950  0.8422 -0.3378
   21SAPC   C32 2730  -0.450   4.445  27.120  0.2074 -0.2689 -0.2957
   21SAPC   H2X 2731  -0.518   4.427  27.206  0.7955  0.2065  0.2823
   21SAPC   H2Y 2732  -0.447   4.349  27.063  3.6675 -0.1804 -0.4717
   21SAPC   C23 2733   0.342   4.555  27.473 -0.5517 -0.3867 -0.2338
   21SAPC   H3R 2734   0.327   4.641  27.405 -2.1509 -1.2600 -1.0629
   21SAPC   H3S 2735   0.401   4.483  27.413  0.1161 -0.4252  0.4455
   21SAPC   C24 2736   0.422   4.595  27.599 -0.3244  0.6556  0.0605
   21SAPC   H4R 2737   0.528   4.588  27.565  0.4208 -2.0846  2.5351
   21SAPC   H4S 2738   0.409   4.520  27.680 -2.0252  1.8883  0.9979
   21SAPC   C25 2739   0.399   4.719  27.669 -0.3808  0.6194 -0.0452
   21SAPC   H5R 2740   0.291   4.740  27.678 -0.5707 -0.7583  1.3167
   21SAPC   C26 2741   0.479   4.823  27.699 -0.2109 -0.5764 -0.2983
   21SAPC   H6R 2742   0.430   4.912  27.742  0.4349  0.6167 -1.9597
   21SAPC   C27 2743   0.626   4.834  27.673  0.6650  0.0419 -0.9671
   21SAPC   H7R 2744   0.672   4.733  27.687 -0.4571 -0.1038  2.9192
   21SAPC   H7S 2745   0.670   4.892  27.757  1.5474 -0.1601 -1.2757
   21SAPC   C28 2746   0.655   4.904  27.541  0.2915 -0.2852  1.0040
   21SAPC   H8R 2747   0.638   4.839  27.453 -1.7845  3.0053 -1.2727
   21SAPC   C29 2748   0.682   5.037  27.517  0.1532  0.6374  0.1978
   21SAPC   H9R 2749   0.690   5.068  27.412 -0.7892  1.1693  0.2680
   21SAPC  C210 2750   0.690   5.145  27.619 -0.0697 -0.5661 -0.8204
   21SAPC  H10R 2751   0.708   5.106  27.721  0.0081 -0.2259 -0.7028
   21SAPC  H10S 2752   0.602   5.213  27.624  2.7036  3.3429  0.4886
   21SAPC  C211 2753   0.810   5.229  27.574  0.1044  0.1664 -0.0471
   21SAPC  H11R 2754   0.889   5.177  27.519 -0.5148  0.5759 -1.3769
   21SAPC  C212 2755   0.817   5.368  27.594  0.2414 -0.1591 -0.3071
   21SAPC  H12R 2756   0.909   5.417  27.557  0.6271  0.0270  0.8569
   21SAPC  C213 2757   0.704   5.460  27.640  0.3865  0.0940  0.0230
   21SAPC  H13R 2758   0.614   5.408  27.678  1.4234 -0.7532  1.4339
   21SAPC  H13S 2759   0.677   5.500  27.540  2.6367 -0.7414 -0.9846
   21SAPC  C214 2760   0.727   5.572  27.739 -1.0344 -0.1182  0.3439
   21SAPC  H14R 2761   0.670   5.571  27.833 -1.8565  0.7966 -0.1271
   21SAPC  C215 2762   0.791   5.690  27.710 -0.2172 -0.2747 -0.4232
   21SAPC  H15R 2763   0.804   5.769  27.785 -0.0780 -0.6509 -0.0476
   21SAPC  C216 2764   0.833   5.732  27.569  0.0035 -0.5393  0.2450
   21SAPC  H16R 2765   0.752   5.787  27.516 -0.4346  1.6594  2.9408
   21SAPC  H16S 2766   0.865   5.651  27.500  2.1503  0.2370  0.2533
   21SAPC  C217 2767   0.955   5.835  27.565 -0.1268  0.0359 -0.3520
   21SAPC  H17R 2768   0.945   5.914  27.642  1.3697 -1.6009  1.6408
   21SAPC  H17S 2769   0.954   5.878  27.463 -3.2525 -1.3339 -1.0028
   21SAPC  C218 2770   1.081   5.750  27.582  0.4118  0.4744 -0.3634
   21SAPC  H18R 2771   1.095   5.676  27.500  0.6684 -0.2383  0.3179
   21SAPC  H18S 2772   1.063   5.689  27.673 -1.7101 -0.8459 -1.5862
   21SAPC  C219 2773   1.206   5.828  27.606 -0.2352 -0.1974  0.3928
   21SAPC  H19R 2774   1.279   5.768  27.665 -0.1792 -1.0160 -0.4871
   21SAPC  H19S 2775   1.187   5.911  27.677  0.6101 -1.0519  1.6565
   21SAPC  C220 2776   1.276   5.876  27.476  0.1390 -0.7102 -0.1251
   21SAPC  H20R 2777   1.340   5.959  27.514 -1.0237 -0.2627  0.9262
   21SAPC  H20S 2778   1.199   5.928  27.414 -0.2432 -0.4488  0.5597
   21SAPC  H20T 2779   1.317   5.793  27.416  2.2401 -0.4937  0.9363
   21SAPC   C33 2780  -0.507   4.566  27.034  0.4595 -0.0248 -0.6867
   21SAPC   H3X 2781  -0.615   4.542  27.023  0.4072  1.2427 -4.5999
   21SAPC   H3Y 2782  -0.450   4.580  26.940  2.7740  4.3245  1.0728
   21SAPC   C34 2783  -0.501   4.699  27.104 -0.1458 -0.3661 -0.3985
   21SAPC   H4X 2784  -0.392   4.716  27.117 -0.4779  1.5686  0.1981
   21SAPC   H4Y 2785  -0.552   4.689  27.203  1.3630  1.3452  0.6240
   21SAPC   C35 2786  -0.574   4.818  27.032 -0.3441 -0.0536  0.2881
   21SAPC   H5X 2787  -0.682   4.790  27.024 -0.0173 -1.3078 -0.0670
   21SAPC   H5Y 2788  -0.537   4.843  26.930  0.0655  1.5313  0.8058
   21SAPC   C36 2789  -0.554   4.951  27.093  0.5179  0.0660 -0.5446
   21SAPC   H6X 2790  -0.451   4.990  27.076  0.2877  0.8692 -0.1704
   21SAPC   H6Y 2791  -0.565   4.930  27.201 -0.5662  1.0301 -0.4377
   21SAPC   C37 2792  -0.657   5.056  27.053  0.0445 -0.4249  0.0845
   21SAPC   H7X 2793  -0.753   5.028  27.101  0.1715  2.2061  2.0979
   21SAPC   H7Y 2794  -0.652   5.057  26.942  0.8223  1.0147  0.0979
   21SAPC   C38 2795  -0.636   5.211  27.088 -0.6801 -0.0455 -0.4138
   21SAPC   H8X 2796  -0.623   5.272  26.996 -1.2052 -0.0591 -0.4985
   21SAPC   H8Y 2797  -0.552   5.207  27.161 -1.1777 -0.5253  0.1444
   21SAPC   C39 2798  -0.764   5.261  27.152 -0.5173  0.0360  1.2245
   21SAPC   H9X 2799  -0.785   5.193  27.238 -1.2615 -1.8445 -0.3658
   21SAPC   H9Y 2800  -0.848   5.230  27.087 -0.3393 -1.3548  1.6109
   21SAPC  C310 2801  -0.749   5.415  27.180 -0.0710 -0.8583  0.3831
   21SAPC  H10X 2802  -0.751   5.485  27.094  0.2617 -1.2443  0.0606
   21SAPC  H10Y 2803  -0.641   5.424  27.204 -0.0769  0.1953  0.0784
   21SAPC  C311 2804  -0.836   5.458  27.301  0.4254 -0.3574  0.1389
   21SAPC  H11X 2805  -0.801   5.557  27.337  1.4677 -0.6268 -0.1167
   21SAPC  H11Y 2806  -0.827   5.394  27.391  0.8984 -1.6964 -0.8293
   21SAPC  C312 2807  -0.979   5.490  27.262  0.4698 -0.2518  0.0572
   21SAPC  H12X 2808  -1.022   5.397  27.218 -2.7146  1.6577 -1.1550
   21SAPC  H12Y 2809  -0.982   5.558  27.175 -0.1833 -0.3385  0.0119
   21SAPC  C313 2810  -1.052   5.564  27.375 -0.1229  0.2688 -0.2518
   21SAPC  H13X 2811  -1.013   5.665  27.399  0.7163 -0.9583  4.4107
   21SAPC  H13Y 2812  -1.049   5.510  27.472 -2.8102 -1.4093 -0.9990
   21SAPC  C314 2813  -1.203   5.577  27.336  0.1578 -0.1270 -0.6330
   21SAPC  H14X 2814  -1.206   5.605  27.228  0.6526 -0.2157 -0.6735
   21SAPC  H14Y 2815  -1.236   5.659  27.402 -1.7668 -0.0232 -1.6584
   21SAPC  C315 2816  -1.299   5.457  27.345 -0.4026 -0.0508  0.7939
   21SAPC  H15X 2817  -1.265   5.376  27.277 -1.6888  0.5172 -0.5903
   21SAPC  H15Y 2818  -1.404   5.483  27.319 -0.1249  0.1599 -0.1650
   21SAPC  C316 2819  -1.300   5.385  27.479  0.3653  0.5307 -0.9482
   21SAPC  H16X 2820  -1.315   5.473  27.546  2.8138  1.2982 -1.2865
   21SAPC  H16Y 2821  -1.198   5.345  27.497 -0.1803 -0.3287  0.3050
   21SAPC  C317 2822  -1.394   5.265  27.503 -0.1653 -0.4001 -0.0434
   21SAPC  H17X 2823  -1.403   5.204  27.410  0.8039 -1.0194  0.2608
   21SAPC  H17Y 2824  -1.497   5.308  27.505  0.4945  1.4852 -2.0088
   21SAPC  C318 2825  -1.347   5.178  27.615 -0.0191  0.0268  0.2179
   21SAPC  H18X 2826  -1.404   5.083  27.627 -1.1512  0.7024  0.3001
   21SAPC  H18Y 2827  -1.347   5.239  27.708 -0.5700  0.5977 -0.1490
   21SAPC  H18Z 2828  -1.240   5.155  27.598  0.1289  0.9798 -0.1818
   22SAPC     N 2829   2.620   0.002  25.690 -0.8169  0.0512 -0.3333
   22SAPC   C12 2830   2.643   0.119  25.776 -0.0181  0.3407 -0.0263
   22SAPC  H12A 2831   2.747   0.141  25.762  0.9696 -2.7688  1.5906
   22SAPC  H12B 2832   2.624   0.093  25.879 -0.6414 -1.8585 -0.6509
   22SAPC   C13 2833   2.690  -0.116  25.750  0.3903 -0.0551  0.2700
   22SAPC  H13A 2834   2.665  -0.130  25.854  0.4358  0.0443  0.2946
   22SAPC  H13B 2835   2.664  -0.198  25.685 -2.9543  0.8551  0.2563
   22SAPC  H13C 2836   2.796  -0.103  25.763  0.1328 -0.5626  3.8760
   22SAPC   C14 2837   2.474  -0.025  25.690  0.2549 -0.1440  0.0927
   22SAPC  H14A 2838   2.433  -0.049  25.787 -2.3445 -1.7055 -1.2935
   22SAPC  H14B 2839   2.429   0.066  25.651  1.3650  1.1365  1.6633
   22SAPC  H14C 2840   2.452  -0.099  25.614 -0.0531 -0.7328  0.7441
   22SAPC   C15 2841   2.669   0.031  25.555  0.6981 -0.4852 -0.7923
   22SAPC  H15A 2842   2.621  -0.038  25.487  2.6567 -0.2543 -2.5040
   22SAPC  H15B 2843   2.649   0.132  25.522 -0.0507 -0.2007  0.4624
   22SAPC  H15C 2844   2.774   0.010  25.542  0.6007 -2.9571  1.4379
   22SAPC   C11 2845   2.564   0.251  25.745 -0.6223 -0.2540 -0.3595
   22SAPC  H11A 2846   2.579   0.325  25.827 -2.5091  0.7780 -0.8787
   22SAPC  H11B 2847   2.457   0.224  25.737 -0.3166 -1.6851  0.0343
   22SAPC     P 2848   2.539   0.437  25.549  0.2882 -0.4639 -0.1398
   22SAPC   O13 2849   2.626   0.502  25.451 -0.7907 -0.0138 -0.0743
   22SAPC   O14 2850   2.409   0.391  25.505 -0.1643 -0.5594  0.4740
   22SAPC   O12 2851   2.613   0.314  25.620  0.1471 -0.0121 -0.2047
   22SAPC   O11 2852   2.510   0.538  25.673 -0.5606  0.3965  0.2254
   22SAPC    C1 2853   2.614   0.616  25.738  0.2863  0.2251  0.3335
   22SAPC    HA 2854   2.694   0.549  25.777  0.7299 -1.4127 -3.0570
   22SAPC    HB 2855   2.643   0.702  25.673 -1.1932  2.1602  2.0850
   22SAPC    C2 2856   2.542   0.684  25.866 -0.3260 -0.3345 -0.0181
   22SAPC    HS 2857   2.502   0.608  25.937 -3.1095  3.2228  2.5963
   22SAPC   O21 2858   2.430   0.764  25.825  0.4593 -0.1309 -0.1132
   22SAPC   C21 2859   2.357   0.816  25.925  0.0508 -0.2475 -0.4296
   22SAPC   O22 2860   2.364   0.781  26.042 -0.4481  0.3318  0.0798
   22SAPC   C22 2861   2.256   0.917  25.875 -0.6858  0.2692  0.3015
   22SAPC   H2R 2862   2.307   1.008  25.836 -0.1959 -0.4181 -0.6961
   22SAPC   H2S 2863   2.201   0.870  25.792  0.7991 -0.3321 -0.3762
   22SAPC    C3 2864   2.657   0.761  25.957  0.2182  0.0541  0.0845
   22SAPC    HX 2865   2.718   0.676  25.995 -0.8383 -0.1805  1.2873
   22SAPC    HY 2866   2.607   0.809  26.043  0.3818  1.4784 -0.5991
   22SAPC   O31 2867   2.734   0.852  25.876 -0.7165 -0.0466  0.1768
   22SAPC   C31 2868   2.691   0.975  25.861 -0.4086 -0.8207  0.5204
   22SAPC   O32 2869   2.594   1.017  25.926  0.3029 -0.6549  0.5060
   22SAPC   C32 2870   2.777   1.061  25.766  0.2481  0.0243 -0.3507
   22SAPC   H2X 2871   2.872   1.069  25.823 -1.3126  0.0922  2.4494
   22SAPC   H2Y 2872   2.724   1.158  25.760  0.1498 -0.1000 -1.6033
   22SAPC   C23 2873   2.162   0.975  25.996  0.0044  0.3883  0.4076
   22SAPC   H3R 2874   2.225   1.014  26.078 -1.6155  1.0754  1.3899
   22SAPC   H3S 2875   2.096   0.894  26.035 -1.0194  1.1039  0.2239
   22SAPC   C24 2876   2.072   1.091  25.946  0.3624 -0.2945 -0.4374
   22SAPC   H4R 2877   2.156   1.160  25.925  0.3064  0.4202  1.5122
   22SAPC   H4S 2878   2.017   1.133  26.032 -0.4489 -1.7332 -0.2145
   22SAPC   C25 2879   1.985   1.071  25.830  0.3152  0.5987 -0.3200
   22SAPC   H5R 2880   2.026   1.052  25.730  0.6949  0.2503 -0.1041
   22SAPC   C26 2881   1.857   1.100  25.835 -0.0702 -0.6013  0.3495
   22SAPC   H6R 2882   1.815   1.083  25.735  2.9830  2.0872 -1.6006
   22SAPC   C27 2883   1.766   1.164  25.937 -0.2498  0.2069  0.4405
   22SAPC   H7R 2884   1.759   1.275  25.927 -1.6343  0.0443 -0.8222
   22SAPC   H7S 2885   1.802   1.145  26.040 -0.4626  0.6966  0.6110
   22SAPC   C28 2886   1.623   1.122  25.929  0.3831  0.0911 -0.1823
   22SAPC   H8R 2887   1.582   1.123  25.827  2.1334  1.5250 -0.9287
   22SAPC   C29 2888   1.548   1.075  26.038 -0.3257  0.0245  1.4273
   22SAPC   H9R 2889   1.442   1.047  26.025  0.0700 -1.0067  0.1286
   22SAPC  C210 2890   1.590   1.093  26.183 -0.8290 -0.0869  0.4885
   22SAPC  H10R 2891   1.580   1.201  26.207 -1.9842  0.3221 -1.5301
   22SAPC  H10S 2892   1.697   1.087  26.212 -0.3610  2.7344 -0.3247
   22SAPC  C211 2893   1.485   1.034  26.273  1.0388  0.4017 -0.0786
   22SAPC  H11R 2894   1.390   1.088  26.281  0.5901 -0.5869  1.9528
   22SAPC  C212 2895   1.501   0.913  26.335 -0.8182 -0.3977  0.4640
   22SAPC  H12R 2896   1.422   0.875  26.402  0.8662 -1.6127  1.8719
   22SAPC  C213 2897   1.622   0.830  26.335 -0.1816  0.5253  0.1392
   22SAPC  H13R 2898   1.703   0.883  26.390  0.7691 -0.6355 -0.0948
   22SAPC  H13S 2899   1.660   0.802  26.235 -0.9580 -1.7619  0.4118
   22SAPC  C214 2900   1.601   0.695  26.398 -0.1747  0.2192  0.2292
   22SAPC  H14R 2901   1.522   0.631  26.355 -0.6751 -1.2427  3.0912
   22SAPC  C215 2902   1.685   0.645  26.493 -0.2385 -0.3016 -0.8399
   22SAPC  H15R 2903   1.661   0.545  26.533 -0.0790 -0.4481 -1.1121
   22SAPC  C216 2904   1.791   0.723  26.565  0.2357  0.3304 -0.0634
   22SAPC  H16R 2905   1.756   0.825  26.590  0.8232 -0.2243  3.5978
   22SAPC  H16S 2906   1.885   0.734  26.506 -0.0357 -0.1942 -0.6145
   22SAPC  C217 2907   1.802   0.656  26.704 -0.0197  0.3142  0.0520
   22SAPC  H17R 2908   1.836   0.550  26.692  1.3695  0.7322  0.0501
   22SAPC  H17S 2909   1.703   0.672  26.751 -1.2303  2.7235 -3.0589
   22SAPC  C218 2910   1.899   0.708  26.813  0.2992  0.1474 -0.0188
   22SAPC  H18R 2911   2.005   0.701  26.779  1.2474 -1.4889  2.9436
   22SAPC  H18S 2912   1.894   0.641  26.901 -1.8587 -0.3049 -0.4274
   22SAPC  C219 2913   1.852   0.846  26.864 -0.4682 -0.9483 -0.0117
   22SAPC  H19R 2914   1.744   0.858  26.887 -0.6543  2.9700 -2.1359
   22SAPC  H19S 2915   1.849   0.920  26.781 -2.2267 -0.7083  0.2366
   22SAPC  C220 2916   1.941   0.915  26.980  0.2767  0.5024  0.1677
   22SAPC  H20R 2917   1.875   0.989  27.031  1.9013  1.5418  0.8404
   22SAPC  H20S 2918   2.037   0.953  26.939 -0.6068  1.7105 -0.8806
   22SAPC  H20T 2919   1.975   0.837  27.051 -1.4768  1.0805  1.7208
   22SAPC   C33 2920   2.800   1.020  25.624  0.4457 -0.2312  0.5246
   22SAPC   H3X 2921   2.717   0.972  25.568  0.9388 -0.3545 -0.1146
   22SAPC   H3Y 2922   2.876   0.939  25.629  1.4266  0.6217  0.0764
   22SAPC   C34 2923   2.845   1.138  25.529  0.3752 -0.0525 -0.1954
   22SAPC   H4X 2924   2.924   1.200  25.575  0.6981 -0.2237 -0.5101
   22SAPC   H4Y 2925   2.756   1.196  25.497 -0.3143 -1.9644 -1.9903
   22SAPC   C35 2926   2.905   1.081  25.397  0.2625  0.2141 -0.2296
   22SAPC   H5X 2927   2.829   1.024  25.340  0.6166 -0.3629 -0.1292
   22SAPC   H5Y 2928   3.004   1.036  25.420 -0.1050 -0.1175  0.7684
   22SAPC   C36 2929   2.937   1.194  25.301  0.2063 -0.0380  0.2469
   22SAPC   H6X 2930   3.001   1.252  25.371 -1.2987 -1.6308  3.1076
   22SAPC   H6Y 2931   2.850   1.257  25.275  0.1490  0.2185  1.0319
   22SAPC   C37 2932   2.987   1.133  25.167 -0.0878 -0.2879  0.4849
   22SAPC   H7X 2933   2.918   1.050  25.142 -0.4482 -0.5018  2.1017
   22SAPC   H7Y 2934   3.087   1.086  25.180 -0.0541 -0.7623 -1.1692
   22SAPC   C38 2935   2.999   1.244  25.055  0.3689 -0.3245  0.0810
   22SAPC   H8X 2936   3.064   1.328  25.090 -0.0846 -0.6436  1.7810
   22SAPC   H8Y 2937   2.901   1.294  25.038  0.9033  1.2362  1.2894
   22SAPC   C39 2938   3.051   1.177  24.927 -0.0533  0.0368  0.1365
   22SAPC   H9X 2939   3.001   1.080  24.907  3.6018 -2.2430  1.1663
   22SAPC   H9Y 2940   3.158   1.155  24.948 -0.5618 -1.3506  1.4918
   22SAPC  C310 2941   3.042   1.274  24.810 -0.4881 -0.3981 -0.0747
   22SAPC  H10X 2942   3.082   1.374  24.835  1.4529 -0.8395 -1.1978
   22SAPC  H10Y 2943   2.932   1.286  24.804 -0.5040 -0.0993  0.7131
   22SAPC  C311 2944   3.115   1.237  24.682 -0.7573 -0.4796  0.3423
   22SAPC  H11X 2945   3.080   1.136  24.652  0.2712 -0.6400 -0.3661
   22SAPC  H11Y 2946   3.225   1.228  24.694 -0.4773  0.0761 -1.5187
   22SAPC  C312 2947   3.098   1.349  24.581 -0.6088  0.3808  0.6029
   22SAPC  H12X 2948   3.157   1.441  24.596  3.1926 -1.9206  1.0515
   22SAPC  H12Y 2949   2.991   1.380  24.573 -1.0921 -0.8707  1.8497
   22SAPC  C313 2950   3.141   1.301  24.435 -0.1256 -0.0018 -0.0199
   22SAPC  H13X 2951   3.101   1.199  24.416  1.3187 -0.0594 -3.4090
   22SAPC  H13Y 2952   3.252   1.295  24.440 -0.1769 -1.4794 -0.2681
   22SAPC  C314 2953   3.084   1.390  24.325 -0.2904 -0.5443  0.2140
   22SAPC  H14X 2954   3.110   1.492  24.359 -0.1995 -0.0231 -1.3340
   22SAPC  H14Y 2955   2.973   1.377  24.323 -0.3219 -0.1851 -0.5255
   22SAPC  C315 2956   3.145   1.360  24.194  0.3494  0.2238  0.6995
   22SAPC  H15X 2957   3.254   1.376  24.201  0.2550  1.4305 -0.2280
   22SAPC  H15Y 2958   3.116   1.422  24.106 -1.0730  1.6462  2.0943
   22SAPC  C316 2959   3.114   1.216  24.150 -0.3894 -0.3372  0.1377
   22SAPC  H16X 2960   3.006   1.192  24.137  0.1962 -2.8966 -0.6886
   22SAPC  H16Y 2961   3.159   1.150  24.227 -0.4261  0.0169  0.4628
   22SAPC  C317 2962   3.182   1.180  24.015 -0.1284  0.0415  0.1783
   22SAPC  H17X 2963   3.118   1.212  23.930  0.8330  0.6283 -0.3540
   22SAPC  H17Y 2964   3.178   1.070  24.003 -0.8464 -0.0210  0.9352
   22SAPC  C318 2965   3.325   1.222  23.982 -0.2388 -0.1742  0.5502
   22SAPC  H18X 2966   3.361   1.167  23.892  0.9072  0.2801  0.7187
   22SAPC  H18Y 2967   3.396   1.205  24.065  1.1719 -0.4689 -0.6688
   22SAPC  H18Z 2968   3.326   1.332  23.964 -2.5690 -0.3856 -1.5672
   23SAPC     N 2969   2.959   0.023  29.273 -0.4359 -0.7130 -0.4824
   23SAPC   C12 2970   2.843   0.080  29.195 -0.5401 -0.3930 -0.6851
   23SAPC  H12A 2971   2.879   0.150  29.121  1.2861  0.5679  1.0125
   23SAPC  H12B 2972   2.783   0.132  29.268 -1.2043  0.0101 -1.5030
   23SAPC   C13 2973   3.025   0.132  29.358  0.5933 -0.2925 -0.1595
   23SAPC  H13A 2974   2.958   0.174  29.433 -1.6976 -1.7872 -1.2457
   23SAPC  H13B 2975   3.111   0.093  29.410  3.5228  2.3647 -2.6326
   23SAPC  H13C 2976   3.072   0.211  29.302  2.0103  0.7218  2.2886
   23SAPC   C14 2977   2.920  -0.081  29.374 -0.1693 -0.0459  0.5318
   23SAPC  H14A 2978   2.873  -0.169  29.332  1.5817 -0.2608 -1.1579
   23SAPC  H14B 2979   3.010  -0.123  29.416  1.1605  2.7693  0.7739
   23SAPC  H14C 2980   2.855  -0.035  29.446 -0.9903 -1.0521  0.4583
   23SAPC   C15 2981   3.055  -0.033  29.177 -0.4588  0.4513  0.1050
   23SAPC  H15A 2982   2.999  -0.104  29.117 -2.3709  1.4766  0.5951
   23SAPC  H15B 2983   3.094   0.040  29.108 -1.8347  1.4223  0.3228
   23SAPC  H15C 2984   3.129  -0.091  29.229 -0.9690  1.4277  2.0011
   23SAPC   C11 2985   2.763  -0.027  29.121  0.9245 -0.5294 -0.6126
   23SAPC  H11A 2986   2.679   0.020  29.065  1.6179  0.8950 -0.4990
   23SAPC  H11B 2987   2.711  -0.092  29.195 -0.0296 -0.4525 -1.1937
   23SAPC     P 2988   2.870  -0.049  28.875  0.0139 -0.2442  0.1282
   23SAPC   O13 2989   2.995  -0.104  28.834  0.1452 -0.1216 -0.4310
   23SAPC   O14 2990   2.758  -0.077  28.779 -0.3113 -0.9441  0.1803
   23SAPC   O12 2991   2.839  -0.098  29.020 -0.0802 -0.1240  0.1069
   23SAPC   O11 2992   2.887   0.104  28.896  0.2485 -0.0139  0.8040
   23SAPC    C1 2993   2.792   0.196  28.835 -0.0004  0.2682  0.3249
   23SAPC    HA 2994   2.689   0.154  28.841  0.1074  0.0716  0.9534
   23SAPC    HB 2995   2.789   0.285  28.902 -0.2290 -0.7368  1.6938
   23SAPC    C2 2996   2.834   0.241  28.689  0.5997  0.7555 -0.3552
   23SAPC    HS 2997   2.849   0.149  28.629 -0.6565 -0.9820  1.8477
   23SAPC   O21 2998   2.944   0.331  28.691  0.9961  0.3105  0.1502
   23SAPC   C21 2999   3.054   0.289  28.639  0.1087 -0.2454  0.5390
   23SAPC   O22 3000   3.095   0.175  28.612 -0.3310 -0.5536 -0.0333
   23SAPC   C22 3001   3.146   0.416  28.612  0.1041  0.0535  0.3512
   23SAPC   H2R 3002   3.248   0.382  28.586  1.3759  2.2222  2.1864
   23SAPC   H2S 3003   3.103   0.477  28.530  1.8307  1.7606  0.6437
   23SAPC    C3 3004   2.712   0.310  28.613 -0.2457 -0.2862  0.5526
   23SAPC    HX 3005   2.626   0.240  28.607 -1.6096  1.2893  0.8433
   23SAPC    HY 3006   2.755   0.326  28.512 -1.5061  1.0112  0.1808
   23SAPC   O31 3007   2.667   0.435  28.678 -0.4485  0.3761 -0.1647
   23SAPC   C31 3008   2.581   0.503  28.598 -0.6299  0.1331  0.2458
   23SAPC   O32 3009   2.543   0.453  28.491  0.3055 -0.6644  0.4780
   23SAPC   C32 3010   2.550   0.634  28.666 -0.0201 -0.1746 -0.3211
   23SAPC   H2X 3011   2.638   0.683  28.712 -0.2941  0.3523 -0.3506
   23SAPC   H2Y 3012   2.493   0.598  28.755 -2.5377 -0.2728 -1.8577
   23SAPC   C23 3013   3.172   0.501  28.736 -0.8874  0.1324 -0.1930
   23SAPC   H3R 3014   3.218   0.439  28.816 -0.1268 -1.1295 -1.5657
   23SAPC   H3S 3015   3.081   0.557  28.767  0.1729  3.5260 -2.5565
   23SAPC   C24 3016   3.279   0.604  28.711  0.0215  0.2208 -0.2700
   23SAPC   H4R 3017   3.226   0.677  28.646 -0.0569  1.3073  0.9626
   23SAPC   H4S 3018   3.367   0.553  28.669  1.3351  1.5256  0.7615
   23SAPC   C25 3019   3.319   0.660  28.845  0.2711  0.8353  0.0098
   23SAPC   H5R 3020   3.367   0.586  28.910 -3.0271  0.9394  2.8241
   23SAPC   C26 3021   3.273   0.771  28.895 -0.2012  0.8462 -0.1694
   23SAPC   H6R 3022   3.307   0.803  28.994 -0.1874 -0.5222  0.2946
   23SAPC   C27 3023   3.162   0.861  28.824 -0.2558  0.0463  0.2903
   23SAPC   H7R 3024   3.060   0.838  28.861 -0.1281 -0.3297  0.4151
   23SAPC   H7S 3025   3.169   0.845  28.714  0.5161  0.5489  0.2565
   23SAPC   C28 3026   3.204   0.993  28.857  0.6489 -0.4891 -0.7588
   23SAPC   H8R 3027   3.246   0.998  28.959 -0.7970 -3.6680  0.1595
   23SAPC   C29 3028   3.192   1.101  28.774 -0.2677 -0.0085  0.2554
   23SAPC   H9R 3029   3.235   1.196  28.807 -2.9642  1.3123  0.2616
   23SAPC  C210 3030   3.141   1.104  28.628 -0.2515  0.2914  0.1983
   23SAPC  H10R 3031   3.147   1.001  28.588 -1.4940  0.2710  0.0240
   23SAPC  H10S 3032   3.218   1.162  28.573 -1.1463  1.5973  0.2732
   23SAPC  C211 3033   3.003   1.163  28.606  0.2583  0.3791 -0.9077
   23SAPC  H11R 3034   2.925   1.086  28.596 -0.5269  0.8165  1.3843
   23SAPC  C212 3035   2.972   1.286  28.567 -0.5696 -0.2086  0.2342
   23SAPC  H12R 3036   2.864   1.301  28.550 -0.7269 -0.7663  0.7299
   23SAPC  C213 3037   3.075   1.400  28.556 -0.1268 -0.4673  0.4230
   23SAPC  H13R 3038   3.180   1.363  28.566  0.6028  0.6648 -2.2392
   23SAPC  H13S 3039   3.061   1.476  28.636  1.6182 -0.8798  1.1834
   23SAPC  C214 3040   3.058   1.461  28.420  0.3715 -0.4764 -0.7476
   23SAPC  H14R 3041   3.143   1.439  28.353  0.4582 -1.2565 -0.3874
   23SAPC  C215 3042   2.965   1.547  28.377 -0.2141 -0.1332  0.0451
   23SAPC  H15R 3043   2.968   1.578  28.271  1.8783 -0.2105  0.0377
   23SAPC  C216 3044   2.869   1.616  28.471 -0.3637 -0.5154  0.0249
   23SAPC  H16R 3045   2.907   1.597  28.574 -1.4316  0.1527  0.5576
   23SAPC  H16S 3046   2.770   1.565  28.471 -1.2966  1.1405  2.3496
   23SAPC  C217 3047   2.861   1.762  28.438 -0.1612  0.1849 -0.2463
   23SAPC  H17R 3048   2.959   1.813  28.444  0.1776 -0.4438 -0.3334
   23SAPC  H17S 3049   2.791   1.795  28.518  0.3189 -1.9311  1.1287
   23SAPC  C218 3050   2.785   1.806  28.311 -0.3064  0.7378 -0.2929
   23SAPC  H18R 3051   2.735   1.715  28.271  1.6121  0.7416 -2.9796
   23SAPC  H18S 3052   2.854   1.835  28.229 -2.0417  1.5197 -1.5453
   23SAPC  C219 3053   2.681   1.915  28.332 -0.1659  0.3769 -0.1891
   23SAPC  H19R 3054   2.733   2.000  28.380  0.1454 -0.4594  1.0204
   23SAPC  H19S 3055   2.616   1.864  28.407  1.1182 -0.4678  0.3943
   23SAPC  C220 3056   2.599   1.960  28.206 -0.0987  0.1153  0.4903
   23SAPC  H20R 3057   2.569   1.881  28.134 -0.6051  0.5768  0.1849
   23SAPC  H20S 3058   2.660   2.030  28.144 -3.0360  2.7332  0.3071
   23SAPC  H20T 3059   2.509   2.016  28.238 -0.8258  0.1525 -1.4570
   23SAPC   C33 3060   2.452   0.726  28.588  0.6611 -0.4407 -0.4375
   23SAPC   H3X 3061   2.388   0.779  28.662 -0.6811 -0.8244 -1.2837
   23SAPC   H3Y 3062   2.380   0.681  28.517  0.7085 -0.9357 -0.1793
   23SAPC   C34 3063   2.523   0.844  28.521 -0.0205  0.2315 -0.7275
   23SAPC   H4X 3064   2.558   0.806  28.423 -0.4724 -1.1781 -0.3588
   23SAPC   H4Y 3065   2.614   0.867  28.581 -1.9103  1.0984  2.0499
   23SAPC   C35 3066   2.448   0.973  28.495 -0.4914  0.0256  0.3451
   23SAPC   H5X 3067   2.427   1.023  28.591  1.2020  0.8438  0.3279
   23SAPC   H5Y 3068   2.345   0.952  28.459  0.2064 -1.2981 -1.0236
   23SAPC   C36 3069   2.524   1.075  28.410  0.1995 -0.0372  0.6265
   23SAPC   H6X 3070   2.470   1.056  28.314  0.7530 -3.0134  0.7897
   23SAPC   H6Y 3071   2.632   1.054  28.399  0.3934  1.1368  0.1141
   23SAPC   C37 3072   2.509   1.215  28.473  0.0883 -0.2455  0.4952
   23SAPC   H7X 3073   2.588   1.243  28.546 -0.3758 -2.3996  1.8862
   23SAPC   H7Y 3074   2.413   1.223  28.528 -0.4192  0.2745 -0.4267
   23SAPC   C38 3075   2.506   1.314  28.362 -0.5331 -0.1311  0.3493
   23SAPC   H8X 3076   2.537   1.264  28.269 -1.7771  0.9935 -0.7219
   23SAPC   H8Y 3077   2.578   1.397  28.378  0.5056 -1.0196  0.3993
   23SAPC   C39 3078   2.363   1.370  28.341 -1.0492 -0.9315 -0.3047
   23SAPC   H9X 3079   2.337   1.436  28.426  1.3878  2.8017 -2.1482
   23SAPC   H9Y 3080   2.292   1.285  28.334 -0.6123 -1.2099 -1.9834
   23SAPC  C310 3081   2.354   1.461  28.215 -0.3008  1.1374 -0.3613
   23SAPC  H10X 3082   2.389   1.397  28.131  1.8793  0.3109  1.0724
   23SAPC  H10Y 3083   2.430   1.541  28.228  1.2408 -0.3390  0.0782
   23SAPC  C311 3084   2.216   1.527  28.176 -0.2737  0.2046 -0.5456
   23SAPC  H11X 3085   2.173   1.570  28.269  1.3982  0.8173 -0.0143
   23SAPC  H11Y 3086   2.145   1.449  28.138 -0.7491  0.2887  0.1523
   23SAPC  C312 3087   2.232   1.644  28.079 -0.5184  0.1391 -0.0608
   23SAPC  H12X 3088   2.278   1.606  27.985 -0.7311 -0.1831 -0.0346
   23SAPC  H12Y 3089   2.300   1.720  28.123 -1.6686 -0.1786  2.4339
   23SAPC  C313 3090   2.094   1.699  28.039 -1.1599  0.6162  0.0063
   23SAPC  H13X 3091   2.037   1.736  28.127 -1.7098 -0.4469  0.1071
   23SAPC  H13Y 3092   2.045   1.604  28.009 -0.9815  0.3264  0.6039
   23SAPC  C314 3093   2.087   1.789  27.911 -0.2890  0.5833  0.3693
   23SAPC  H14X 3094   2.144   1.735  27.832  1.1648 -2.6158  3.3415
   23SAPC  H14Y 3095   2.126   1.890  27.934  2.4170 -0.5471  1.1449
   23SAPC  C315 3096   1.940   1.789  27.862  0.6205 -0.5463 -0.5552
   23SAPC  H15X 3097   1.863   1.726  27.912 -1.6526  1.1803 -1.6348
   23SAPC  H15Y 3098   1.943   1.738  27.763 -1.2489 -0.6751 -0.5956
   23SAPC  C316 3099   1.897   1.932  27.843 -0.2269  0.3455  0.4665
   23SAPC  H16X 3100   1.981   1.989  27.798  0.2100 -0.6333  0.0327
   23SAPC  H16Y 3101   1.871   1.964  27.946 -0.8596  0.6784  0.2158
   23SAPC  C317 3102   1.775   1.965  27.759 -0.3841  0.1657 -0.8375
   23SAPC  H17X 3103   1.786   1.932  27.653 -0.4881 -0.8583 -0.5429
   23SAPC  H17Y 3104   1.767   2.076  27.756  2.6968  0.4778 -0.7012
   23SAPC  C318 3105   1.650   1.912  27.826 -0.2425  0.1823 -0.3073
   23SAPC  H18X 3106   1.644   1.940  27.934 -0.4321 -1.5335  0.1612
   23SAPC  H18Y 3107   1.644   1.802  27.809  0.4258  0.1154 -0.1426
   23SAPC  H18Z 3108   1.564   1.963  27.778 -0.8440 -0.9216 -0.4323
   24SAPC     N 3109   2.250   3.618  29.118  0.3471  1.2413 -0.3022
   24SAPC   C12 3110   2.233   3.765  29.064 -0.4427 -0.5341 -0.1301
   24SAPC  H12A 3111   2.193   3.760  28.964 -0.3126 -3.1432 -0.1190
   24SAPC  H12B 3112   2.331   3.809  29.055 -1.3883  1.5276 -1.1337
   24SAPC   C13 3113   2.288   3.624  29.266  0.0370  1.1466  0.4556
   24SAPC  H13A 3114   2.196   3.653  29.315  0.7519 -0.1745  2.7610
   24SAPC  H13B 3115   2.328   3.529  29.297  0.0805  0.8555 -0.4590
   24SAPC  H13C 3116   2.359   3.702  29.288 -1.9957  2.1676  4.3352
   24SAPC   C14 3117   2.127   3.539  29.091  0.7737  0.9485 -0.2726
   24SAPC  H14A 3118   2.110   3.552  28.985  1.6276 -1.7405 -0.8286
   24SAPC  H14B 3119   2.124   3.436  29.125 -1.7742  1.1498  0.2943
   24SAPC  H14C 3120   2.048   3.584  29.148  0.8535 -2.6410  3.1071
   24SAPC   C15 3121   2.366   3.543  29.041  0.5532  0.6063  0.4063
   24SAPC  H15A 3122   2.343   3.549  28.936 -0.6043  0.9787  0.6644
   24SAPC  H15B 3123   2.464   3.584  29.057  0.6199  0.2609  0.9239
   24SAPC  H15C 3124   2.363   3.437  29.063  0.0168  0.5211 -0.0434
   24SAPC   C11 3125   2.125   3.859  29.135  0.4819  1.1589 -0.3305
   24SAPC  H11A 3126   2.128   3.953  29.075 -1.3423 -0.1961 -2.7422
   24SAPC  H11B 3127   2.151   3.873  29.242  2.7136 -0.0456 -0.6403
   24SAPC     P 3128   1.905   3.849  28.992 -0.2313 -0.0158 -0.1191
   24SAPC   O13 3129   1.967   3.800  28.865 -0.0018  0.4536 -0.3310
   24SAPC   O14 3130   1.770   3.810  29.022  0.2653 -0.2449 -0.2580
   24SAPC   O12 3131   1.990   3.803  29.113 -0.0478 -0.1840 -0.3683
   24SAPC   O11 3132   1.906   4.008  29.000  0.0326  0.6514 -0.1535
   24SAPC    C1 3133   1.887   4.067  29.125 -0.6247  0.4584 -0.4367
   24SAPC    HA 3134   1.785   4.059  29.169 -0.2139  1.8230  0.8106
   24SAPC    HB 3135   1.960   4.034  29.202 -0.2843 -0.2458 -1.0385
   24SAPC    C2 3136   1.938   4.214  29.119  0.1561  0.3560 -0.4077
   24SAPC    HS 3137   1.889   4.274  29.199 -2.0636  0.4750 -1.7746
   24SAPC   O21 3138   1.895   4.283  29.000 -0.4410 -0.6397 -0.0691
   24SAPC   C21 3139   1.767   4.297  28.992 -0.8026 -0.1325  0.2069
   24SAPC   O22 3140   1.677   4.249  29.055  0.3925  0.4949 -0.4352
   24SAPC   C22 3141   1.748   4.401  28.880 -0.3385 -0.2534  0.4231
   24SAPC   H2R 3142   1.814   4.485  28.908  0.5019 -1.7773  3.4190
   24SAPC   H2S 3143   1.791   4.347  28.792  0.1239 -0.5085  0.7955
   24SAPC    C3 3144   2.091   4.223  29.135 -0.3587  0.8409  0.1087
   24SAPC    HX 3145   2.133   4.167  29.048  2.8290  2.4127  0.4910
   24SAPC    HY 3146   2.129   4.164  29.222 -1.3030  0.4823  0.2928
   24SAPC   O31 3147   2.148   4.357  29.136  0.1870  0.2346  0.1424
   24SAPC   C31 3148   2.144   4.415  29.249  0.0635  0.2211 -0.3097
   24SAPC   O32 3149   2.085   4.366  29.347 -0.0144 -0.1682 -1.0618
   24SAPC   C32 3150   2.215   4.547  29.235  0.1892 -0.0797 -0.1730
   24SAPC   H2X 3151   2.160   4.604  29.157  0.6514 -0.2315 -0.6145
   24SAPC   H2Y 3152   2.313   4.539  29.183 -0.1808  0.3684 -0.9598
   24SAPC   C23 3153   1.607   4.456  28.856 -0.3918 -0.7120  0.5578
   24SAPC   H3R 3154   1.586   4.504  28.954  3.4744  0.8759  0.7665
   24SAPC   H3S 3155   1.533   4.374  28.842 -1.5994  0.1082  1.8307
   24SAPC   C24 3156   1.595   4.562  28.750  0.5348 -0.1035  0.4185
   24SAPC   H4R 3157   1.651   4.521  28.663  0.7351  1.7895 -0.3912
   24SAPC   H4S 3158   1.652   4.650  28.788 -0.4304  1.0193 -0.6560
   24SAPC   C25 3159   1.452   4.602  28.717 -0.4017 -0.5706  0.2659
   24SAPC   H5R 3160   1.382   4.523  28.747 -4.1139  1.4807 -2.1689
   24SAPC   C26 3161   1.410   4.715  28.663  0.2360 -0.3201  0.3527
   24SAPC   H6R 3162   1.305   4.731  28.637  0.6361 -0.8598 -1.8844
   24SAPC   C27 3163   1.492   4.827  28.601  0.1059  0.3150 -0.1848
   24SAPC   H7R 3164   1.418   4.896  28.556 -0.0265  1.2973  1.4733
   24SAPC   H7S 3165   1.557   4.789  28.519 -1.1654  0.0431 -1.1017
   24SAPC   C28 3166   1.585   4.906  28.688 -0.5634 -0.1178 -0.4812
   24SAPC   H8R 3167   1.565   4.905  28.796 -0.1593 -2.3344 -0.3875
   24SAPC   C29 3168   1.684   4.993  28.640  0.9929  0.1257  0.7054
   24SAPC   H9R 3169   1.742   5.038  28.722  0.9624 -1.1154  1.4502
   24SAPC  C210 3170   1.718   5.017  28.491  0.6049 -1.0321 -0.0305
   24SAPC  H10R 3171   1.663   5.108  28.458  2.8196 -0.1397 -1.5006
   24SAPC  H10S 3172   1.670   4.933  28.436 -3.0873 -0.2133  1.6592
   24SAPC  C211 3173   1.866   5.028  28.480 -0.4536 -0.4978  0.1593
   24SAPC  H11R 3174   1.922   4.934  28.490  0.9324  0.1065 -1.3389
   24SAPC  C212 3175   1.926   5.126  28.408  0.1111 -0.6904  0.4166
   24SAPC  H12R 3176   2.032   5.130  28.380 -0.2419  1.7148 -0.8160
   24SAPC  C213 3177   1.854   5.255  28.364 -0.8593 -0.2186  1.4023
   24SAPC  H13R 3178   1.794   5.292  28.450  1.3430  2.4519  1.9313
   24SAPC  H13S 3179   1.784   5.227  28.282  2.3097  1.3284 -2.1173
   24SAPC  C214 3180   1.940   5.374  28.314 -1.0984  0.0555 -0.8880
   24SAPC  H14R 3181   2.048   5.356  28.304 -0.6676 -0.0594  2.7311
   24SAPC  C215 3182   1.898   5.484  28.261 -0.5783  0.3020 -0.5880
   24SAPC  H15R 3183   1.970   5.558  28.222 -1.3580  0.6456 -1.4046
   24SAPC  C216 3184   1.753   5.517  28.241  0.2401 -0.0155 -0.0678
   24SAPC  H16R 3185   1.724   5.614  28.288 -0.7687  0.0032 -0.6892
   24SAPC  H16S 3186   1.682   5.452  28.296 -1.4658  0.6481 -1.3596
   24SAPC  C217 3187   1.727   5.522  28.090  0.0173  0.1284 -0.5456
   24SAPC  H17R 3188   1.723   5.423  28.040  1.4342  0.9687 -2.4459
   24SAPC  H17S 3189   1.802   5.586  28.040 -0.1385  0.1722 -0.7246
   24SAPC  C218 3190   1.596   5.590  28.070 -0.7315  0.2659 -0.4046
   24SAPC  H18R 3191   1.577   5.671  28.143  3.5992  1.9769 -0.9422
   24SAPC  H18S 3192   1.519   5.511  28.087 -0.9075  0.7162  0.9652
   24SAPC  C219 3193   1.594   5.646  27.929  0.2183 -0.6575  0.1709
   24SAPC  H19R 3194   1.624   5.576  27.848  1.1769  1.1963 -1.1640
   24SAPC  H19S 3195   1.670   5.726  27.927 -0.0315 -0.4225 -0.0675
   24SAPC  C220 3196   1.456   5.718  27.892  0.0006  0.6887  0.2929
   24SAPC  H20R 3197   1.443   5.793  27.973  0.1593  2.5824 -1.3379
   24SAPC  H20S 3198   1.386   5.633  27.882  1.4696 -0.7295  1.4480
   24SAPC  H20T 3199   1.457   5.776  27.797  1.5229 -0.2404 -0.2934
   24SAPC   C33 3200   2.216   4.636  29.361  0.0741  1.1317 -0.4555
   24SAPC   H3X 3201   2.279   4.588  29.439 -0.2446  0.4032 -0.6432
   24SAPC   H3Y 3202   2.111   4.647  29.395  0.2747  3.7243 -0.4399
   24SAPC   C34 3203   2.275   4.779  29.334 -0.4538  0.7989  0.3070
   24SAPC   H4X 3204   2.219   4.815  29.245  1.2872 -1.0410 -1.6408
   24SAPC   H4Y 3205   2.382   4.767  29.307 -0.3029  3.8050 -0.7553
   24SAPC   C35 3206   2.264   4.874  29.457 -0.1454 -0.5335  0.4256
   24SAPC   H5X 3207   2.300   4.826  29.551 -3.2428 -2.1743  0.9035
   24SAPC   H5Y 3208   2.158   4.902  29.474 -0.1855  0.1402 -0.8818
   24SAPC   C36 3209   2.331   5.012  29.435  0.0969  0.0028  0.3189
   24SAPC   H6X 3210   2.432   4.987  29.397  0.3810 -0.4677  1.3513
   24SAPC   H6Y 3211   2.342   5.065  29.532  1.4596  1.5809 -0.6415
   24SAPC   C37 3212   2.268   5.111  29.334 -0.1540 -0.0472  0.2093
   24SAPC   H7X 3213   2.158   5.114  29.352 -0.1177  0.5984  0.3446
   24SAPC   H7Y 3214   2.291   5.067  29.235 -0.1181 -2.1535  1.0923
   24SAPC   C38 3215   2.333   5.247  29.338  0.0583 -0.6246 -0.2885
   24SAPC   H8X 3216   2.443   5.232  29.339  0.2630  0.6958 -0.8147
   24SAPC   H8Y 3217   2.315   5.306  29.431  0.1795 -0.4323 -0.3864
   24SAPC   C39 3218   2.292   5.322  29.213  0.5894 -0.2592  0.0584
   24SAPC   H9X 3219   2.278   5.256  29.124 -2.3587  0.0204  0.2092
   24SAPC   H9Y 3220   2.377   5.393  29.198  0.3157  0.4584  1.6917
   24SAPC  C310 3221   2.158   5.396  29.217  0.7902  0.1028  0.0991
   24SAPC  H10X 3222   2.149   5.431  29.322 -1.0572  0.7570 -0.2530
   24SAPC  H10Y 3223   2.071   5.329  29.204  0.8210  0.1584 -0.4581
   24SAPC  C311 3224   2.143   5.521  29.133 -0.1894  0.5655 -0.1781
   24SAPC  H11X 3225   2.122   5.486  29.029  1.7311  2.1783 -1.1813
   24SAPC  H11Y 3226   2.240   5.575  29.128  0.0916  0.3757  2.2453
   24SAPC  C312 3227   2.039   5.610  29.184 -0.2003 -0.4764  0.3048
   24SAPC  H12X 3228   2.078   5.670  29.269  0.4576  0.1028 -0.3946
   24SAPC  H12Y 3229   1.949   5.552  29.215  0.6040 -1.1541  1.4515
   24SAPC  C313 3230   1.993   5.706  29.073  0.1431 -0.2821 -0.8352
   24SAPC  H13X 3231   1.903   5.663  29.024  1.3795 -3.0135 -0.8974
   24SAPC  H13Y 3232   2.079   5.723  29.003  0.9695  0.0273  0.2259
   24SAPC  C314 3233   1.951   5.836  29.139  0.1739  0.5912  0.3104
   24SAPC  H14X 3234   2.024   5.870  29.216  1.7793 -0.5068 -0.6695
   24SAPC  H14Y 3235   1.849   5.827  29.180 -0.3435 -0.8021 -1.1784
   24SAPC  C315 3236   1.920   5.947  29.036 -0.7167 -0.0081 -1.0831
   24SAPC  H15X 3237   1.845   6.016  29.081  1.1677  1.4260  0.0048
   24SAPC  H15Y 3238   1.882   5.908  28.939 -0.0123  0.8508 -1.7208
   24SAPC  C316 3239   2.041   6.032  29.007  0.1623  0.1068 -0.0617
   24SAPC  H16X 3240   2.105   5.955  28.958 -1.5181 -2.4042  1.4201
   24SAPC  H16Y 3241   2.096   6.062  29.098  1.7386 -0.2652 -0.8612
   24SAPC  C317 3242   2.020   6.147  28.905 -0.6796  0.3251  0.3041
   24SAPC  H17X 3243   2.120   6.179  28.870 -0.6869 -1.2703 -1.3446
   24SAPC  H17Y 3244   1.979   6.236  28.957  0.8078  1.5202 -0.4863
   24SAPC  C318 3245   1.931   6.110  28.787 -0.8371  0.0059 -0.6289
   24SAPC  H18X 3246   1.920   6.197  28.719 -1.2396 -1.2636 -2.2763
   24SAPC  H18Y 3247   1.829   6.076  28.813 -0.7760 -0.7868 -1.3779
   24SAPC  H18Z 3248   1.972   6.031  28.720  2.7283  3.6144 -3.2287
   25SAPC     N 3249   0.974   1.925  18.454 -0.6143 -0.1010 -0.2445
   25SAPC   C12 3250   1.009   1.801  18.376 -1.4866 -0.0290  0.1776
   25SAPC  H12A 3251   1.075   1.829  18.295 -1.4046 -3.0321 -0.8964
   25SAPC  H12B 3252   0.928   1.752  18.326 -1.1512  0.4671 -0.8963
   25SAPC   C13 3253   0.911   1.890  18.584  0.3831 -0.2115  1.0294
   25SAPC  H13A 3254   0.866   1.976  18.632 -0.6441 -0.9399  1.3980
   25SAPC  H13B 3255   0.828   1.822  18.569 -1.3379  1.7055  1.3941
   25SAPC  H13C 3256   0.992   1.851  18.643  1.1909 -2.7910 -1.5260
   25SAPC   C14 3257   1.092   2.013  18.490  0.9461  0.6249  0.1344
   25SAPC  H14A 3258   1.122   2.069  18.403  0.0124  0.4694 -0.2982
   25SAPC  H14B 3259   1.074   2.085  18.569 -0.0769 -0.4708  0.9407
   25SAPC  H14C 3260   1.175   1.951  18.521 -1.1351 -2.2541  0.3512
   25SAPC   C15 3261   0.875   2.006  18.368 -0.0040  0.0342 -0.5941
   25SAPC  H15A 3262   0.793   1.943  18.335 -0.7670 -1.1540  3.1584
   25SAPC  H15B 3263   0.839   2.088  18.427  3.5129  1.0840  0.3353
   25SAPC  H15C 3264   0.938   2.048  18.291  1.7025 -2.3075 -0.5704
   25SAPC   C11 3265   1.097   1.697  18.449  0.0780  0.1644  0.0568
   25SAPC  H11A 3266   1.137   1.620  18.380 -1.7612  0.3491 -1.2675
   25SAPC  H11B 3267   1.046   1.636  18.526 -0.0411  2.9546  2.3642
   25SAPC     P 3268   1.279   1.733  18.644 -0.0522  0.0649 -0.0921
   25SAPC   O13 3269   1.404   1.812  18.652 -0.8475 -0.0223  0.7719
   25SAPC   O14 3270   1.180   1.764  18.747 -0.1345 -0.4415 -0.1559
   25SAPC   O12 3271   1.214   1.765  18.500  0.2335 -0.6053 -0.0948
   25SAPC   O11 3272   1.302   1.582  18.634 -0.1306 -0.3690 -0.3573
   25SAPC    C1 3273   1.235   1.485  18.714  0.4601  0.1677 -0.1711
   25SAPC    HA 3274   1.263   1.504  18.820 -0.8390 -1.0991  0.4302
   25SAPC    HB 3275   1.124   1.494  18.712  0.6050  2.7590  0.3322
   25SAPC    C2 3276   1.272   1.342  18.668  0.9747  0.1584  0.4212
   25SAPC    HS 3277   1.226   1.259  18.726  1.0999 -0.8823 -0.9028
   25SAPC   O21 3278   1.411   1.325  18.663 -0.8397  0.8312  0.0595
   25SAPC   C21 3279   1.465   1.302  18.788 -0.1850 -0.1041 -0.0730
   25SAPC   O22 3280   1.406   1.295  18.890 -0.3133 -0.3376 -0.6141
   25SAPC   C22 3281   1.620   1.277  18.777 -0.1896  0.5364 -0.3731
   25SAPC   H2R 3282   1.634   1.175  18.736 -0.8673 -1.2659  3.4121
   25SAPC   H2S 3283   1.666   1.339  18.697  0.5198 -0.1433 -0.5045
   25SAPC    C3 3284   1.212   1.318  18.518 -0.4897 -0.2885 -0.7193
   25SAPC    HX 3285   1.274   1.366  18.440 -1.4493  0.5330 -0.9929
   25SAPC    HY 3286   1.111   1.364  18.510 -1.1602 -1.8838 -1.8526
   25SAPC   O31 3287   1.204   1.179  18.485  0.5761  0.3045  0.1897
   25SAPC   C31 3288   1.082   1.137  18.451 -0.0609 -0.4697  0.4992
   25SAPC   O32 3289   0.989   1.215  18.418 -0.6330  0.5557  0.1891
   25SAPC   C32 3290   1.090   0.985  18.426 -0.8056  0.5747  0.5590
   25SAPC   H2X 3291   1.165   0.940  18.494  1.2978 -2.3957 -3.2759
   25SAPC   H2Y 3292   1.117   0.971  18.319 -1.3034  2.5498  0.1443
   25SAPC   C23 3293   1.685   1.287  18.918  0.2041 -0.2158 -0.2400
   25SAPC   H3R 3294   1.630   1.207  18.973 -0.9471 -0.3721 -1.5554
   25SAPC   H3S 3295   1.664   1.392  18.950  0.0764  0.1578 -1.4876
   25SAPC   C24 3296   1.838   1.263  18.934  0.3065  0.3214 -0.1516
   25SAPC   H4R 3297   1.857   1.159  18.898 -0.9162  0.3673 -1.0262
   25SAPC   H4S 3298   1.853   1.265  19.044  0.2857  1.0419 -0.1575
   25SAPC   C25 3299   1.918   1.372  18.873  0.3534  0.5476 -0.1862
   25SAPC   H5R 3300   1.925   1.469  18.925 -0.6643 -0.0333  1.0976
   25SAPC   C26 3301   1.967   1.356  18.749 -0.3486  0.6317  0.7956
   25SAPC   H6R 3302   2.014   1.443  18.702 -1.9892  1.5661  0.8207
   25SAPC   C27 3303   1.953   1.242  18.647 -0.0208  0.7670 -0.3453
   25SAPC   H7R 3304   1.896   1.159  18.695 -0.5070  0.2522 -1.7772
   25SAPC   H7S 3305   2.054   1.200  18.630  0.2119  0.2680  1.9403
   25SAPC   C28 3306   1.892   1.274  18.514  0.3949  0.7282 -0.2105
   25SAPC   H8R 3307   1.825   1.361  18.512 -1.4239 -0.6328 -0.0022
   25SAPC   C29 3308   1.895   1.201  18.406 -0.0457  0.3745 -0.0864
   25SAPC   H9R 3309   1.841   1.231  18.315 -1.1074 -1.8224 -0.2485
   25SAPC  C210 3310   1.980   1.083  18.375 -0.0988 -0.4756 -0.5766
   25SAPC  H10R 3311   1.918   1.021  18.306  1.2264 -0.9743 -1.3481
   25SAPC  H10S 3312   2.004   1.021  18.465 -0.6001  2.9219  2.1041
   25SAPC  C211 3313   2.103   1.125  18.302  0.4079 -1.3268  0.1936
   25SAPC  H11R 3314   2.082   1.200  18.224 -1.0977 -1.2509  0.6245
   25SAPC  C212 3315   2.223   1.083  18.330 -0.0173  0.1247  0.0518
   25SAPC  H12R 3316   2.307   1.099  18.261 -0.4750 -1.1798 -0.8416
   25SAPC  C213 3317   2.258   0.984  18.443  0.6171 -0.4509 -0.0074
   25SAPC  H13R 3318   2.173   0.916  18.467  1.7801 -1.3965  1.5842
   25SAPC  H13S 3319   2.259   1.036  18.541  1.0573 -0.5263  0.0268
   25SAPC  C214 3320   2.384   0.907  18.409  0.0977 -0.0766 -0.8699
   25SAPC  H14R 3321   2.370   0.817  18.348  0.0002 -0.0837 -0.8383
   25SAPC  C215 3322   2.511   0.927  18.451  0.7011 -0.2063 -0.0958
   25SAPC  H15R 3323   2.592   0.867  18.408 -0.5556  0.1731 -3.2752
   25SAPC  C216 3324   2.543   1.046  18.545  0.3507  0.0054  0.1659
   25SAPC  H16R 3325   2.487   1.138  18.521 -0.3720 -0.5771 -0.4497
   25SAPC  H16S 3326   2.649   1.068  18.519 -0.5039  2.8172 -1.3171
   25SAPC  C217 3327   2.529   1.003  18.693 -0.1758 -0.1734 -0.2212
   25SAPC  H17R 3328   2.581   0.905  18.700 -1.3919 -0.9677 -1.7402
   25SAPC  H17S 3329   2.428   0.977  18.731 -0.3068  0.1365 -0.3508
   25SAPC  C218 3330   2.594   1.106  18.790  0.3366 -0.1584 -0.1974
   25SAPC  H18R 3331   2.553   1.209  18.796 -0.4233 -0.4827  0.2936
   25SAPC  H18S 3332   2.698   1.114  18.752  0.7078 -2.9388  0.0338
   25SAPC  C219 3333   2.607   1.041  18.934 -0.1128 -0.1161 -0.0985
   25SAPC  H19R 3334   2.645   0.937  18.927  1.6060  0.5610 -3.2551
   25SAPC  H19S 3335   2.508   1.047  18.984  1.3669  0.2944  3.0229
   25SAPC  C220 3336   2.708   1.108  19.033  0.1240 -0.8135  0.2421
   25SAPC  H20R 3337   2.687   1.217  19.040 -0.4481 -0.9785  1.4178
   25SAPC  H20S 3338   2.813   1.092  18.998  0.9972  0.2612  2.1830
   25SAPC  H20T 3339   2.705   1.064  19.135  0.7478 -1.1899  0.1042
   25SAPC   C33 3340   0.950   0.916  18.451  0.2549 -0.5372  0.2626
   25SAPC   H3X 3341   0.861   0.956  18.399  1.0723 -0.3074 -0.9813
   25SAPC   H3Y 3342   0.926   0.935  18.558 -1.2442 -1.4978  0.1297
   25SAPC   C34 3343   0.944   0.767  18.426  0.2444  0.3655 -0.3387
   25SAPC   H4X 3344   0.925   0.757  18.318 -1.6691  1.1680 -0.1191
   25SAPC   H4Y 3345   0.863   0.717  18.483  0.6681 -0.4111 -0.4137
   25SAPC   C35 3346   1.071   0.681  18.447  0.1554  0.1219 -0.0166
   25SAPC   H5X 3347   1.161   0.721  18.396  0.8275  0.4637  1.3625
   25SAPC   H5Y 3348   1.063   0.579  18.402  1.2759  0.1145 -0.2347
   25SAPC   C36 3349   1.094   0.661  18.598 -0.6005 -0.5759  0.3347
   25SAPC   H6X 3350   1.047   0.740  18.659  2.0058  0.7545  0.7772
   25SAPC   H6Y 3351   1.201   0.689  18.612 -0.7406  0.0730  0.1407
   25SAPC   C37 3352   1.072   0.521  18.658 -0.6997  1.4036 -0.4212
   25SAPC   H7X 3353   1.121   0.531  18.758 -1.5413 -1.8574  0.4390
   25SAPC   H7Y 3354   1.118   0.444  18.593 -0.8080  1.2425 -0.3094
   25SAPC   C38 3355   0.922   0.482  18.673 -0.6554  0.3162  0.0997
   25SAPC   H8X 3356   0.878   0.477  18.571  0.1491  0.6651 -0.2721
   25SAPC   H8Y 3357   0.867   0.556  18.734 -1.4001 -0.0400 -0.1314
   25SAPC   C39 3358   0.920   0.346  18.755  0.1644 -0.7031  0.5468
   25SAPC   H9X 3359   0.815   0.313  18.770 -0.5138  0.0593 -1.9528
   25SAPC   H9Y 3360   0.966   0.369  18.853 -0.5748 -3.1086  1.5135
   25SAPC  C310 3361   0.979   0.223  18.699 -0.5080  0.4620  0.8597
   25SAPC  H10X 3362   1.085   0.243  18.671 -0.2926 -1.1304  0.4543
   25SAPC  H10Y 3363   0.912   0.204  18.612  2.0364 -1.2615 -0.8624
   25SAPC  C311 3364   0.996   0.098  18.781  0.5808  0.0356  0.9745
   25SAPC  H11X 3365   1.024   0.008  18.721 -0.7976 -1.2080  2.1303
   25SAPC  H11Y 3366   0.889   0.083  18.804  0.7721 -1.6726  0.8427
   25SAPC  C312 3367   1.075   0.101  18.911  0.4173  0.0082  0.1451
   25SAPC  H12X 3368   1.010   0.151  18.986 -0.7563 -0.0970 -0.7782
   25SAPC  H12Y 3369   1.164   0.167  18.896  1.8558 -1.5359  1.4164
   25SAPC  C313 3370   1.118  -0.040  18.961 -0.2963 -0.1273 -1.2773
   25SAPC  H13X 3371   1.162  -0.033  19.062 -0.8229 -1.9329 -0.8810
   25SAPC  H13Y 3372   1.201  -0.077  18.897  2.6717  0.7463  1.7906
   25SAPC  C314 3373   1.003  -0.151  18.956  0.3126  0.3818  0.5306
   25SAPC  H14X 3374   1.049  -0.249  18.979 -1.2293 -1.0339 -1.8929
   25SAPC  H14Y 3375   0.971  -0.143  18.849  1.2606 -0.2573  0.1854
   25SAPC  C315 3376   0.880  -0.133  19.046 -0.6208  0.0224 -1.1807
   25SAPC  H15X 3377   0.821  -0.043  19.018 -3.5487 -0.9631  1.2497
   25SAPC  H15Y 3378   0.926  -0.112  19.145  1.0488  1.4020 -2.1945
   25SAPC  C316 3379   0.803  -0.265  19.044  0.7454  0.3742 -0.3289
   25SAPC  H16X 3380   0.806  -0.306  18.941  3.2230  2.2670 -1.1191
   25SAPC  H16Y 3381   0.697  -0.250  19.072  1.6660  1.6485  2.9324
   25SAPC  C317 3382   0.865  -0.377  19.125  0.8353  0.5024 -0.8701
   25SAPC  H17X 3383   0.835  -0.374  19.231  0.4275  1.0635 -0.9921
   25SAPC  H17Y 3384   0.976  -0.381  19.118  1.0427  1.3536  1.2110
   25SAPC  C318 3385   0.815  -0.514  19.072  0.0214 -0.2250 -0.6365
   25SAPC  H18X 3386   0.706  -0.532  19.084  0.7297 -3.6311  2.6787
   25SAPC  H18Y 3387   0.872  -0.595  19.124 -2.5894  0.4233  3.7229
   25SAPC  H18Z 3388   0.840  -0.517  18.964  0.5110 -0.1357 -0.5282
   26SAPC     N 3389   2.003   2.455  21.599  0.1685  0.0436 -0.2889
   26SAPC   C12 3390   2.058   2.442  21.741  0.1016  0.1722 -0.1230
   26SAPC  H12A 3391   2.148   2.383  21.737  0.4509  0.7121 -0.2065
   26SAPC  H12B 3392   1.986   2.384  21.798  1.0185 -1.4177 -0.5113
   26SAPC   C13 3393   1.989   2.314  21.538 -0.5101 -0.2065 -0.6502
   26SAPC  H13A 3394   2.074   2.249  21.555 -1.1999 -0.9674 -0.0191
   26SAPC  H13B 3395   1.911   2.261  21.591  0.9140 -2.7151 -0.9067
   26SAPC  H13C 3396   1.966   2.313  21.432  3.0020  1.1943 -1.5663
   26SAPC   C14 3397   1.871   2.529  21.602  0.4581  0.3483  0.8418
   26SAPC  H14A 3398   1.885   2.618  21.661  0.9924  1.2728 -0.6461
   26SAPC  H14B 3399   1.838   2.549  21.502  0.5255 -0.0287  0.7404
   26SAPC  H14C 3400   1.802   2.456  21.642  0.8067 -1.0353 -0.9511
   26SAPC   C15 3401   2.103   2.531  21.520 -0.6189 -0.9209 -0.2973
   26SAPC  H15A 3402   2.096   2.541  21.412 -1.0628 -0.0107 -0.1943
   26SAPC  H15B 3403   2.107   2.630  21.564 -1.8841  0.5775 -3.2164
   26SAPC  H15C 3404   2.200   2.487  21.536  0.3392  0.6244 -1.5082
   26SAPC   C11 3405   2.086   2.575  21.822 -0.3116 -0.1017 -1.0816
   26SAPC  H11A 3406   2.151   2.642  21.762 -1.0023  1.3007 -0.3102
   26SAPC  H11B 3407   2.141   2.532  21.908 -1.2340 -2.6427 -1.6872
   26SAPC     P 3408   1.874   2.581  21.985  0.1401 -0.3112 -0.3038
   26SAPC   O13 3409   1.737   2.619  21.964 -0.7954 -0.0102  0.1677
   26SAPC   O14 3410   1.903   2.437  21.999  0.0575  0.3558 -0.6102
   26SAPC   O12 3411   1.964   2.635  21.861 -0.5197  0.6137 -0.2671
   26SAPC   O11 3412   1.921   2.668  22.111  0.3890  0.0117 -0.1223
   26SAPC    C1 3413   2.000   2.786  22.098  0.6481  0.4626  0.1673
   26SAPC    HA 3414   2.098   2.763  22.144 -0.0100 -1.2456  0.8079
   26SAPC    HB 3415   2.023   2.819  21.995 -1.3437  3.8437  0.6681
   26SAPC    C2 3416   1.929   2.898  22.172  1.0240  0.1153  0.1145
   26SAPC    HS 3417   1.869   2.867  22.260 -0.3859 -2.2967 -1.5859
   26SAPC   O21 3418   1.842   2.967  22.076  0.1616  0.6529  0.3117
   26SAPC   C21 3419   1.708   2.953  22.088  0.0567 -0.6358 -0.1700
   26SAPC   O22 3420   1.660   2.902  22.188  0.1624 -0.3525  0.5222
   26SAPC   C22 3421   1.628   2.996  21.966  0.8445  0.0565 -0.2038
   26SAPC   H2R 3422   1.676   2.958  21.873  1.6964 -1.4926  0.8179
   26SAPC   H2S 3423   1.537   2.935  21.988  1.7742 -1.0334  0.7762
   26SAPC    C3 3424   2.044   2.996  22.226 -0.0153  0.7585 -0.0258
   26SAPC    HX 3425   2.108   3.011  22.136  0.1278 -0.6503 -0.1885
   26SAPC    HY 3426   2.109   2.956  22.307 -0.7992 -0.4703  0.0236
   26SAPC   O31 3427   1.985   3.124  22.277  0.3666  0.1436 -0.2984
   26SAPC   C31 3428   2.033   3.237  22.232  0.0336  0.3944  0.5362
   26SAPC   O32 3429   2.094   3.253  22.127  0.7082 -0.0782  0.4700
   26SAPC   C32 3430   1.983   3.357  22.319 -0.0844 -1.4136 -0.2502
   26SAPC   H2X 3431   1.908   3.335  22.399  0.6289 -1.1483  0.5078
   26SAPC   H2Y 3432   1.934   3.429  22.249  2.3206  1.3843  0.7283
   26SAPC   C23 3433   1.619   3.153  21.959  0.1661  0.6895  0.4484
   26SAPC   H3R 3434   1.713   3.204  21.930 -0.5577  2.2800  0.7840
   26SAPC   H3S 3435   1.605   3.190  22.063  1.7784 -0.2801  1.0442
   26SAPC   C24 3436   1.516   3.209  21.858 -0.4058  0.3470  0.1216
   26SAPC   H4R 3437   1.521   3.319  21.871  1.8023  0.1160  1.6613
   26SAPC   H4S 3438   1.416   3.170  21.889 -0.1929 -0.8900 -0.6966
   26SAPC   C25 3439   1.539   3.175  21.711 -0.6427  0.0697  0.5029
   26SAPC   H5R 3440   1.512   3.072  21.687  0.5179 -0.8348  2.8207
   26SAPC   C26 3441   1.588   3.255  21.617 -0.5301  0.5081  0.0631
   26SAPC   H6R 3442   1.603   3.219  21.514  0.5422  1.0802  0.0001
   26SAPC   C27 3443   1.660   3.391  21.635 -0.5737 -0.0647  0.0155
   26SAPC   H7R 3444   1.601   3.464  21.694  1.0167 -0.6954  2.5954
   26SAPC   H7S 3445   1.660   3.437  21.535  3.2071  0.0179 -0.1059
   26SAPC   C28 3446   1.802   3.394  21.693  0.0839  1.2177  0.6329
   26SAPC   H8R 3447   1.864   3.308  21.664 -1.4818 -0.2353  1.4781
   26SAPC   C29 3448   1.844   3.465  21.806  0.3862  0.4620  0.7453
   26SAPC   H9R 3449   1.947   3.440  21.837 -0.5334 -3.4463  1.1581
   26SAPC  C210 3450   1.778   3.582  21.869 -0.1198 -0.6167 -0.8627
   26SAPC  H10R 3451   1.667   3.575  21.869 -0.0780 -1.3779  0.0338
   26SAPC  H10S 3452   1.806   3.670  21.806  1.8124  0.6645  1.6277
   26SAPC  C211 3453   1.826   3.608  22.010 -0.2630  0.2001  0.4153
   26SAPC  H11R 3454   1.892   3.531  22.052  0.2838 -0.1123 -0.9555
   26SAPC  C212 3455   1.810   3.714  22.085 -0.5058  0.1574 -0.2459
   26SAPC  H12R 3456   1.843   3.710  22.190  0.1175  0.2529 -0.4351
   26SAPC  C213 3457   1.731   3.838  22.053 -1.1215 -0.1789  0.5836
   26SAPC  H13R 3458   1.677   3.817  21.958  0.7256  0.0985 -0.5803
   26SAPC  H13S 3459   1.806   3.919  22.043 -0.2922 -1.0099 -0.1433
   26SAPC  C214 3460   1.642   3.890  22.171 -0.5587  0.7438 -0.1683
   26SAPC  H14R 3461   1.645   3.831  22.264  2.9027 -0.7360 -1.0753
   26SAPC  C215 3462   1.542   3.971  22.146  0.4720 -0.1610  0.0338
   26SAPC  H15R 3463   1.490   4.004  22.237  1.2417 -0.0739  0.4484
   26SAPC  C216 3464   1.499   4.047  22.018  0.3772  0.6462  0.3250
   26SAPC  H16R 3465   1.582   4.047  21.945 -0.2306 -0.5518 -0.3999
   26SAPC  H16S 3466   1.469   4.151  22.041 -3.6515  0.0397 -1.3388
   26SAPC  C217 3467   1.375   3.974  21.963 -0.2848  1.0576 -0.6130
   26SAPC  H17R 3468   1.290   3.975  22.035  0.2176 -0.4384  0.0333
   26SAPC  H17S 3469   1.404   3.875  21.923 -0.4426  0.3327  1.0117
   26SAPC  C218 3470   1.300   4.051  21.854  0.1572  0.4202 -0.8782
   26SAPC  H18R 3471   1.372   4.092  21.780  2.3230  1.3026  1.5799
   26SAPC  H18S 3472   1.245   4.138  21.896 -1.4461  0.0155 -2.0501
   26SAPC  C219 3473   1.193   3.964  21.781  0.0624 -0.0838  0.4765
   26SAPC  H19R 3474   1.231   3.862  21.759 -2.4949 -1.4294  1.8563
   26SAPC  H19S 3475   1.185   4.009  21.680 -0.0711 -1.5451 -0.1845
   26SAPC  C220 3476   1.060   3.945  21.840 -0.3382 -0.0154  0.6248
   26SAPC  H20R 3477   1.010   4.042  21.861 -0.5128  0.1365 -0.4336
   26SAPC  H20S 3478   1.062   3.884  21.933  1.4981 -0.3917  0.3764
   26SAPC  H20T 3479   1.000   3.882  21.771  1.0461 -2.8268  1.8082
   26SAPC   C33 3480   2.100   3.434  22.384  0.2127  0.4947  0.0947
   26SAPC   H3X 3481   2.052   3.529  22.416  1.0179  0.2393  2.2999
   26SAPC   H3Y 3482   2.175   3.463  22.308 -0.7510  0.6351 -0.8193
   26SAPC   C34 3483   2.168   3.361  22.499  0.5813  0.9228 -0.1325
   26SAPC   H4X 3484   2.254   3.298  22.468 -0.7942 -1.9392  1.4437
   26SAPC   H4Y 3485   2.104   3.292  22.557  0.7711 -1.4298 -2.5195
   26SAPC   C35 3486   2.228   3.467  22.600 -0.3089 -0.5299  0.7217
   26SAPC   H5X 3487   2.156   3.547  22.626  0.7897  1.2183 -1.3183
   26SAPC   H5Y 3488   2.316   3.518  22.555 -1.2633  0.4194 -0.1129
   26SAPC   C36 3489   2.282   3.407  22.730 -0.1879  0.4967  0.1781
   26SAPC   H6X 3490   2.370   3.343  22.706 -0.6650  0.7840 -2.6477
   26SAPC   H6Y 3491   2.208   3.347  22.787  1.3072 -2.7795 -1.0430
   26SAPC   C37 3492   2.331   3.519  22.836  0.5487 -0.1521  0.7129
   26SAPC   H7X 3493   2.359   3.476  22.935 -0.8497  1.5791  1.9306
   26SAPC   H7Y 3494   2.238   3.572  22.866  1.0199  0.8943  0.3749
   26SAPC   C38 3495   2.451   3.603  22.804  0.1000 -0.5682  0.1140
   26SAPC   H8X 3496   2.434   3.677  22.723  0.2621 -2.8496 -2.0801
   26SAPC   H8Y 3497   2.531   3.545  22.753 -0.1868 -0.3533 -0.5858
   26SAPC   C39 3498   2.493   3.690  22.924 -0.0894 -0.0005 -0.2034
   26SAPC   H9X 3499   2.403   3.713  22.984 -1.0087  0.4388 -1.6917
   26SAPC   H9Y 3500   2.531   3.784  22.880 -0.7464  1.2618  1.8325
   26SAPC  C310 3501   2.595   3.615  23.012  0.8529 -0.0067 -0.2151
   26SAPC  H10X 3502   2.678   3.582  22.946  0.9009 -0.5696  0.1222
   26SAPC  H10Y 3503   2.542   3.526  23.051  0.7295 -0.1842 -0.7795
   26SAPC  C311 3504   2.646   3.710  23.123  0.6222 -0.3078 -0.2024
   26SAPC  H11X 3505   2.559   3.752  23.178  1.8184  1.1110  0.6610
   26SAPC  H11Y 3506   2.699   3.799  23.083 -1.7546  0.5936 -1.5962
   26SAPC  C312 3507   2.745   3.642  23.209 -0.0075  0.1113  0.2037
   26SAPC  H12X 3508   2.828   3.611  23.143 -0.2624  2.4322 -1.3226
   26SAPC  H12Y 3509   2.690   3.554  23.249 -1.2618  0.9096  0.3312
   26SAPC  C313 3510   2.795   3.742  23.312  0.6832  0.0678  0.6065
   26SAPC  H13X 3511   2.841   3.830  23.262 -1.4453 -0.4519 -2.5091
   26SAPC  H13Y 3512   2.874   3.698  23.378  1.2594  1.8468  1.1434
   26SAPC  C314 3513   2.684   3.790  23.411  0.1388  0.6966 -0.0314
   26SAPC  H14X 3514   2.643   3.696  23.454  1.6315 -2.1913 -4.2650
   26SAPC  H14Y 3515   2.604   3.838  23.350  0.8819  1.3751 -0.4949
   26SAPC  C315 3516   2.739   3.895  23.504 -0.0802 -0.4652  0.1702
   26SAPC  H15X 3517   2.767   3.981  23.439 -1.5629 -0.8457 -1.0402
   26SAPC  H15Y 3518   2.832   3.856  23.550  0.1143  0.9894  1.0870
   26SAPC  C316 3519   2.645   3.949  23.614 -0.1937  0.6085 -0.9730
   26SAPC  H16X 3520   2.557   4.003  23.573 -1.8782 -0.2325  1.3120
   26SAPC  H16Y 3521   2.701   4.008  23.690 -0.7116  0.4765 -0.4835
   26SAPC  C317 3522   2.570   3.832  23.691 -0.3352  0.3183  0.7152
   26SAPC  H17X 3523   2.650   3.759  23.718 -1.9561 -0.6600  3.1888
   26SAPC  H17Y 3524   2.506   3.776  23.621 -0.7337  0.0892  1.2619
   26SAPC  C318 3525   2.484   3.880  23.808  0.3983 -0.5573  0.4179
   26SAPC  H18X 3526   2.546   3.927  23.887  1.3670 -0.5270 -0.3363
   26SAPC  H18Y 3527   2.424   3.799  23.855 -0.2050  0.8657  2.2227
   26SAPC  H18Z 3528   2.420   3.963  23.771  1.1857 -1.2758 -2.9625
   27SAPC     N 3529   3.380   1.747  19.025 -0.8247  0.3109  0.0918
   27SAPC   C12 3530   3.407   1.860  18.917 -0.3964 -0.4736 -0.1454
   27SAPC  H12A 3531   3.319   1.920  18.902 -1.6290 -2.1937 -0.0949
   27SAPC  H12B 3532   3.431   1.800  18.830  1.4923  0.1843 -0.1239
   27SAPC   C13 3533   3.292   1.646  18.971 -0.5995  0.8027  1.5552
   27SAPC  H13A 3534   3.342   1.601  18.887  0.3688  1.0869  1.9634
   27SAPC  H13B 3535   3.269   1.559  19.031 -1.5187 -0.6280 -0.7494
   27SAPC  H13C 3536   3.197   1.690  18.944 -0.2740  0.1379 -0.9511
   27SAPC   C14 3537   3.501   1.674  19.054 -0.9489  0.2768 -0.0138
   27SAPC  H14A 3538   3.582   1.735  19.091 -0.0392 -0.7689 -0.2319
   27SAPC  H14B 3539   3.480   1.595  19.124 -1.9446  1.8810  1.5888
   27SAPC  H14C 3540   3.545   1.631  18.966  0.5140  3.2535 -0.8732
   27SAPC   C15 3541   3.326   1.811  19.148 -0.6331 -0.2287 -0.3804
   27SAPC  H15A 3542   3.241   1.874  19.123  1.0197  1.3074 -2.5386
   27SAPC  H15B 3543   3.302   1.733  19.219 -0.7603 -3.4488 -3.6451
   27SAPC  H15C 3544   3.399   1.878  19.190  0.3750 -1.9598  0.7592
   27SAPC   C11 3545   3.522   1.959  18.932  0.5651 -0.5666  0.4834
   27SAPC  H11A 3546   3.524   2.023  18.842 -1.8509  1.5089  1.7632
   27SAPC  H11B 3547   3.618   1.905  18.943 -0.2979 -1.9435  1.5909
   27SAPC     P 3548   3.400   2.159  19.057  0.0905  0.1039  0.3312
   27SAPC   O13 3549   3.285   2.110  18.977 -0.0494 -0.0720 -0.1536
   27SAPC   O14 3550   3.379   2.180  19.200 -0.2058  0.0653 -0.4180
   27SAPC   O12 3551   3.499   2.040  19.046  0.4964 -0.0908  0.3861
   27SAPC   O11 3552   3.459   2.287  18.976 -0.9082  0.0400  0.9211
   27SAPC    C1 3553   3.604   2.311  18.983  0.0417 -0.2482 -0.2253
   27SAPC    HA 3554   3.640   2.292  19.086  1.2102 -2.9250 -1.0239
   27SAPC    HB 3555   3.658   2.239  18.918 -1.8130 -1.9318 -0.0165
   27SAPC    C2 3556   3.647   2.450  18.935 -0.0109  0.1845 -0.1635
   27SAPC    HS 3557   3.758   2.451  18.933 -0.0150  0.2607 -0.4827
   27SAPC   O21 3558   3.596   2.545  19.029  0.6416 -0.4771 -0.3547
   27SAPC   C21 3559   3.666   2.552  19.138 -0.3848 -0.0595  0.3220
   27SAPC   O22 3560   3.777   2.515  19.164 -0.0517 -0.2534  0.2423
   27SAPC   C22 3561   3.570   2.601  19.247 -0.2622 -0.5610 -0.2858
   27SAPC   H2R 3562   3.548   2.528  19.328 -1.1775  1.0368  0.9730
   27SAPC   H2S 3563   3.626   2.690  19.283  0.5743 -1.3335  0.3536
   27SAPC    C3 3564   3.586   2.494  18.801  0.0808  0.4140  0.5758
   27SAPC    HX 3565   3.477   2.471  18.809  0.0675  0.8477  1.7177
   27SAPC    HY 3566   3.632   2.425  18.726 -1.3869 -0.1407  0.1388
   27SAPC   O31 3567   3.605   2.639  18.779 -0.0793  0.3572  0.0975
   27SAPC   C31 3568   3.620   2.671  18.648 -0.6410 -0.9469 -0.0662
   27SAPC   O32 3569   3.617   2.599  18.555  0.0734 -0.1637  0.2141
   27SAPC   C32 3570   3.642   2.822  18.650 -0.0427 -0.4107 -0.6685
   27SAPC   H2X 3571   3.697   2.846  18.743  1.0889 -1.0124 -1.1591
   27SAPC   H2Y 3572   3.541   2.870  18.652 -0.6854 -1.7219 -0.3506
   27SAPC   C23 3573   3.431   2.638  19.199 -0.1681  0.1783  0.2127
   27SAPC   H3R 3574   3.373   2.543  19.203 -1.3777  0.7681 -2.0390
   27SAPC   H3S 3575   3.419   2.681  19.098  1.1809 -0.1143 -0.0819
   27SAPC   C24 3576   3.359   2.746  19.294 -0.0606  0.3697  0.2754
   27SAPC   H4R 3577   3.345   2.699  19.393 -2.4425  0.3863  0.0033
   27SAPC   H4S 3578   3.258   2.754  19.249 -0.6993  0.3963  1.6757
   27SAPC   C25 3579   3.432   2.879  19.296  0.2447  0.4561  0.8121
   27SAPC   H5R 3580   3.539   2.873  19.323  1.2596 -3.0377 -2.8596
   27SAPC   C26 3581   3.368   2.995  19.293 -0.4965  0.3011  0.4001
   27SAPC   H6R 3582   3.424   3.090  19.301  0.3766 -0.1573 -0.1545
   27SAPC   C27 3583   3.223   3.028  19.266  0.1550  0.4082  0.5910
   27SAPC   H7R 3584   3.175   2.929  19.255 -0.2282  0.6652 -0.1169
   27SAPC   H7S 3585   3.200   3.075  19.168 -2.3098 -1.8974 -0.0493
   27SAPC   C28 3586   3.162   3.108  19.379  0.4658  0.1999 -0.4210
   27SAPC   H8R 3587   3.203   3.101  19.481  1.2064  0.7336 -0.6666
   27SAPC   C29 3588   3.072   3.208  19.363 -0.1533 -0.3483 -0.3480
   27SAPC   H9R 3589   3.037   3.261  19.452  0.3023 -2.6163  1.2751
   27SAPC  C210 3590   3.024   3.252  19.223  0.5945  0.5699 -0.7639
   27SAPC  H10R 3591   2.917   3.279  19.231  1.1491  2.3517  3.8672
   27SAPC  H10S 3592   3.016   3.167  19.152 -2.7823  0.1443 -0.0237
   27SAPC  C211 3593   3.109   3.363  19.168  0.0436  0.0807 -1.2508
   27SAPC  H11R 3594   3.218   3.352  19.178 -0.2116 -2.8549 -0.7350
   27SAPC  C212 3595   3.059   3.455  19.074 -0.3035 -0.0282 -0.7110
   27SAPC  H12R 3596   3.125   3.533  19.033  0.8249  1.4820  3.4017
   27SAPC  C213 3597   2.920   3.476  19.036 -0.4263 -0.1919 -0.5429
   27SAPC  H13R 3598   2.886   3.571  19.082 -1.0035  0.1508 -1.6382
   27SAPC  H13S 3599   2.857   3.389  19.065 -0.0529 -0.1549  0.4170
   27SAPC  C214 3600   2.898   3.523  18.899 -0.3831 -0.0213  0.3672
   27SAPC  H14R 3601   2.899   3.631  18.879 -0.5951  0.3077  2.0322
   27SAPC  C215 3602   2.899   3.436  18.801 -0.9025  0.4698  0.3042
   27SAPC  H15R 3603   2.917   3.475  18.700 -0.5071 -1.9556 -0.6378
   27SAPC  C216 3604   2.905   3.287  18.831 -0.4272 -0.1270  0.2999
   27SAPC  H16R 3605   2.822   3.253  18.896  1.4633 -3.3898  1.2341
   27SAPC  H16S 3606   2.999   3.262  18.885  1.7515  1.6083 -2.3759
   27SAPC  C217 3607   2.875   3.205  18.704 -0.5655 -1.0889 -0.0982
   27SAPC  H17R 3608   2.931   3.239  18.614 -2.1644  2.8730  0.2032
   27SAPC  H17S 3609   2.766   3.213  18.689 -0.4656 -1.6834 -1.2675
   27SAPC  C218 3610   2.899   3.053  18.711 -0.0732 -0.7215 -0.5857
   27SAPC  H18R 3611   3.008   3.039  18.700 -0.1168  0.1882 -2.6462
   27SAPC  H18S 3612   2.850   3.001  18.625 -3.4600 -0.9827  1.3463
   27SAPC  C219 3613   2.846   2.986  18.836  0.5112  1.0782  0.5705
   27SAPC  H19R 3614   2.882   3.036  18.928 -0.4565 -2.1974  2.9025
   27SAPC  H19S 3615   2.892   2.885  18.836 -0.5631  0.5539 -0.6226
   27SAPC  C220 3616   2.693   2.958  18.837  0.3424  0.0422  0.3429
   27SAPC  H20R 3617   2.639   3.054  18.827 -1.0656 -0.3929  2.7997
   27SAPC  H20S 3618   2.652   2.912  18.930 -0.1185 -2.3438 -0.9592
   27SAPC  H20T 3619   2.664   2.893  18.752 -0.0935  1.0421 -0.2846
   27SAPC   C33 3620   3.723   2.886  18.532 -0.0470 -0.0042  0.4352
   27SAPC   H3X 3621   3.683   2.850  18.435 -1.1243  0.7281  0.5874
   27SAPC   H3Y 3622   3.824   2.840  18.541 -0.8062 -1.6378  0.9292
   27SAPC   C34 3623   3.720   3.038  18.527 -0.0192  0.9125  0.1181
   27SAPC   H4X 3624   3.615   3.073  18.522 -0.7639 -1.2798 -1.3067
   27SAPC   H4Y 3625   3.787   3.079  18.448  0.9425  2.6115  1.7442
   27SAPC   C35 3626   3.770   3.104  18.657 -0.1621 -0.4002 -0.4599
   27SAPC   H5X 3627   3.872   3.063  18.671  0.2855  1.0045  0.5793
   27SAPC   H5Y 3628   3.686   3.085  18.728  1.9177  4.2505  3.8884
   27SAPC   C36 3629   3.782   3.259  18.650  0.3069 -0.3747 -0.4616
   27SAPC   H6X 3630   3.676   3.293  18.642 -0.0984 -0.9086  1.8928
   27SAPC   H6Y 3631   3.827   3.280  18.550  0.4630 -1.1844 -0.5693
   27SAPC   C37 3632   3.858   3.316  18.767 -0.1880 -0.6647  0.3726
   27SAPC   H7X 3633   3.967   3.294  18.773  0.0912  0.5825  0.2981
   27SAPC   H7Y 3634   3.808   3.281  18.860 -0.2017  1.8934  1.4398
   27SAPC   C38 3635   3.849   3.464  18.775  0.2333  0.8200  0.6617
   27SAPC   H8X 3636   3.740   3.486  18.774 -0.0135 -0.0942 -2.0591
   27SAPC   H8Y 3637   3.893   3.509  18.683 -0.5355  0.9579  0.3550
   27SAPC   C39 3638   3.908   3.524  18.901 -0.9988 -0.1102 -0.1214
   27SAPC   H9X 3639   4.019   3.520  18.895 -1.0325 -4.0442 -0.6698
   27SAPC   H9Y 3640   3.875   3.460  18.987  0.0113  1.2892  1.3653
   27SAPC  C310 3641   3.855   3.667  18.922 -0.3512 -0.1686  0.0222
   27SAPC  H10X 3642   3.888   3.697  19.024 -2.4893  0.9175  0.4595
   27SAPC  H10Y 3643   3.744   3.673  18.935 -0.0374  0.0359  3.4011
   27SAPC  C311 3644   3.904   3.769  18.819 -0.0020  0.0209 -0.5645
   27SAPC  H11X 3645   3.873   3.738  18.716 -0.0669  0.3984 -0.6583
   27SAPC  H11Y 3646   4.015   3.773  18.821 -0.0223  0.8662 -0.7614
   27SAPC  C312 3647   3.850   3.914  18.848  0.0061 -0.8700  0.9894
   27SAPC  H12X 3648   3.907   3.946  18.937  0.7906 -2.0586  0.9344
   27SAPC  H12Y 3649   3.740   3.911  18.865 -0.2362 -1.7178 -0.5257
   27SAPC  C313 3650   3.882   4.023  18.740 -0.0826  0.3412 -0.3090
   27SAPC  H13X 3651   3.835   3.988  18.645 -1.0349  0.6097  0.0567
   27SAPC  H13Y 3652   3.992   4.036  18.733 -0.1430  0.2776 -1.7374
   27SAPC  C314 3653   3.820   4.156  18.777 -0.2129  0.3882  0.1686
   27SAPC  H14X 3654   3.889   4.196  18.854  0.0554 -1.3077  0.8510
   27SAPC  H14Y 3655   3.720   4.154  18.827 -0.1555 -1.3055  0.2670
   27SAPC  C315 3656   3.824   4.241  18.653 -0.8310 -0.6917 -0.5432
   27SAPC  H15X 3657   3.738   4.214  18.588 -0.2456 -1.5803 -0.9709
   27SAPC  H15Y 3658   3.923   4.233  18.603  0.6123  0.6359  1.9325
   27SAPC  C316 3659   3.801   4.392  18.685  0.1804 -0.0338  0.1237
   27SAPC  H16X 3660   3.893   4.423  18.738 -0.8451 -0.1344  2.0637
   27SAPC  H16Y 3661   3.712   4.399  18.751 -0.0260  0.2864 -0.1866
   27SAPC  C317 3662   3.781   4.476  18.547 -0.3191  0.1146 -0.6834
   27SAPC  H17X 3663   3.701   4.412  18.505 -1.3584  0.5146  0.5962
   27SAPC  H17Y 3664   3.877   4.491  18.493  0.3769  0.2052  0.5358
   27SAPC  C318 3665   3.720   4.616  18.560 -0.3089 -0.3142 -0.2145
   27SAPC  H18X 3666   3.670   4.647  18.466  1.0208 -0.8852 -1.1406
   27SAPC  H18Y 3667   3.790   4.696  18.592 -1.0076 -0.1857  1.0694
   27SAPC  H18Z 3668   3.648   4.604  18.644  0.2105 -2.5042 -0.0032
   28SAPC     N 3669   2.835   1.442  20.570  0.5127 -0.2450  0.2969
   28SAPC   C12 3670   2.812   1.592  20.542  0.0346  0.1927  0.2467
   28SAPC  H12A 3671   2.898   1.617  20.482  0.7232 -1.8144  0.3160
   28SAPC  H12B 3672   2.811   1.644  20.636 -0.4759  1.8484 -0.6268
   28SAPC   C13 3673   2.856   1.372  20.439  0.1688  0.1390  0.4529
   28SAPC  H13A 3674   2.871   1.265  20.453  0.8059 -0.1088 -1.7979
   28SAPC  H13B 3675   2.767   1.384  20.380 -0.9564 -1.4596  1.7173
   28SAPC  H13C 3676   2.946   1.404  20.390  1.2090 -1.5285  1.1574
   28SAPC   C14 3677   2.948   1.410  20.656  0.1179  0.1082 -0.5103
   28SAPC  H14A 3678   2.930   1.307  20.683  1.5204 -0.6782 -2.3544
   28SAPC  H14B 3679   3.036   1.421  20.593 -0.5966 -0.5369 -1.6589
   28SAPC  H14C 3680   2.948   1.475  20.742 -3.3041 -0.5566  0.1233
   28SAPC   C15 3681   2.707   1.400  20.637 -0.1853  0.6423  0.8006
   28SAPC  H15A 3682   2.711   1.293  20.649  1.7795  0.3824 -1.3454
   28SAPC  H15B 3683   2.693   1.454  20.729 -2.5038 -0.0500  0.9082
   28SAPC  H15C 3684   2.622   1.406  20.570  1.4196 -1.6619 -1.6705
   28SAPC   C11 3685   2.675   1.632  20.475 -0.3627  0.1797 -0.2244
   28SAPC  H11A 3686   2.690   1.731  20.427 -0.8035 -0.1579 -1.0726
   28SAPC  H11B 3687   2.597   1.667  20.546 -1.3239  0.1159 -1.2325
   28SAPC     P 3688   2.482   1.516  20.356  0.0891 -0.1023 -0.0784
   28SAPC   O13 3689   2.438   1.451  20.482  0.2728 -0.5797 -0.1647
   28SAPC   O14 3690   2.408   1.636  20.315  0.6232 -0.2705 -0.0237
   28SAPC   O12 3691   2.633   1.548  20.368 -0.4603  0.2318 -0.6376
   28SAPC   O11 3692   2.473   1.408  20.247 -0.2472 -0.6400  0.2415
   28SAPC    C1 3693   2.549   1.291  20.245  0.2883 -0.1981  0.3018
   28SAPC    HA 3694   2.640   1.321  20.189 -0.7979 -0.5741 -1.7828
   28SAPC    HB 3695   2.574   1.257  20.348 -1.4399 -0.2060  0.7414
   28SAPC    C2 3696   2.472   1.176  20.177 -0.1014 -0.2010  0.5212
   28SAPC    HS 3697   2.520   1.082  20.209 -1.5719 -1.5575 -1.0512
   28SAPC   O21 3698   2.474   1.182  20.032  0.3007  0.0777  0.1939
   28SAPC   C21 3699   2.587   1.149  19.970  0.2695 -0.1336  0.0082
   28SAPC   O22 3700   2.679   1.098  20.027 -0.3022 -0.0111 -0.2226
   28SAPC   C22 3701   2.591   1.200  19.829  0.0657  0.3480  0.2869
   28SAPC   H2R 3702   2.558   1.306  19.817 -1.3819 -0.1017  0.1352
   28SAPC   H2S 3703   2.695   1.191  19.790 -0.0536  0.4960 -0.0723
   28SAPC    C3 3704   2.317   1.173  20.231 -0.3705  0.6030  0.1449
   28SAPC    HX 3705   2.271   1.263  20.185 -2.2357  0.4342  1.5580
   28SAPC    HY 3706   2.309   1.194  20.340 -1.3917 -0.7826  0.3651
   28SAPC   O31 3707   2.255   1.044  20.199 -0.0752 -0.1612  0.1429
   28SAPC   C31 3708   2.133   1.038  20.161 -1.0862  0.0096  0.1740
   28SAPC   O32 3709   2.055   1.131  20.148  0.2289  0.4117 -0.1980
   28SAPC   C32 3710   2.097   0.894  20.145 -0.3796  0.3851  0.0091
   28SAPC   H2X 3711   2.004   0.875  20.203 -0.5063  2.7436  0.6849
   28SAPC   H2Y 3712   2.176   0.830  20.190 -1.8437 -0.1856  1.8981
   28SAPC   C23 3713   2.507   1.113  19.730  0.3546  0.6565 -0.0501
   28SAPC   H3R 3714   2.405   1.117  19.774 -0.5945 -2.2270 -1.7077
   28SAPC   H3S 3715   2.527   1.003  19.728  1.6819  0.8030  1.9188
   28SAPC   C24 3716   2.515   1.159  19.587 -0.3155 -0.0998  0.8554
   28SAPC   H4R 3717   2.428   1.114  19.534 -1.1968 -0.0611  2.2211
   28SAPC   H4S 3718   2.497   1.269  19.581  0.6087  0.0963  1.5058
   28SAPC   C25 3719   2.654   1.125  19.524  0.8965  0.3220 -0.0107
   28SAPC   H5R 3720   2.737   1.197  19.531 -0.5895  2.0860  0.1776
   28SAPC   C26 3721   2.691   1.010  19.467  1.2057  0.4136  0.2160
   28SAPC   H6R 3722   2.789   1.001  19.419 -1.0260 -1.5396 -4.6294
   28SAPC   C27 3723   2.604   0.887  19.460 -0.6770 -0.2466  0.7111
   28SAPC   H7R 3724   2.502   0.912  19.423  0.7914  2.1386 -2.1029
   28SAPC   H7S 3725   2.588   0.855  19.566 -0.0696 -1.5579  0.4322
   28SAPC   C28 3726   2.661   0.764  19.389 -0.0584 -0.3730 -0.2509
   28SAPC   H8R 3727   2.763   0.733  19.416  0.5240  0.3137 -1.5432
   28SAPC   C29 3728   2.605   0.683  19.300 -0.1174  0.0155 -0.0084
   28SAPC   H9R 3729   2.663   0.598  19.260  1.4313  1.7176 -1.5806
   28SAPC  C210 3730   2.469   0.704  19.233  0.7025  0.4096  0.4592
   28SAPC  H10R 3731   2.478   0.799  19.176  1.5877 -1.1190 -2.1312
   28SAPC  H10S 3732   2.390   0.717  19.310  0.7929  2.1960  0.2926
   28SAPC  C211 3733   2.424   0.602  19.127 -0.2189  0.0242 -0.1502
   28SAPC  H11R 3734   2.441   0.631  19.022  1.0954  2.9110  0.7795
   28SAPC  C212 3735   2.382   0.475  19.157  0.3397 -0.1525 -0.0859
   28SAPC  H12R 3736   2.342   0.404  19.083  2.0061 -1.7404  0.4498
   28SAPC  C213 3737   2.347   0.438  19.304  0.2927  0.9526  0.6270
   28SAPC  H13R 3738   2.253   0.492  19.329  0.4188  0.2840  2.7347
   28SAPC  H13S 3739   2.421   0.482  19.374  1.1826 -0.5434  0.6833
   28SAPC  C214 3740   2.320   0.294  19.332  0.2270 -0.6702 -0.3781
   28SAPC  H14R 3741   2.225   0.264  19.287 -0.0740 -0.2766 -0.0237
   28SAPC  C215 3742   2.381   0.220  19.425  0.0809 -0.1413  0.1596
   28SAPC  H15R 3743   2.354   0.113  19.423  0.6676 -0.2890 -0.9905
   28SAPC  C216 3744   2.506   0.257  19.505 -0.2469  0.0760 -0.4068
   28SAPC  H16R 3745   2.493   0.323  19.593  1.5108  1.6539 -1.2605
   28SAPC  H16S 3746   2.581   0.314  19.445 -0.1299  1.6618  1.1638
   28SAPC  C217 3747   2.576   0.130  19.558 -0.4449  0.0917  0.0645
   28SAPC  H17R 3748   2.510   0.073  19.627 -0.3448 -1.4377 -1.0402
   28SAPC  H17S 3749   2.665   0.169  19.611  0.6304 -2.3272  0.2059
   28SAPC  C218 3750   2.621   0.031  19.449  0.5439  0.3556  0.5067
   28SAPC  H18R 3751   2.672   0.099  19.376  0.9160  0.7898  1.1634
   28SAPC  H18S 3752   2.536  -0.020  19.399  0.5638  1.7604 -1.0936
   28SAPC  C219 3753   2.733  -0.058  19.500  0.6131  0.2054  0.0996
   28SAPC  H19R 3754   2.826  -0.001  19.521 -0.2382  1.5714  0.2934
   28SAPC  H19S 3755   2.744  -0.122  19.410  2.3708  1.3719 -0.5657
   28SAPC  C220 3756   2.694  -0.139  19.624  0.0918 -0.1217  0.2485
   28SAPC  H20R 3757   2.679  -0.068  19.707 -0.5764  1.1694 -0.9426
   28SAPC  H20S 3758   2.770  -0.218  19.644  0.8533 -0.6028 -3.7492
   28SAPC  H20T 3759   2.600  -0.196  19.609 -0.5752  1.3103 -1.2631
   28SAPC   C33 3760   2.079   0.849  19.996 -0.0537  0.6428  0.6650
   28SAPC   H3X 3761   2.180   0.855  19.950  0.4012 -1.1108  1.3750
   28SAPC   H3Y 3762   2.008   0.916  19.943  1.4292  0.5957 -1.5098
   28SAPC   C34 3763   2.038   0.700  19.981 -0.3360 -0.7052 -0.5880
   28SAPC   H4X 3764   2.083   0.635  20.059 -1.0025 -0.1344  0.2938
   28SAPC   H4Y 3765   2.083   0.658  19.888  0.1218  0.2877 -0.8271
   28SAPC   C35 3766   1.890   0.675  19.982  0.9900  0.2542 -0.0634
   28SAPC   H5X 3767   1.838   0.748  19.916  4.0401  1.1060 -1.7104
   28SAPC   H5Y 3768   1.861   0.697  20.087 -0.2459  0.8820 -0.5218
   28SAPC   C36 3769   1.833   0.531  19.956 -0.6154  0.3160 -0.2757
   28SAPC   H6X 3770   1.844   0.480  20.054 -0.5222  2.1322  0.7132
   28SAPC   H6Y 3771   1.887   0.483  19.872 -2.9518 -1.7679 -0.6938
   28SAPC   C37 3772   1.682   0.528  19.927 -0.5385  0.3187  0.8128
   28SAPC   H7X 3773   1.674   0.591  19.836  2.3939  1.0196  0.9180
   28SAPC   H7Y 3774   1.628   0.573  20.012  0.4985  1.1394  1.0625
   28SAPC   C38 3775   1.639   0.379  19.906 -0.6691  0.5327  0.4420
   28SAPC   H8X 3776   1.699   0.336  19.823 -2.7464  1.3676 -1.6215
   28SAPC   H8Y 3777   1.534   0.380  19.870 -0.3021  3.0218 -0.7677
   28SAPC   C39 3778   1.635   0.283  20.031  0.6580 -0.3265  0.8165
   28SAPC   H9X 3779   1.569   0.319  20.113 -1.3412 -2.2917  0.1724
   28SAPC   H9Y 3780   1.738   0.267  20.070 -0.3271 -2.4181  2.7504
   28SAPC  C310 3781   1.594   0.140  20.002 -0.0165  0.1910 -0.0160
   28SAPC  H10X 3782   1.632   0.062  20.072 -1.2182 -0.7255 -0.3446
   28SAPC  H10Y 3783   1.635   0.115  19.902  2.3410 -0.4063  1.0258
   28SAPC  C311 3784   1.438   0.118  19.976 -0.1545  0.1704  0.0709
   28SAPC  H11X 3785   1.401   0.170  19.885  0.8612  0.2993 -0.2801
   28SAPC  H11Y 3786   1.372   0.156  20.057 -0.2773 -2.7565  1.4689
   28SAPC  C312 3787   1.411  -0.031  19.962 -0.3512  0.2821  0.2037
   28SAPC  H12X 3788   1.301  -0.040  19.943  0.0382 -1.4689 -1.7082
   28SAPC  H12Y 3789   1.435  -0.094  20.050 -2.8236 -0.6954  0.2727
   28SAPC  C313 3790   1.470  -0.106  19.845 -0.5402  0.5982 -0.6458
   28SAPC  H13X 3791   1.573  -0.086  19.811 -0.3428 -0.0789 -0.4648
   28SAPC  H13Y 3792   1.414  -0.080  19.753 -1.2506  2.2979  0.2317
   28SAPC  C314 3793   1.449  -0.259  19.849 -0.5242  0.6590 -0.5467
   28SAPC  H14X 3794   1.509  -0.305  19.932  0.8636 -0.2818 -2.0160
   28SAPC  H14Y 3795   1.508  -0.298  19.763 -1.3157 -1.4460 -0.2035
   28SAPC  C315 3796   1.310  -0.307  19.857 -0.3625 -0.3029 -0.2974
   28SAPC  H15X 3797   1.256  -0.299  19.761 -0.5595 -0.0290 -0.1635
   28SAPC  H15Y 3798   1.256  -0.245  19.932 -0.4817  0.0723 -0.6932
   28SAPC  C316 3799   1.308  -0.457  19.894 -0.3049 -0.3494 -0.2754
   28SAPC  H16X 3800   1.345  -0.472  19.998  0.2657  1.9578 -0.1038
   28SAPC  H16Y 3801   1.367  -0.514  19.819  1.7246  1.3759 -0.0986
   28SAPC  C317 3802   1.160  -0.503  19.900  0.4452 -0.0815 -0.1796
   28SAPC  H17X 3803   1.101  -0.451  19.822  1.2972  1.3518  0.0942
   28SAPC  H17Y 3804   1.114  -0.486  20.000  0.0171 -0.6340 -0.2751
   28SAPC  C318 3805   1.138  -0.654  19.889  0.2574  0.6334  0.2867
   28SAPC  H18X 3806   1.033  -0.686  19.900  1.0450 -1.7888  1.4286
   28SAPC  H18Y 3807   1.195  -0.705  19.970 -1.2546 -1.0532  0.3492
   28SAPC  H18Z 3808   1.180  -0.703  19.798 -1.5545 -0.4695 -0.0024
   29SAPC     N 3809   2.468   1.815  22.459 -0.0047 -0.1380 -0.5766
   29SAPC   C12 3810   2.569   1.759  22.559  0.2657  0.0131 -0.0831
   29SAPC  H12A 3811   2.617   1.681  22.502  0.2593  1.5967 -2.3891
   29SAPC  H12B 3812   2.535   1.733  22.658  1.3650  0.8574  0.5465
   29SAPC   C13 3813   2.399   1.929  22.528 -0.1861 -0.8333  0.7910
   29SAPC  H13A 3814   2.480   1.992  22.562 -1.0032  0.0138  1.2009
   29SAPC  H13B 3815   2.324   1.979  22.469  0.2645 -2.4745 -1.3234
   29SAPC  H13C 3816   2.359   1.896  22.622 -1.7517  2.5039  1.4238
   29SAPC   C14 3817   2.526   1.858  22.328  0.4641 -0.4252  0.0171
   29SAPC  H14A 3818   2.589   1.776  22.295  0.2922 -0.3926 -0.3886
   29SAPC  H14B 3819   2.446   1.866  22.256  1.1932  0.7042 -0.6846
   29SAPC  H14C 3820   2.596   1.940  22.333  0.8433 -0.7938  1.1385
   29SAPC   C15 3821   2.358   1.713  22.441 -0.2749 -0.7128 -0.5856
   29SAPC  H15A 3822   2.296   1.702  22.529 -2.3573  0.4329 -1.8368
   29SAPC  H15B 3823   2.288   1.755  22.370 -1.2848 -0.3798  0.5784
   29SAPC  H15C 3824   2.380   1.621  22.389 -1.5061  0.1316 -2.7627
   29SAPC   C11 3825   2.679   1.872  22.597  0.5424 -0.2936 -0.8084
   29SAPC  H11A 3826   2.726   1.925  22.512  2.3911 -0.9791 -0.2831
   29SAPC  H11B 3827   2.763   1.814  22.641  0.0338  0.1396  0.7848
   29SAPC     P 3828   2.712   2.075  22.753  0.0978 -0.1292  0.1519
   29SAPC   O13 3829   2.647   2.198  22.701 -0.0309 -0.4273 -0.1537
   29SAPC   O14 3830   2.709   2.059  22.900  0.0245 -0.4701  0.6194
   29SAPC   O12 3831   2.620   1.956  22.698  0.1581 -0.1619  0.2360
   29SAPC   O11 3832   2.863   2.051  22.698  0.8073  0.0270  0.4450
   29SAPC    C1 3833   2.929   2.152  22.616  0.4631 -0.5414 -0.3678
   29SAPC    HA 3834   2.856   2.205  22.551 -1.6715  0.2267  2.4756
   29SAPC    HB 3835   2.986   2.222  22.679  0.7149  1.2211 -2.4457
   29SAPC    C2 3836   3.028   2.093  22.513  0.0421 -0.0715 -0.4728
   29SAPC    HS 3837   2.966   2.016  22.464 -0.5383 -1.2278  1.8928
   29SAPC   O21 3838   3.131   2.031  22.590 -0.4384 -0.3290  0.3758
   29SAPC   C21 3839   3.215   1.960  22.526  0.5671 -0.1184  1.2106
   29SAPC   O22 3840   3.212   1.938  22.403  0.1935 -0.2436  0.0809
   29SAPC   C22 3841   3.327   1.904  22.621  0.4132 -0.0623  0.0042
   29SAPC   H2R 3842   3.395   1.832  22.570  0.4674 -0.7435  1.0136
   29SAPC   H2S 3843   3.396   1.988  22.643 -0.6088  0.5696  0.9004
   29SAPC    C3 3844   3.079   2.200  22.415 -0.4612  0.1779  0.1041
   29SAPC    HX 3845   2.985   2.228  22.363 -1.1801 -1.1162  0.6563
   29SAPC    HY 3846   3.147   2.152  22.342  0.3949  0.0387  0.9805
   29SAPC   O31 3847   3.137   2.308  22.483 -0.6004  0.5789 -0.4827
   29SAPC   C31 3848   3.272   2.312  22.489  0.6421 -0.1408  0.0651
   29SAPC   O32 3849   3.347   2.253  22.414  0.3673  0.2274 -0.4122
   29SAPC   C32 3850   3.322   2.391  22.603  0.1946  0.4304 -0.2201
   29SAPC   H2X 3851   3.310   2.335  22.698  2.7715  0.8259  0.4000
   29SAPC   H2Y 3852   3.263   2.485  22.603  0.5726  0.7200 -2.3675
   29SAPC   C23 3853   3.269   1.845  22.761 -1.0378 -0.5009 -1.0816
   29SAPC   H3R 3854   3.207   1.755  22.744 -2.1675  0.2994 -1.3015
   29SAPC   H3S 3855   3.211   1.911  22.828 -0.2834 -0.3563 -0.5495
   29SAPC   C24 3856   3.386   1.796  22.848 -0.9365 -1.7533  0.0047
   29SAPC   H4R 3857   3.349   1.791  22.953 -0.1617 -0.2526  0.3760
   29SAPC   H4S 3858   3.453   1.884  22.854 -2.7748 -0.3533  0.8792
   29SAPC   C25 3859   3.459   1.669  22.805  0.4614 -0.8059 -0.5456
   29SAPC   H5R 3860   3.493   1.676  22.701 -0.9568  1.0202 -0.9354
   29SAPC   C26 3861   3.490   1.565  22.879  0.9867  0.1293 -0.3618
   29SAPC   H6R 3862   3.532   1.473  22.836 -0.5167  0.0517 -1.7575
   29SAPC   C27 3863   3.460   1.558  23.026  0.1841 -0.0112  0.1761
   29SAPC   H7R 3864   3.521   1.636  23.076 -0.7154  1.2356 -0.6195
   29SAPC   H7S 3865   3.505   1.461  23.060 -0.2027  0.0131  0.7699
   29SAPC   C28 3866   3.316   1.566  23.078  0.3408 -0.4546  0.0803
   29SAPC   H8R 3867   3.235   1.561  23.003 -1.3497  1.8611  1.6213
   29SAPC   C29 3868   3.288   1.587  23.210  0.5303 -0.4035 -0.4420
   29SAPC   H9R 3869   3.182   1.615  23.224 -0.2396 -3.0738 -0.3268
   29SAPC  C210 3870   3.380   1.600  23.331  0.3776  0.0544 -0.6224
   29SAPC  H10R 3871   3.345   1.693  23.381 -1.9785 -1.9297  1.7615
   29SAPC  H10S 3872   3.482   1.619  23.292 -0.1679  0.3852 -1.9540
   29SAPC  C211 3873   3.370   1.481  23.425  0.0005  0.3391 -0.2869
   29SAPC  H11R 3874   3.396   1.389  23.370 -3.4341 -0.4809 -0.8060
   29SAPC  C212 3875   3.321   1.476  23.550 -0.2948  0.4315 -0.5743
   29SAPC  H12R 3876   3.317   1.374  23.591 -1.8515  0.6771 -0.0483
   29SAPC  C213 3877   3.272   1.581  23.639  0.1477 -0.0046  1.2646
   29SAPC  H13R 3878   3.171   1.617  23.611 -0.5321 -2.5571  0.2087
   29SAPC  H13S 3879   3.322   1.677  23.612 -0.0919 -0.0129  0.7697
   29SAPC  C214 3880   3.286   1.555  23.785 -0.0814 -0.7951  0.4563
   29SAPC  H14R 3881   3.305   1.455  23.826 -0.8104  0.4968  4.3839
   29SAPC  C215 3882   3.264   1.646  23.878  0.1394 -0.0499  0.3116
   29SAPC  H15R 3883   3.275   1.610  23.981  1.7524 -1.6239 -0.3445
   29SAPC  C216 3884   3.223   1.794  23.864 -0.0136 -0.3191 -0.7099
   29SAPC  H16R 3885   3.149   1.822  23.942  1.2038  1.4330 -0.1182
   29SAPC  H16S 3886   3.184   1.807  23.761 -1.6684 -2.6797 -0.4566
   29SAPC  C217 3887   3.334   1.896  23.891 -0.0929  0.0645 -1.4035
   29SAPC  H17R 3888   3.427   1.872  23.835  0.4278  0.3472 -0.6809
   29SAPC  H17S 3889   3.372   1.892  23.995 -1.5603 -0.6776 -0.8788
   29SAPC  C218 3890   3.300   2.043  23.862  0.9269 -0.3870 -0.0118
   29SAPC  H18R 3891   3.380   2.117  23.885  0.0170  0.4732  0.4262
   29SAPC  H18S 3892   3.209   2.074  23.917  1.6891  0.4891  0.7923
   29SAPC  C219 3893   3.269   2.071  23.715  0.0279  0.3538  0.3141
   29SAPC  H19R 3894   3.173   2.025  23.685  0.5253  0.0941 -0.9468
   29SAPC  H19S 3895   3.350   2.021  23.658  1.8142  1.3900  1.8142
   29SAPC  C220 3896   3.265   2.218  23.680  0.7578 -0.3019  0.5433
   29SAPC  H20R 3897   3.194   2.279  23.740  0.9362 -1.4114  1.9587
   29SAPC  H20S 3898   3.224   2.232  23.578 -1.4259  1.7563  1.6034
   29SAPC  H20T 3899   3.363   2.270  23.688  0.1945  0.6333  1.6450
   29SAPC   C33 3900   3.462   2.444  22.577 -0.9044 -0.0789 -0.4380
   29SAPC   H3X 3901   3.472   2.496  22.480 -1.9225  0.2224 -0.3970
   29SAPC   H3Y 3902   3.531   2.357  22.570 -0.2896  0.0167  2.6896
   29SAPC   C34 3903   3.519   2.535  22.688  0.2111  0.0190 -0.6334
   29SAPC   H4X 3904   3.629   2.546  22.680  0.3953 -0.6958  0.6533
   29SAPC   H4Y 3905   3.503   2.487  22.787 -0.3175 -0.6941 -1.0507
   29SAPC   C35 3906   3.462   2.678  22.698  0.4740  1.1762 -0.2600
   29SAPC   H5X 3907   3.351   2.682  22.696  0.3373  1.2480  2.6645
   29SAPC   H5Y 3908   3.509   2.728  22.611  1.7904  1.9345  0.8432
   29SAPC   C36 3909   3.501   2.763  22.815 -0.1470  0.3579  0.0459
   29SAPC   H6X 3910   3.612   2.773  22.815 -0.2772  2.1253 -0.2431
   29SAPC   H6Y 3911   3.452   2.723  22.907 -0.2608 -0.6411 -0.4378
   29SAPC   C37 3912   3.446   2.901  22.791 -0.5240 -0.5337 -0.1854
   29SAPC   H7X 3913   3.340   2.888  22.760 -0.8815  0.1943  0.6767
   29SAPC   H7Y 3914   3.487   2.955  22.703 -2.3892 -0.1392 -0.8625
   29SAPC   C38 3915   3.452   2.998  22.919  0.0097 -0.2431  0.9333
   29SAPC   H8X 3916   3.556   2.989  22.956  0.2219 -0.4342  0.3049
   29SAPC   H8Y 3917   3.378   2.972  22.998 -0.6420 -0.1265  0.3703
   29SAPC   C39 3918   3.420   3.141  22.863 -0.3615 -0.2318 -0.3716
   29SAPC   H9X 3919   3.311   3.161  22.853  0.0669  1.4189 -2.2745
   29SAPC   H9Y 3920   3.476   3.165  22.770 -0.0553 -0.3733 -0.2258
   29SAPC  C310 3921   3.480   3.256  22.957  0.8433  0.0610 -0.4081
   29SAPC  H10X 3922   3.467   3.347  22.895 -2.0078 -1.0204 -1.5969
   29SAPC  H10Y 3923   3.589   3.250  22.979  1.1316  1.2694 -1.4309
   29SAPC  C311 3924   3.403   3.271  23.092  0.2654  0.3572  0.1936
   29SAPC  H11X 3925   3.417   3.196  23.172 -2.9024  0.0435  0.5643
   29SAPC  H11Y 3926   3.294   3.271  23.068 -0.1023  1.9439  1.6397
   29SAPC  C312 3927   3.419   3.407  23.153 -0.1624  0.2195  0.4529
   29SAPC  H12X 3928   3.519   3.422  23.200 -0.2678  1.8925  0.1876
   29SAPC  H12Y 3929   3.353   3.410  23.243  2.6237 -0.2860  2.6816
   29SAPC  C313 3930   3.375   3.514  23.058 -0.2657 -0.2598  0.1593
   29SAPC  H13X 3931   3.288   3.485  22.995  0.0540 -1.3380  0.1846
   29SAPC  H13Y 3932   3.461   3.536  22.992 -0.2053 -0.1395  0.2787
   29SAPC  C314 3933   3.347   3.643  23.134 -0.4484  0.2649 -0.0317
   29SAPC  H14X 3934   3.431   3.677  23.198 -1.1857  1.3436  0.4047
   29SAPC  H14Y 3935   3.271   3.612  23.210  1.0708  0.5064  1.6597
   29SAPC  C315 3936   3.285   3.750  23.049 -0.5930 -0.6172  0.5286
   29SAPC  H15X 3937   3.181   3.728  23.018 -0.7456  1.1063 -0.3191
   29SAPC  H15Y 3938   3.338   3.759  22.951 -0.8806 -1.4826  0.2895
   29SAPC  C316 3939   3.280   3.879  23.124  0.3838 -0.2540 -0.5175
   29SAPC  H16X 3940   3.281   3.972  23.064  1.5076  0.7506  0.9635
   29SAPC  H16Y 3941   3.373   3.883  23.184  0.1247  1.3932 -0.1659
   29SAPC  C317 3942   3.172   3.863  23.228 -0.4407 -0.0824  0.4078
   29SAPC  H17X 3943   3.177   3.776  23.297  0.7993 -2.1285 -2.0865
   29SAPC  H17Y 3944   3.081   3.856  23.163 -0.0594  0.8710 -0.2412
   29SAPC  C318 3945   3.162   3.992  23.313  0.4612  0.5206 -0.5236
   29SAPC  H18X 3946   3.222   3.977  23.405  0.1775  0.2348 -0.3830
   29SAPC  H18Y 3947   3.058   4.005  23.350  0.0241 -0.9899 -1.1578
   29SAPC  H18Z 3948   3.189   4.089  23.267  0.0371  2.6974  3.3324
   30SAPC     N 3949   1.278   2.015  20.558  0.4837  0.3399  0.1064
   30SAPC   C12 3950   1.239   2.155  20.526  0.2875 -0.6581  0.3578
   30SAPC  H12A 3951   1.302   2.227  20.576  0.5333 -0.4867 -0.1901
   30SAPC  H12B 3952   1.133   2.169  20.543  0.3047  1.0152 -0.6507
   30SAPC   C13 3953   1.426   1.987  20.535  0.1536 -0.0900  0.5705
   30SAPC  H13A 3954   1.437   2.011  20.430 -1.3694 -1.5330  0.0304
   30SAPC  H13B 3955   1.473   2.045  20.613  0.6210  1.0576 -0.5426
   30SAPC  H13C 3956   1.446   1.883  20.556  1.7692  0.5257  2.3555
   30SAPC   C14 3957   1.265   1.989  20.705 -0.1176  0.0720  0.1346
   30SAPC  H14A 3958   1.169   2.024  20.738 -0.2601 -0.3033  0.1273
   30SAPC  H14B 3959   1.291   1.889  20.737 -1.8706 -0.0281  1.3712
   30SAPC  H14C 3960   1.333   2.049  20.763  1.1725 -1.2478  0.0786
   30SAPC   C15 3961   1.207   1.915  20.472  0.3316  0.4799 -0.1887
   30SAPC  H15A 3962   1.225   1.817  20.513 -0.9472 -1.1279 -3.1613
   30SAPC  H15B 3963   1.099   1.924  20.477  0.4836  1.9416  1.4640
   30SAPC  H15C 3964   1.237   1.913  20.369 -1.7179  3.2809 -0.9753
   30SAPC   C11 3965   1.238   2.200  20.372  0.3341 -0.0216 -0.9569
   30SAPC  H11A 3966   1.204   2.306  20.365 -0.9506 -0.3034  0.7364
   30SAPC  H11B 3967   1.151   2.141  20.338 -0.9463  0.4416  1.3542
   30SAPC     P 3968   1.378   2.120  20.173 -0.0882  0.1669  0.5619
   30SAPC   O13 3969   1.522   2.109  20.146  0.0615 -0.2742  0.1719
   30SAPC   O14 3970   1.304   1.997  20.174  0.2083 -0.2928 -0.3874
   30SAPC   O12 3971   1.365   2.182  20.309 -0.1274 -0.3378 -0.3137
   30SAPC   O11 3972   1.308   2.225  20.073  0.5666  0.0329 -0.7563
   30SAPC    C1 3973   1.351   2.358  20.063 -0.0521  0.5945 -0.0053
   30SAPC    HA 3974   1.365   2.409  20.161  1.4299  1.3301 -0.5725
   30SAPC    HB 3975   1.453   2.359  20.021 -0.0316 -0.4541 -0.0157
   30SAPC    C2 3976   1.245   2.431  19.982  0.6372 -0.8900 -0.3399
   30SAPC    HS 3977   1.231   2.375  19.887 -0.3688 -1.7384  0.2782
   30SAPC   O21 3978   1.286   2.564  19.954  0.2544 -0.4320 -0.3962
   30SAPC   C21 3979   1.366   2.590  19.854 -0.1325 -0.1191 -0.2306
   30SAPC   O22 3980   1.401   2.507  19.771  0.0177  0.1618  0.3072
   30SAPC   C22 3981   1.410   2.735  19.856 -0.2355 -0.2976  0.4053
   30SAPC   H2R 3982   1.437   2.761  19.961  1.4397 -0.0865 -0.0516
   30SAPC   H2S 3983   1.493   2.757  19.786  0.6248 -0.9648  1.1871
   30SAPC    C3 3984   1.104   2.430  20.047  1.2460 -0.1943 -0.1276
   30SAPC    HX 3985   1.108   2.450  20.156  1.0140 -2.9946  0.4699
   30SAPC    HY 3986   1.068   2.325  20.059 -0.1264  0.2161 -0.5220
   30SAPC   O31 3987   1.014   2.523  19.972 -0.2500  0.1277  0.1686
   30SAPC   C31 3988   0.953   2.464  19.867 -0.5998 -0.1971  0.1030
   30SAPC   O32 3989   0.977   2.360  19.820  0.5533  0.0252 -0.2131
   30SAPC   C32 3990   0.841   2.558  19.825 -0.5748  0.1711  0.4256
   30SAPC   H2X 3991   0.746   2.506  19.852 -1.2656  1.8084  1.2795
   30SAPC   H2Y 3992   0.846   2.569  19.714  0.5461 -0.6196  0.3777
   30SAPC   C23 3993   1.292   2.833  19.821  0.3422  0.0120 -0.0960
   30SAPC   H3R 3994   1.233   2.841  19.915  2.8665 -1.1029  1.7058
   30SAPC   H3S 3995   1.230   2.790  19.739  0.8370  1.3337 -1.1971
   30SAPC   C24 3996   1.343   2.970  19.773 -0.6186  0.2205  0.3412
   30SAPC   H4R 3997   1.421   2.954  19.696 -0.0362  1.0105  0.7401
   30SAPC   H4S 3998   1.392   3.012  19.864 -0.9875 -2.8463  2.0718
   30SAPC   C25 3999   1.250   3.058  19.690  0.0485 -0.0433 -0.3930
   30SAPC   H5R 4000   1.149   3.015  19.681  0.2308 -1.1666  2.1180
   30SAPC   C26 4001   1.289   3.164  19.615  0.2853 -0.3038 -1.4899
   30SAPC   H6R 4002   1.221   3.206  19.539  0.3091  0.4241 -1.1155
   30SAPC   C27 4003   1.421   3.242  19.615 -0.5507 -1.0300 -0.5326
   30SAPC   H7R 4004   1.474   3.199  19.702 -3.5166 -2.4970  0.7023
   30SAPC   H7S 4005   1.392   3.342  19.653 -2.5185 -0.9582 -2.0446
   30SAPC   C28 4006   1.497   3.235  19.487  0.4922 -0.1267 -0.2475
   30SAPC   H8R 4007   1.552   3.140  19.480 -1.4691 -1.4448  1.2413
   30SAPC   C29 4008   1.498   3.321  19.383 -0.1467  0.1680 -1.0507
   30SAPC   H9R 4009   1.570   3.301  19.302  1.9791  2.5694  0.0962
   30SAPC  C210 4010   1.436   3.463  19.374  0.1418 -0.0433 -0.2695
   30SAPC  H10R 4011   1.406   3.510  19.470 -1.1427  1.0616 -1.1763
   30SAPC  H10S 4012   1.329   3.452  19.346 -0.1245  0.2439  0.6071
   30SAPC  C211 4013   1.496   3.555  19.274  0.5143 -0.2541  0.0916
   30SAPC  H11R 4014   1.469   3.532  19.170  0.9889  0.4040 -0.1864
   30SAPC  C212 4015   1.552   3.677  19.297 -0.3913  0.3711  0.0635
   30SAPC  H12R 4016   1.589   3.728  19.207 -0.0071 -0.6509 -0.3744
   30SAPC  C213 4017   1.583   3.751  19.427 -0.4512  0.0852 -0.5861
   30SAPC  H13R 4018   1.507   3.725  19.504  0.0014 -0.0594 -0.1836
   30SAPC  H13S 4019   1.576   3.861  19.409  1.6931 -0.0448 -2.6236
   30SAPC  C214 4020   1.725   3.719  19.477 -0.2279  0.1255 -0.4554
   30SAPC  H14R 4021   1.753   3.615  19.454  2.5058  0.4811  0.9298
   30SAPC  C215 4022   1.820   3.791  19.544 -0.4226  0.5775  0.0773
   30SAPC  H15R 4023   1.917   3.747  19.571  0.3073  0.3718 -2.5228
   30SAPC  C216 4024   1.810   3.936  19.586 -0.7696 -0.2561 -0.7856
   30SAPC  H16R 4025   1.813   3.944  19.696 -0.0189  0.5493 -0.8599
   30SAPC  H16S 4026   1.711   3.979  19.560  0.1439  1.8261 -0.9776
   30SAPC  C217 4027   1.911   4.032  19.526 -0.3980  0.3176  0.5350
   30SAPC  H17R 4028   1.903   4.026  19.415  1.8246  0.7795  0.3027
   30SAPC  H17S 4029   2.019   4.018  19.549 -0.0052  1.1424 -0.6711
   30SAPC  C218 4030   1.887   4.183  19.553 -0.3932  0.3595  0.0509
   30SAPC  H18R 4031   1.863   4.210  19.658  0.7636  2.5440 -0.1890
   30SAPC  H18S 4032   1.802   4.212  19.488 -0.3665  0.2195 -0.0472
   30SAPC  C219 4033   2.008   4.276  19.509  0.4921 -0.1971 -0.0453
   30SAPC  H19R 4034   2.024   4.280  19.400 -0.1110 -1.3607 -0.1928
   30SAPC  H19S 4035   2.095   4.228  19.558  0.1633 -2.2558 -1.3592
   30SAPC  C220 4036   1.990   4.417  19.579 -0.0448 -0.1220 -0.2236
   30SAPC  H20R 4037   2.086   4.468  19.559  1.0160 -1.5940  0.8992
   30SAPC  H20S 4038   1.970   4.406  19.688 -0.6011 -1.2979 -0.4224
   30SAPC  H20T 4039   1.903   4.469  19.534  1.1961  2.5273  0.2947
   30SAPC   C33 4040   0.834   2.700  19.895  0.3667  0.6748  0.2075
   30SAPC   H3X 4041   0.933   2.750  19.888  2.2087 -2.6230  0.5911
   30SAPC   H3Y 4042   0.824   2.688  20.005  0.5502 -0.2110  0.1359
   30SAPC   C34 4043   0.721   2.782  19.827  0.4079  0.3128 -0.1744
   30SAPC   H4X 4044   0.628   2.726  19.806 -0.5840  1.3967  1.0928
   30SAPC   H4Y 4045   0.763   2.826  19.734  1.2093 -0.4984 -0.2014
   30SAPC   C35 4046   0.668   2.902  19.908 -0.4960 -0.8998  0.3536
   30SAPC   H5X 4047   0.622   2.873  20.004 -0.8322  0.9267  0.7862
   30SAPC   H5Y 4048   0.583   2.962  19.867 -1.8650 -2.3514  0.9684
   30SAPC   C36 4049   0.773   3.001  19.950 -0.2021  1.0501  0.6801
   30SAPC   H6X 4050   0.858   3.007  19.879  1.7413 -0.7967  2.6737
   30SAPC   H6Y 4051   0.813   2.977  20.051 -1.9128  0.4960  1.2644
   30SAPC   C37 4052   0.723   3.144  19.989  0.4733 -0.5232 -0.5643
   30SAPC   H7X 4053   0.639   3.143  20.062 -1.4727  2.1638 -2.5495
   30SAPC   H7Y 4054   0.685   3.189  19.895  0.2053 -1.6804 -1.0287
   30SAPC   C38 4055   0.839   3.233  20.038 -0.1114  0.3218 -0.3279
   30SAPC   H8X 4056   0.908   3.241  19.952  0.9015 -0.8886  0.3561
   30SAPC   H8Y 4057   0.881   3.178  20.125 -4.3163 -0.4925  1.4771
   30SAPC   C39 4058   0.808   3.383  20.069 -0.4686 -0.4132 -0.7056
   30SAPC   H9X 4059   0.907   3.430  20.092  0.0121 -2.1368  0.9620
   30SAPC   H9Y 4060   0.760   3.388  20.169 -0.6808  1.9926 -0.8611
   30SAPC  C310 4061   0.720   3.454  19.975 -0.1117  0.6320 -0.6596
   30SAPC  H10X 4062   0.638   3.381  19.962  1.1701 -0.8459 -0.6682
   30SAPC  H10Y 4063   0.771   3.468  19.877  0.5132  0.1717 -0.4037
   30SAPC  C311 4064   0.665   3.586  20.021 -0.2235 -0.3610 -0.0296
   30SAPC  H11X 4065   0.648   3.593  20.131  0.2714 -0.3508  0.0478
   30SAPC  H11Y 4066   0.569   3.606  19.969 -0.9571  1.4986  1.8997
   30SAPC  C312 4067   0.764   3.707  19.970  0.0054  0.7539 -0.0968
   30SAPC  H12X 4068   0.780   3.709  19.860 -0.1147 -0.5113 -0.1527
   30SAPC  H12Y 4069   0.862   3.672  20.009 -0.5873 -1.0329 -0.1138
   30SAPC  C313 4070   0.717   3.836  20.029  0.8677 -0.4361 -0.4831
   30SAPC  H13X 4071   0.809   3.898  20.022 -0.6272  1.8610 -0.8905
   30SAPC  H13Y 4072   0.684   3.834  20.135 -3.7144  1.4842 -1.6335
   30SAPC  C314 4073   0.593   3.896  19.957  0.2760 -0.1514  0.3374
   30SAPC  H14X 4074   0.544   3.966  20.028  1.1936 -0.9388  1.7838
   30SAPC  H14Y 4075   0.521   3.820  19.920 -2.6252  3.3471 -1.9076
   30SAPC  C315 4076   0.620   3.972  19.827  0.8893  0.6204  0.7261
   30SAPC  H15X 4077   0.690   3.924  19.755 -0.1065 -2.5221  1.6966
   30SAPC  H15Y 4078   0.672   4.066  19.853  1.6027 -0.1370  2.1554
   30SAPC  C316 4079   0.487   3.996  19.745  0.1366  0.2961  0.2166
   30SAPC  H16X 4080   0.450   3.903  19.695  0.7082 -1.3887  2.7469
   30SAPC  H16Y 4081   0.516   4.063  19.661  0.6328 -0.7657 -0.4797
   30SAPC  C317 4082   0.374   4.061  19.821 -0.3278  0.1082 -0.1056
   30SAPC  H17X 4083   0.368   4.021  19.924  0.6999  0.1598 -0.0162
   30SAPC  H17Y 4084   0.279   4.050  19.764 -2.1430  0.3762  2.6985
   30SAPC  C318 4085   0.375   4.213  19.843 -0.4838 -0.6880 -0.9277
   30SAPC  H18X 4086   0.287   4.239  19.906  0.9521  1.1725  0.4253
   30SAPC  H18Y 4087   0.369   4.275  19.751 -0.5910 -0.2279 -0.6152
   30SAPC  H18Z 4088   0.463   4.240  19.905 -0.5751 -0.6207 -0.8285
   31SAPC     N 4089   1.536   1.908  18.300 -0.0334 -0.7338 -0.1470
   31SAPC   C12 4090   1.631   1.940  18.189  0.4259  0.6440 -0.6139
   31SAPC  H12A 4091   1.566   1.954  18.103 -1.9508 -0.2678  0.9281
   31SAPC  H12B 4092   1.682   1.847  18.170 -1.7467 -0.1721 -3.1462
   31SAPC   C13 4093   1.450   2.025  18.332  0.9590  0.0160 -0.7397
   31SAPC  H13A 4094   1.514   2.093  18.387  0.1541 -0.1848  0.4832
   31SAPC  H13B 4095   1.419   2.073  18.241 -0.4511 -0.8413 -0.7320
   31SAPC  H13C 4096   1.364   2.001  18.393 -0.0081  0.4542 -1.9147
   31SAPC   C14 4097   1.436   1.803  18.246 -0.6954 -0.2678 -0.9337
   31SAPC  H14A 4098   1.478   1.706  18.224 -1.4546 -0.9510  0.5282
   31SAPC  H14B 4099   1.352   1.801  18.313 -0.2820 -0.4396 -0.4113
   31SAPC  H14C 4100   1.397   1.846  18.155 -0.2523  2.3928  0.0367
   31SAPC   C15 4101   1.600   1.858  18.425 -0.3686  0.1321  0.6838
   31SAPC  H15A 4102   1.541   1.846  18.514  0.3960  0.3263  1.2214
   31SAPC  H15B 4103   1.663   1.776  18.396  0.5241  1.4466 -1.4000
   31SAPC  H15C 4104   1.679   1.928  18.448 -1.5126  1.4366  0.8559
   31SAPC   C11 4105   1.717   2.065  18.201 -0.4278  0.0888 -0.4019
   31SAPC  H11A 4106   1.660   2.157  18.225  0.1427 -0.2431  2.6939
   31SAPC  H11B 4107   1.767   2.073  18.102 -0.6866  1.4336 -0.4519
   31SAPC     P 4108   1.924   2.141  18.349 -0.4808 -0.2462  0.3124
   31SAPC   O13 4109   2.004   2.089  18.460 -0.5303 -0.1229  0.0147
   31SAPC   O14 4110   2.002   2.175  18.227 -0.2752 -0.5642  0.7146
   31SAPC   O12 4111   1.806   2.046  18.315 -0.2429  0.6479  0.2392
   31SAPC   O11 4112   1.839   2.267  18.389 -0.0340  0.7725 -0.2840
   31SAPC    C1 4113   1.758   2.280  18.507 -0.1572  0.5060 -0.3878
   31SAPC    HA 4114   1.668   2.216  18.492  1.8176 -1.8686 -3.0209
   31SAPC    HB 4115   1.822   2.251  18.594  0.5674  2.0227 -0.3830
   31SAPC    C2 4116   1.718   2.433  18.534  0.0703  0.2382  0.2189
   31SAPC    HS 4117   1.623   2.428  18.592  0.5798  0.2464  1.0818
   31SAPC   O21 4118   1.709   2.499  18.407 -0.1507  0.4925  0.6347
   31SAPC   C21 4119   1.606   2.467  18.329  0.0006 -0.3434 -0.4556
   31SAPC   O22 4120   1.497   2.428  18.372  0.6348 -0.1614  0.1964
   31SAPC   C22 4121   1.637   2.494  18.183  0.2348 -1.1474  0.4836
   31SAPC   H2R 4122   1.704   2.583  18.189 -1.6677  0.5434 -1.2996
   31SAPC   H2S 4123   1.706   2.415  18.146 -0.1646 -0.5060 -1.8419
   31SAPC    C3 4124   1.816   2.513  18.619  0.4316  0.8468 -0.2827
   31SAPC    HX 4125   1.912   2.527  18.565  2.3237 -3.0765  1.6172
   31SAPC    HY 4126   1.836   2.446  18.705 -1.3755 -1.2534 -1.3872
   31SAPC   O31 4127   1.759   2.641  18.649 -0.3789 -0.0749 -0.7686
   31SAPC   C31 4128   1.716   2.658  18.774  0.0579 -0.0345  0.1872
   31SAPC   O32 4129   1.699   2.565  18.855  0.2417  0.1003  0.1889
   31SAPC   C32 4130   1.692   2.810  18.802 -0.6570  0.2582  0.6715
   31SAPC   H2X 4131   1.606   2.843  18.740  0.7419  1.8799 -0.5123
   31SAPC   H2Y 4132   1.779   2.869  18.767 -1.1113  1.1017  0.9526
   31SAPC   C23 4133   1.518   2.515  18.093 -0.4318  0.0176 -0.0539
   31SAPC   H3R 4134   1.435   2.442  18.107 -2.8759  2.2952 -1.6001
   31SAPC   H3S 4135   1.553   2.494  17.990 -0.2558 -0.6916  0.1414
   31SAPC   C24 4136   1.462   2.659  18.083  0.1015 -0.1274 -0.1065
   31SAPC   H4R 4137   1.372   2.654  18.018  0.3458  0.4521 -0.5103
   31SAPC   H4S 4138   1.538   2.727  18.038  1.4963 -1.3657  0.2770
   31SAPC   C25 4139   1.408   2.721  18.213  0.7224 -0.3204  0.6948
   31SAPC   H5R 4140   1.304   2.689  18.231  0.3865 -0.5990 -1.4719
   31SAPC   C26 4141   1.470   2.813  18.285  0.3059 -0.3207  0.3612
   31SAPC   H6R 4142   1.424   2.840  18.381  1.5449 -0.1352  0.9274
   31SAPC   C27 4143   1.601   2.874  18.260  0.5665  0.2234  0.9485
   31SAPC   H7R 4144   1.583   2.978  18.224 -1.4810 -0.6441 -0.7401
   31SAPC   H7S 4145   1.651   2.816  18.180  1.8461  0.4154  1.5836
   31SAPC   C28 4146   1.684   2.858  18.381  0.0785  0.4045  0.3974
   31SAPC   H8R 4147   1.698   2.753  18.412 -0.1019 -0.0470 -0.9801
   31SAPC   C29 4148   1.748   2.938  18.465  0.4679 -0.1518 -0.1471
   31SAPC   H9R 4149   1.800   2.896  18.553 -0.8939  0.9751  1.2586
   31SAPC  C210 4150   1.763   3.088  18.451 -0.7062  0.0188 -0.8423
   31SAPC  H10R 4151   1.730   3.131  18.354  2.7692  1.9837 -1.3429
   31SAPC  H10S 4152   1.870   3.118  18.442 -0.0629 -1.3262  1.4310
   31SAPC  C211 4153   1.708   3.166  18.569  0.0256 -0.6447  0.3963
   31SAPC  H11R 4154   1.785   3.198  18.641  0.0992  1.0204 -0.3895
   31SAPC  C212 4155   1.577   3.185  18.580 -0.4859 -0.2432 -0.4759
   31SAPC  H12R 4156   1.547   3.253  18.661  1.5701  0.0162  0.1382
   31SAPC  C213 4157   1.465   3.154  18.480 -0.6764  0.1956 -0.3963
   31SAPC  H13R 4158   1.460   3.043  18.470 -0.7691  0.3062 -1.6368
   31SAPC  H13S 4159   1.493   3.180  18.376  2.3832  0.5629  0.4285
   31SAPC  C214 4160   1.332   3.212  18.510  0.4440 -0.4605 -0.0495
   31SAPC  H14R 4161   1.284   3.273  18.432  1.7079 -0.9658 -1.2579
   31SAPC  C215 4162   1.255   3.169  18.612 -0.7381  0.1387  0.1045
   31SAPC  H15R 4163   1.152   3.206  18.620 -0.3091  1.1519  1.1374
   31SAPC  C216 4164   1.278   3.058  18.722  0.4001 -0.0232  0.6568
   31SAPC  H16R 4165   1.291   3.101  18.824  0.6728  0.0603  0.5854
   31SAPC  H16S 4166   1.374   3.009  18.697  0.5069  0.8468 -0.7444
   31SAPC  C217 4167   1.168   2.947  18.708 -0.3553  0.0537  0.4776
   31SAPC  H17R 4168   1.176   2.890  18.612 -3.1208  1.1658 -0.5298
   31SAPC  H17S 4169   1.067   2.993  18.699 -0.2398  0.2806  0.3229
   31SAPC  C218 4170   1.170   2.845  18.824  0.5691 -0.0140  0.2341
   31SAPC  H18R 4171   1.094   2.770  18.795  1.0614 -0.9859  1.3718
   31SAPC  H18S 4172   1.141   2.892  18.920  0.6402  0.1244  0.1873
   31SAPC  C219 4173   1.294   2.751  18.838 -0.0299  0.4364 -0.4632
   31SAPC  H19R 4174   1.291   2.693  18.933 -1.4367  0.5510 -0.4101
   31SAPC  H19S 4175   1.381   2.819  18.843 -0.4158  1.0472  5.2347
   31SAPC  C220 4176   1.311   2.639  18.730  0.1181  0.0879  0.2374
   31SAPC  H20R 4177   1.307   2.686  18.629 -0.4065  0.9541  0.6496
   31SAPC  H20S 4178   1.220   2.576  18.737  0.7477 -0.6458  2.5417
   31SAPC  H20T 4179   1.400   2.577  18.750 -0.8013 -0.5549  2.7060
   31SAPC   C33 4180   1.665   2.835  18.958  0.4142  1.0443 -0.2719
   31SAPC   H3X 4181   1.727   2.763  19.015 -1.7196  0.2064  1.1592
   31SAPC   H3Y 4182   1.559   2.813  18.984  0.0281  2.8509 -0.1895
   31SAPC   C34 4183   1.684   2.983  19.000  0.6243  0.4547  0.3175
   31SAPC   H4X 4184   1.789   3.007  18.974  2.0616 -2.7761  2.4557
   31SAPC   H4Y 4185   1.686   2.994  19.111  0.0633  1.6810  0.2258
   31SAPC   C35 4186   1.580   3.072  18.945  0.4256 -0.1019 -0.2298
   31SAPC   H5X 4187   1.474   3.044  18.961 -0.3183  0.3015 -3.7225
   31SAPC   H5Y 4188   1.593   3.090  18.837 -1.4017 -0.8907 -0.6203
   31SAPC   C36 4189   1.599   3.214  18.997 -0.7764  0.5034  0.1786
   31SAPC   H6X 4190   1.610   3.219  19.108 -2.2691 -1.4650  0.4708
   31SAPC   H6Y 4191   1.513   3.273  18.958 -0.1576 -0.8429 -3.5565
   31SAPC   C37 4192   1.720   3.295  18.933 -0.2122 -0.2785  0.0286
   31SAPC   H7X 4193   1.677   3.327  18.836 -2.3346 -0.2678  0.9164
   31SAPC   H7Y 4194   1.807   3.225  18.926 -0.0040  0.0388 -0.6758
   31SAPC   C38 4195   1.740   3.416  19.018 -0.1294  0.9208 -0.8609
   31SAPC   H8X 4196   1.729   3.382  19.123  0.3619 -0.7005 -1.3089
   31SAPC   H8Y 4197   1.659   3.492  19.004 -0.6313  0.4833 -0.3729
   31SAPC   C39 4198   1.875   3.481  19.010  0.5311 -0.1881  0.4510
   31SAPC   H9X 4199   1.886   3.538  18.915  0.1596  1.0797  1.1423
   31SAPC   H9Y 4200   1.963   3.417  19.029  1.4002  0.6744 -0.5304
   31SAPC  C310 4201   1.886   3.595  19.118  0.5654  0.3014  0.0094
   31SAPC  H10X 4202   1.860   3.553  19.218  2.1126 -1.0208 -0.1057
   31SAPC  H10Y 4203   1.808   3.668  19.088  0.9392  0.7155  0.0544
   31SAPC  C311 4204   2.027   3.654  19.105  0.9764 -0.3465  0.8201
   31SAPC  H11X 4205   2.059   3.667  18.999  0.5478 -1.7209  0.4897
   31SAPC  H11Y 4206   2.102   3.574  19.126 -0.4101 -1.9549 -0.0466
   31SAPC  C312 4207   2.056   3.773  19.197  0.0462  1.1183 -0.1743
   31SAPC  H12X 4208   2.028   3.733  19.297 -0.4000 -0.9717 -1.0704
   31SAPC  H12Y 4209   1.989   3.860  19.174 -0.0677  0.6068 -1.9345
   31SAPC  C313 4210   2.207   3.810  19.206  0.4132 -0.4481  0.1744
   31SAPC  H13X 4211   2.244   3.844  19.107  1.7414  1.2473  1.1971
   31SAPC  H13Y 4212   2.258   3.713  19.222 -0.4139 -0.7184  1.2380
   31SAPC  C314 4213   2.246   3.897  19.326 -0.5819  0.0903 -0.5357
   31SAPC  H14X 4214   2.165   3.972  19.340  0.1854  0.7774  0.3961
   31SAPC  H14Y 4215   2.344   3.948  19.316 -0.7160  1.0524  2.1942
   31SAPC  C315 4216   2.254   3.811  19.455  0.1955 -0.0595 -0.4469
   31SAPC  H15X 4217   2.327   3.732  19.429  0.0609 -0.3849  0.1426
   31SAPC  H15Y 4218   2.161   3.753  19.476  0.2305  0.7922  2.5527
   31SAPC  C316 4219   2.298   3.881  19.586  0.0275 -0.0134  0.0849
   31SAPC  H16X 4220   2.236   3.971  19.604  0.9004  0.9057 -1.2979
   31SAPC  H16Y 4221   2.394   3.934  19.566 -0.8352  2.0904  1.2413
   31SAPC  C317 4222   2.289   3.797  19.706 -0.0660  0.5280 -0.0538
   31SAPC  H17X 4223   2.308   3.847  19.804 -0.2157 -0.1603  0.3325
   31SAPC  H17Y 4224   2.361   3.713  19.695 -0.7885 -0.1615  0.3714
   31SAPC  C318 4225   2.147   3.745  19.736  0.4429  0.1707 -0.4665
   31SAPC  H18X 4226   2.090   3.833  19.770 -0.4159 -1.3310  2.2767
   31SAPC  H18Y 4227   2.152   3.673  19.821  1.7333  0.1276 -0.5574
   31SAPC  H18Z 4228   2.094   3.689  19.656  0.1998  0.9996 -0.8928
   32SAPC     N 4229   0.794   1.902  19.119  0.2187 -0.2815  0.2368
   32SAPC   C12 4230   0.660   1.945  19.175 -0.6930  1.0216  0.3871
   32SAPC  H12A 4231   0.591   1.864  19.156  1.0085 -0.1941 -1.0269
   32SAPC  H12B 4232   0.628   2.032  19.120  0.4324  0.3351 -1.4502
   32SAPC   C13 4233   0.891   2.015  19.127 -0.7339  0.8883 -0.1966
   32SAPC  H13A 4234   0.847   2.103  19.083  0.5013  1.2637 -0.7350
   32SAPC  H13B 4235   0.920   2.038  19.228 -0.2462 -2.1088  0.4466
   32SAPC  H13C 4236   0.981   1.996  19.069 -1.8971 -2.1210 -1.1942
   32SAPC   C14 4237   0.847   1.774  19.176 -0.7748  1.3778  0.2548
   32SAPC  H14A 4238   0.770   1.698  19.170  0.3547  0.2803 -0.7794
   32SAPC  H14B 4239   0.934   1.754  19.117 -1.3260 -0.0358 -0.1266
   32SAPC  H14C 4240   0.874   1.786  19.280  0.0997 -2.7239  0.6703
   32SAPC   C15 4241   0.775   1.883  18.968  0.3949  0.4845  0.6251
   32SAPC  H15A 4242   0.732   1.970  18.922  0.1570  0.1287  0.1639
   32SAPC  H15B 4243   0.867   1.852  18.923  0.3402 -3.1979  2.5764
   32SAPC  H15C 4244   0.706   1.801  18.950  0.2221  0.3984  1.5768
   32SAPC   C11 4245   0.654   1.985  19.320  0.1078 -0.1218 -0.1138
   32SAPC  H11A 4246   0.675   1.902  19.391  1.5143 -0.6891 -1.1404
   32SAPC  H11B 4247   0.544   2.000  19.320 -0.0750 -1.2785 -1.2853
   32SAPC     P 4248   0.675   2.247  19.294 -0.1597  0.1155 -0.4158
   32SAPC   O13 4249   0.694   2.260  19.147 -0.1911  0.3418 -0.0886
   32SAPC   O14 4250   0.533   2.258  19.343 -0.0816 -0.0686  0.0601
   32SAPC   O12 4251   0.728   2.107  19.354 -0.7391  0.4213 -0.4725
   32SAPC   O11 4252   0.760   2.342  19.385 -0.5794 -0.5839 -0.5280
   32SAPC    C1 4253   0.902   2.319  19.396 -0.2815 -0.3070  0.3222
   32SAPC    HA 4254   0.923   2.254  19.484  1.4187 -1.5361 -0.9166
   32SAPC    HB 4255   0.945   2.269  19.307 -0.1279  2.4900 -1.2959
   32SAPC    C2 4256   0.980   2.453  19.414  0.3641  0.2070  0.0218
   32SAPC    HS 4257   0.926   2.507  19.494  1.6592  0.3424  0.8290
   32SAPC   O21 4258   0.969   2.523  19.287 -0.0267 -0.3038  0.3060
   32SAPC   C21 4259   0.936   2.652  19.288 -0.0395 -0.0708 -0.2964
   32SAPC   O22 4260   0.910   2.725  19.383 -0.1533 -0.7671 -0.0235
   32SAPC   C22 4261   0.934   2.695  19.136 -0.8441  0.1917 -0.3301
   32SAPC   H2R 4262   1.042   2.722  19.128 -0.6466 -0.4820 -0.0629
   32SAPC   H2S 4263   0.910   2.608  19.071 -0.9566 -1.2173  1.5075
   32SAPC    C3 4264   1.128   2.432  19.463  0.2605  0.3700  0.3448
   32SAPC    HX 4265   1.167   2.371  19.379 -0.1165  0.0780  0.3788
   32SAPC    HY 4266   1.119   2.376  19.558 -2.2267  0.6794  0.3683
   32SAPC   O31 4267   1.199   2.557  19.487 -0.2097  0.1940  0.1522
   32SAPC   C31 4268   1.324   2.564  19.432 -0.2578  0.2814  0.6965
   32SAPC   O32 4269   1.382   2.468  19.384  0.6050 -0.1441  0.3076
   32SAPC   C32 4270   1.380   2.711  19.450  0.3249  0.2210  1.0662
   32SAPC   H2X 4271   1.439   2.701  19.543  0.3076 -2.6254  0.8407
   32SAPC   H2Y 4272   1.292   2.778  19.467  1.5451  2.0283  0.5702
   32SAPC   C23 4273   0.832   2.803  19.109  0.1604 -0.6911 -0.4524
   32SAPC   H3R 4274   0.872   2.882  19.041  0.4939 -0.6917 -0.2622
   32SAPC   H3S 4275   0.799   2.856  19.201  1.1621 -0.0707 -0.4312
   32SAPC   C24 4276   0.714   2.740  19.030 -0.7219  0.1365 -0.6666
   32SAPC   H4R 4277   0.769   2.673  18.960  0.0515  1.4720 -1.3804
   32SAPC   H4S 4278   0.669   2.824  18.973 -0.8954 -0.2804 -1.1564
   32SAPC   C25 4279   0.608   2.669  19.120  0.6930  0.1743 -0.7667
   32SAPC   H5R 4280   0.644   2.591  19.188 -0.1246  2.5436  2.6510
   32SAPC   C26 4281   0.474   2.692  19.125 -0.4296  0.0741  0.0790
   32SAPC   H6R 4282   0.413   2.636  19.197  1.8349  0.0195  2.1194
   32SAPC   C27 4283   0.399   2.805  19.050 -0.7879  0.2258  0.7675
   32SAPC   H7R 4284   0.351   2.763  18.958 -0.1349 -0.8652  0.9091
   32SAPC   H7S 4285   0.475   2.880  19.021  1.8075 -1.5296  2.5493
   32SAPC   C28 4286   0.294   2.869  19.142 -0.1047  0.0617  0.1923
   32SAPC   H8R 4287   0.289   2.828  19.244  2.7515  1.1483  0.8452
   32SAPC   C29 4288   0.207   2.969  19.114 -0.1565  0.0454  0.4695
   32SAPC   H9R 4289   0.148   3.010  19.198 -1.2240  1.7586 -1.0144
   32SAPC  C210 4290   0.190   3.039  18.981  0.5806 -0.4054  0.2527
   32SAPC  H10R 4291   0.287   3.053  18.930  0.3364  0.9051  0.0932
   32SAPC  H10S 4292   0.161   3.144  19.004 -0.3791 -0.3693 -0.9973
   32SAPC  C211 4293   0.087   2.987  18.880  0.4818  0.6219 -0.4019
   32SAPC  H11R 4294   0.129   2.943  18.788 -0.8617  1.4871 -1.4723
   32SAPC  C212 4295  -0.050   2.990  18.877  1.0878 -0.1188 -0.2325
   32SAPC  H12R 4296  -0.102   2.953  18.788 -0.6005  1.7289 -0.0832
   32SAPC  C213 4297  -0.139   3.042  18.985 -0.0855 -0.4384  0.0016
   32SAPC  H13R 4298  -0.197   3.129  18.947 -0.6165 -0.3981  0.8662
   32SAPC  H13S 4299  -0.092   3.074  19.081 -2.1307 -0.2206  0.9675
   32SAPC  C214 4300  -0.250   2.946  19.021  0.0905  0.0760  0.6842
   32SAPC  H14R 4301  -0.275   2.868  18.946  1.0295  1.4572 -1.1373
   32SAPC  C215 4302  -0.336   2.967  19.117  0.3063 -0.4281 -0.5408
   32SAPC  H15R 4303  -0.417   2.895  19.136  0.5311 -0.4985  0.2200
   32SAPC  C216 4304  -0.332   3.080  19.216 -0.0922  0.3484 -0.2307
   32SAPC  H16R 4305  -0.437   3.108  19.235 -0.2173 -1.5645  2.4762
   32SAPC  H16S 4306  -0.278   3.168  19.173  1.9314  0.0264  1.4642
   32SAPC  C217 4307  -0.269   3.046  19.356  0.8808 -0.3158 -0.0636
   32SAPC  H17R 4308  -0.161   3.030  19.337  0.9314 -1.4705  1.1170
   32SAPC  H17S 4309  -0.317   2.951  19.387 -0.7955 -0.8347 -3.7223
   32SAPC  C218 4310  -0.290   3.145  19.466  0.2224 -0.2250  0.1469
   32SAPC  H18R 4311  -0.240   3.098  19.554 -0.2132 -1.4842 -0.2587
   32SAPC  H18S 4312  -0.399   3.153  19.481  0.3257 -0.6157  1.1612
   32SAPC  C219 4313  -0.231   3.284  19.435  0.1266  0.2235 -0.4361
   32SAPC  H19R 4314  -0.307   3.343  19.378 -2.8607 -3.1890 -0.3302
   32SAPC  H19S 4315  -0.136   3.261  19.384  0.5805 -1.6377  1.1223
   32SAPC  C220 4316  -0.189   3.361  19.565  0.5112 -0.2824  0.3745
   32SAPC  H20R 4317  -0.131   3.442  19.515 -0.0474 -0.8567 -1.2646
   32SAPC  H20S 4318  -0.127   3.305  19.638  1.3680  1.4515  1.0336
   32SAPC  H20T 4319  -0.279   3.402  19.615 -0.9604 -1.0597 -1.5224
   32SAPC   C33 4320   1.458   2.758  19.325  0.9332  0.1197 -0.8383
   32SAPC   H3X 4321   1.526   2.681  19.284  2.2067  0.9241 -0.2892
   32SAPC   H3Y 4322   1.523   2.845  19.348 -0.8215  1.2237  0.2387
   32SAPC   C34 4323   1.358   2.799  19.218 -0.1748 -0.2812 -0.1473
   32SAPC   H4X 4324   1.265   2.738  19.220 -1.3255  1.3773  2.0870
   32SAPC   H4Y 4325   1.417   2.787  19.125 -0.4616  0.2234 -0.3997
   32SAPC   C35 4326   1.313   2.948  19.200 -0.3417 -0.1395  0.3220
   32SAPC   H5X 4327   1.269   2.971  19.101 -2.4000  0.3925  1.3154
   32SAPC   H5Y 4328   1.399   3.016  19.216 -0.1935  0.4929 -2.6441
   32SAPC   C36 4329   1.194   3.004  19.276  0.1619  0.6130  0.5335
   32SAPC   H6X 4330   1.211   2.990  19.385 -0.1991 -1.3082  0.3783
   32SAPC   H6Y 4331   1.105   2.945  19.247 -0.6995  1.1509  1.9764
   32SAPC   C37 4332   1.169   3.154  19.253  0.7511 -0.2308  0.0577
   32SAPC   H7X 4333   1.243   3.214  19.312  0.7607 -0.8287  0.6642
   32SAPC   H7Y 4334   1.077   3.189  19.306  0.7035  0.6863 -0.6152
   32SAPC   C38 4335   1.164   3.198  19.104  0.3391 -0.7829  0.5814
   32SAPC   H8X 4336   1.114   3.125  19.036  2.1705  1.0768 -3.0318
   32SAPC   H8Y 4337   1.267   3.196  19.064 -0.1193  0.7143 -0.7808
   32SAPC   C39 4338   1.096   3.341  19.088  0.1928 -0.4354 -0.3052
   32SAPC   H9X 4339   1.147   3.401  19.167  1.6059 -3.1040  0.9267
   32SAPC   H9Y 4340   0.987   3.338  19.109  0.2295  1.6006  0.3875
   32SAPC  C310 4341   1.119   3.422  18.957 -0.4969 -0.3239  0.0461
   32SAPC  H10X 4342   1.062   3.518  18.956 -0.4693 -0.3099 -0.2469
   32SAPC  H10Y 4343   1.068   3.366  18.876 -0.7147  0.0671 -0.0922
   32SAPC  C311 4344   1.266   3.430  18.928  0.4035 -0.0908  0.1013
   32SAPC  H11X 4345   1.307   3.327  18.919 -1.0037 -0.9730  2.7247
   32SAPC  H11Y 4346   1.320   3.473  19.015 -1.1904  0.7972  0.6935
   32SAPC  C312 4347   1.294   3.520  18.812  0.0225  0.1026 -0.1341
   32SAPC  H12X 4348   1.257   3.623  18.830 -3.5939 -0.8694 -1.1241
   32SAPC  H12Y 4349   1.239   3.474  18.727 -0.9013 -2.8235  1.8941
   32SAPC  C313 4350   1.444   3.525  18.782 -0.3872  0.4276  0.0183
   32SAPC  H13X 4351   1.488   3.423  18.791 -1.1326  0.1680  1.0034
   32SAPC  H13Y 4352   1.484   3.596  18.857 -1.9129 -2.0270  3.4634
   32SAPC  C314 4353   1.475   3.565  18.640  0.3408  0.2530 -0.1238
   32SAPC  H14X 4354   1.438   3.667  18.618  0.4287  0.0390 -1.3365
   32SAPC  H14Y 4355   1.419   3.490  18.579 -0.8396  0.1522  1.0362
   32SAPC  C315 4356   1.624   3.544  18.598  0.3760  0.0406 -0.6119
   32SAPC  H15X 4357   1.662   3.445  18.631 -1.3153 -0.4224  0.0799
   32SAPC  H15Y 4358   1.680   3.624  18.651  0.9969 -2.1289  2.2431
   32SAPC  C316 4359   1.649   3.556  18.444 -0.2042  0.4117 -0.5390
   32SAPC  H16X 4360   1.606   3.650  18.405 -1.3127 -0.4650 -1.5014
   32SAPC  H16Y 4361   1.597   3.478  18.385 -1.9049  0.8323  0.3562
   32SAPC  C317 4362   1.803   3.548  18.414  0.1211 -0.4803 -1.3412
   32SAPC  H17X 4363   1.836   3.449  18.451 -0.6904 -1.0727 -2.1613
   32SAPC  H17Y 4364   1.838   3.626  18.485 -3.7453 -0.3548  0.7019
   32SAPC  C318 4365   1.834   3.565  18.269 -0.2759  0.2782 -0.4800
   32SAPC  H18X 4366   1.936   3.609  18.270 -0.4952  0.8119  1.5599
   32SAPC  H18Y 4367   1.773   3.646  18.223 -0.4049  0.0892 -0.6456
   32SAPC  H18Z 4368   1.816   3.473  18.209  2.3533 -0.0242 -0.9414
   33POPC     N 4369   3.125   0.278  24.246  0.3092  0.0640  0.0330
   33POPC   C12 4370   3.260   0.239  24.179  0.5830  0.2038  0.2422
   33POPC  H12A 4371   3.268   0.319  24.107 -1.8760  1.3066  1.0807
   33POPC  H12B 4372   3.237   0.147  24.127 -2.1073  0.7244  0.3248
   33POPC   C13 4373   3.017   0.304  24.141 -0.6765  1.0044 -0.0414
   33POPC  H13A 4374   3.026   0.397  24.087 -0.3373  0.8016 -0.3456
   33POPC  H13B 4375   3.024   0.222  24.070 -2.4229  0.3633  0.4742
   33POPC  H13C 4376   2.914   0.303  24.174 -0.5702  0.2030  0.2834
   33POPC   C14 4377   3.079   0.166  24.326 -0.1732 -0.0901  0.0003
   33POPC  H14A 4378   3.157   0.129  24.392  1.1208  3.3383  0.5998
   33POPC  H14B 4379   2.998   0.187  24.394 -1.9865 -1.3172 -1.6992
   33POPC  H14C 4380   3.048   0.085  24.263  0.5256  0.1921 -0.7230
   33POPC   C15 4381   3.149   0.399  24.326  0.5636 -0.3811  0.4032
   33POPC  H15A 4382   3.156   0.491  24.269  0.3956 -0.0895  0.8447
   33POPC  H15B 4383   3.246   0.389  24.375  0.3203 -3.2387  0.4388
   33POPC  H15C 4384   3.079   0.415  24.407  0.6769 -2.0862  0.8800
   33POPC   C11 4385   3.393   0.228  24.256 -0.5315 -0.8907 -0.2478
   33POPC  H11A 4386   3.423   0.327  24.296  0.7146 -1.4179  0.1929
   33POPC  H11B 4387   3.471   0.200  24.182 -0.2581 -0.4403 -0.1370
   33POPC     P 4388   3.389  -0.024  24.334 -0.3777 -0.3313  0.2063
   33POPC   O13 4389   3.255  -0.068  24.366  0.5433  0.0412  0.1431
   33POPC   O14 4390   3.501  -0.084  24.400  0.0031  0.2235  0.1630
   33POPC   O12 4391   3.390   0.134  24.360 -0.5858 -0.4562 -0.2559
   33POPC   O11 4392   3.411  -0.039  24.177  0.3870  0.3004 -0.0584
   33POPC    C1 4393   3.325  -0.114  24.098  0.5117  0.4474  0.4329
   33POPC    HA 4394   3.318  -0.217  24.139  2.6765  1.2670  3.1905
   33POPC    HB 4395   3.226  -0.064  24.096  0.1150 -0.3027  0.9654
   33POPC    C2 4396   3.370  -0.130  23.951  0.5733  0.2010  0.1188
   33POPC    HS 4397   3.286  -0.188  23.908  0.1224 -0.0775  1.3406
   33POPC   O21 4398   3.489  -0.199  23.939 -0.2854 -0.5907  0.3941
   33POPC   C21 4399   3.478  -0.333  23.940 -1.0193 -1.0311  0.5947
   33POPC   O22 4400   3.376  -0.396  23.946  0.1710 -0.0222 -0.1365
   33POPC   C22 4401   3.620  -0.387  23.936  1.0696  0.2658  0.3437
   33POPC   H2R 4402   3.644  -0.392  24.044  1.4583  0.4919  0.2703
   33POPC   H2S 4403   3.697  -0.323  23.888  2.9796 -1.1313  1.3816
   33POPC    C3 4404   3.392   0.005  23.876  0.0902  0.5881 -0.6226
   33POPC    HX 4405   3.434  -0.016  23.775 -2.6269 -3.9451 -1.0704
   33POPC    HY 4406   3.467   0.061  23.936 -0.0598  0.8047 -0.6369
   33POPC   O31 4407   3.271   0.093  23.871  0.7424  0.2864  0.1436
   33POPC   C31 4408   3.195   0.100  23.764  0.0940  0.7395 -0.0708
   33POPC   O32 4409   3.220   0.061  23.656 -0.5244  0.2141 -0.0305
   33POPC   C32 4410   3.053   0.127  23.804 -0.1474 -0.6147 -0.6543
   33POPC   H2X 4411   3.048   0.215  23.872 -0.0606 -1.1363  0.0357
   33POPC   H2Y 4412   3.018   0.041  23.864 -0.5000  0.6291  1.0139
   33POPC   C23 4413   3.611  -0.530  23.876  0.3974 -0.0237 -0.5485
   33POPC   H3R 4414   3.537  -0.581  23.942  1.3814 -0.8353 -0.0388
   33POPC   H3S 4415   3.707  -0.584  23.891  1.4078  2.1185  1.2476
   33POPC   C24 4416   3.582  -0.524  23.722  0.5532  0.0082 -0.4039
   33POPC   H4R 4417   3.670  -0.478  23.673  0.9747 -1.2766 -0.8898
   33POPC   H4S 4418   3.492  -0.461  23.703 -0.2089 -0.9801 -0.1858
   33POPC   C25 4419   3.557  -0.659  23.662  0.6440  0.6648 -0.0612
   33POPC   H5R 4420   3.503  -0.642  23.567  2.1741 -0.2678 -1.1503
   33POPC   H5S 4421   3.492  -0.725  23.724  2.1567 -1.9092 -1.0607
   33POPC   C26 4422   3.681  -0.731  23.640 -1.3120 -0.2279 -0.1648
   33POPC   H6R 4423   3.723  -0.756  23.740 -2.6613  1.6798  0.9602
   33POPC   H6S 4424   3.749  -0.656  23.594 -3.1130  2.1017  0.7486
   33POPC   C27 4425   3.678  -0.855  23.549 -0.3877  0.6119  0.1033
   33POPC   H7R 4426   3.609  -0.929  23.596  0.4482 -1.5056 -1.8475
   33POPC   H7S 4427   3.783  -0.891  23.541 -0.5755 -0.0055  0.3682
   33POPC   C28 4428   3.631  -0.833  23.408 -1.5700  0.0429  0.5747
   33POPC   H8R 4429   3.699  -0.759  23.362  0.1107 -2.3996 -1.0688
   33POPC   H8S 4430   3.528  -0.793  23.402 -1.7260 -0.6137 -2.0020
   33POPC   C29 4431   3.632  -0.968  23.350 -0.1311  0.2224 -0.2290
   33POPC   H91 4432   3.571  -1.048  23.394  1.6125 -1.5570 -0.8733
   33POPC  C210 4433   3.687  -1.000  23.237 -0.1282  0.6322 -0.1326
   33POPC  H101 4434   3.660  -1.099  23.199  0.0344  1.4247 -2.4582
   33POPC  C211 4435   3.772  -0.929  23.138 -0.1222  0.4306  0.1896
   33POPC  H11R 4436   3.734  -0.826  23.126 -2.6806 -0.4448  0.3040
   33POPC  H11S 4437   3.777  -0.978  23.038  1.7547 -3.0435  1.7812
   33POPC  C212 4438   3.922  -0.933  23.185  0.3623  0.4382 -0.0609
   33POPC  H12R 4439   3.927  -0.911  23.294 -1.2461  1.2252 -0.1166
   33POPC  H12S 4440   3.985  -0.862  23.127  1.9543 -1.0280 -0.1702
   33POPC  C213 4441   3.974  -1.069  23.157 -1.0230  0.1097  0.0331
   33POPC  H13R 4442   3.989  -1.080  23.047 -2.0378 -1.8185  0.0246
   33POPC  H13S 4443   3.908  -1.153  23.189  1.3564 -1.5551  0.8723
   33POPC  C214 4444   4.110  -1.100  23.229  0.1827  0.1541  0.4918
   33POPC  H14R 4445   4.081  -1.108  23.336 -0.4987  1.4794  0.4173
   33POPC  H14S 4446   4.187  -1.022  23.213  1.6938 -1.5513 -1.0881
   33POPC  C215 4447   4.187  -1.227  23.177 -0.3687 -0.7589 -1.0272
   33POPC  H15R 4448   4.210  -1.221  23.068  0.5457 -0.0284 -0.8028
   33POPC  H15S 4449   4.139  -1.325  23.198  0.2379 -0.6791  0.8338
   33POPC  C216 4450   4.335  -1.227  23.238 -0.2696  0.0906  0.0876
   33POPC  H16R 4451   4.330  -1.245  23.347  2.2927 -0.3990  0.1786
   33POPC  H16S 4452   4.381  -1.128  23.216  1.9745 -0.8770  0.2422
   33POPC  C217 4453   4.422  -1.335  23.169  0.2336 -0.7677 -0.5796
   33POPC  H17R 4454   4.419  -1.310  23.061 -3.8535 -0.9326 -0.6566
   33POPC  H17S 4455   4.377  -1.437  23.177  0.7034 -0.8323  2.1082
   33POPC  C218 4456   4.570  -1.336  23.203  0.5090  0.7682 -0.3881
   33POPC  H18R 4457   4.590  -1.354  23.310 -2.8811  1.6278  0.5382
   33POPC  H18S 4458   4.609  -1.235  23.177 -1.0727  1.1756 -1.3908
   33POPC  H18T 4459   4.631  -1.412  23.151  0.1289  0.4057 -0.3074
   33POPC   C33 4460   2.962   0.153  23.679  0.3562  0.3509 -0.1505
   33POPC   H3X 4461   2.937   0.055  23.632  1.9253 -0.6088  0.9249
   33POPC   H3Y 4462   3.018   0.226  23.617 -0.7619  3.8293  2.5778
   33POPC   C34 4463   2.830   0.214  23.712  0.0588 -0.7283  0.0269
   33POPC   H4X 4464   2.843   0.299  23.783 -1.3315 -0.8514  0.4636
   33POPC   H4Y 4465   2.762   0.146  23.769  1.2548  0.1559  2.6716
   33POPC   C35 4466   2.745   0.269  23.592 -0.3356 -0.0663  0.3586
   33POPC   H5X 4467   2.802   0.358  23.557 -0.0205  0.9172  3.1184
   33POPC   H5Y 4468   2.650   0.312  23.631 -0.4844 -1.1226  1.2262
   33POPC   C36 4469   2.723   0.175  23.478  0.0160  0.5848  0.4562
   33POPC   H6X 4470   2.674   0.082  23.515 -2.4705  2.0990  1.1855
   33POPC   H6Y 4471   2.823   0.146  23.438 -0.1310  0.4741  0.1650
   33POPC   C37 4472   2.636   0.222  23.363 -0.7056  0.2256 -0.0788
   33POPC   H7X 4473   2.678   0.308  23.306  0.3335  0.2974  0.7758
   33POPC   H7Y 4474   2.531   0.249  23.389 -0.3466  2.8823 -1.0662
   33POPC   C38 4475   2.615   0.102  23.254 -0.0025 -0.0869  0.4956
   33POPC   H8X 4476   2.559   0.023  23.308  0.9477 -1.1786 -0.0539
   33POPC   H8Y 4477   2.713   0.055  23.231 -1.5037 -3.0373 -0.3858
   33POPC   C39 4478   2.541   0.142  23.127  0.2828 -0.5044  0.3485
   33POPC   H9X 4479   2.611   0.210  23.074  3.1208 -2.0843  1.8329
   33POPC   H9Y 4480   2.450   0.202  23.145  0.2365 -0.1701 -0.9364
   33POPC  C310 4481   2.518   0.018  23.036 -0.3526 -0.4258  0.3181
   33POPC  H10X 4482   2.423  -0.028  23.072  0.3560 -1.0135  1.4817
   33POPC  H10Y 4483   2.594  -0.059  23.062  1.5450  0.9496 -0.9683
   33POPC  C311 4484   2.514   0.044  22.884 -0.4007 -0.9259 -0.0134
   33POPC  H11X 4485   2.426   0.103  22.852 -1.0084 -0.5006  2.2694
   33POPC  H11Y 4486   2.504  -0.055  22.835 -0.6698 -1.7977  1.7506
   33POPC  C312 4487   2.635   0.117  22.814  0.1368  0.0353  0.1282
   33POPC  H12X 4488   2.722   0.087  22.876 -0.9720  1.7972  2.7232
   33POPC  H12Y 4489   2.625   0.228  22.809 -1.2444 -0.1145 -1.2225
   33POPC  C313 4490   2.675   0.077  22.676 -0.4939 -0.1563  0.0608
   33POPC  H13X 4491   2.657  -0.031  22.655  3.3027 -1.2834  1.7749
   33POPC  H13Y 4492   2.780   0.109  22.661 -0.8534  1.4730  0.8722
   33POPC  C314 4493   2.587   0.147  22.569 -0.4455  0.1773 -0.4397
   33POPC  H14X 4494   2.598   0.255  22.593  0.3659  0.1782 -0.7682
   33POPC  H14Y 4495   2.479   0.124  22.578 -0.4848  0.7690  0.7779
   33POPC  C315 4496   2.645   0.135  22.425 -0.4078 -0.3463  0.0121
   33POPC  H15X 4497   2.643   0.028  22.396  1.6279 -0.2076 -0.8199
   33POPC  H15Y 4498   2.744   0.184  22.419 -1.3408  2.0253  2.0886
   33POPC  C316 4499   2.564   0.212  22.320 -0.2239 -0.5162  0.3019
   33POPC  H16X 4500   2.536   0.317  22.343  0.5606  0.2706 -2.0749
   33POPC  H16Y 4501   2.475   0.149  22.302 -0.9014  0.7411 -0.8440
   33POPC  H16Z 4502   2.618   0.228  22.224 -2.6325  0.4772 -0.9539
   34POPC     N 4503   2.897   0.479  24.902  0.0245  0.1962  0.1227
   34POPC   C12 4504   3.001   0.588  24.919 -0.2018  0.0329  0.7685
   34POPC  H12A 4505   3.089   0.546  24.963 -0.4313 -1.6849 -0.3230
   34POPC  H12B 4506   2.951   0.666  24.976 -0.3160  1.2546 -0.9105
   34POPC   C13 4507   2.942   0.360  24.812  0.1319 -0.9534 -0.1432
   34POPC  H13A 4508   3.030   0.308  24.845  1.0081  0.9696  0.6962
   34POPC  H13B 4509   2.871   0.280  24.795  1.5369 -2.2063 -0.3182
   34POPC  H13C 4510   2.975   0.411  24.722  0.3281  0.7592  0.8616
   34POPC   C14 4511   2.848   0.419  25.036  0.0542  0.5274  0.2188
   34POPC  H14A 4512   2.929   0.371  25.087  0.5973  1.0414 -0.1515
   34POPC  H14B 4513   2.822   0.499  25.103  2.5314  0.6769  1.0765
   34POPC  H14C 4514   2.775   0.340  25.020  2.8101 -2.0155 -0.7494
   34POPC   C15 4515   2.772   0.542  24.850 -0.6500 -0.1463  0.4769
   34POPC  H15A 4516   2.688   0.480  24.824  0.7994 -1.5162 -1.1637
   34POPC  H15B 4517   2.795   0.587  24.755  0.9890  1.9874  1.7841
   34POPC  H15C 4518   2.747   0.624  24.917 -2.1937 -0.5361  0.4070
   34POPC   C11 4519   3.052   0.671  24.792  0.3913 -0.3268  0.5118
   34POPC  H11A 4520   3.124   0.750  24.822 -0.3331 -0.6823  3.4894
   34POPC  H11B 4521   2.967   0.725  24.746  0.6297  0.9199  1.5019
   34POPC     P 4522   3.265   0.563  24.678 -0.0519  0.0205 -0.0605
   34POPC   O13 4523   3.296   0.481  24.560  0.3105 -0.1151 -0.1459
   34POPC   O14 4524   3.322   0.521  24.811  0.0790 -0.1680 -0.5439
   34POPC   O12 4525   3.100   0.587  24.685 -0.7460 -0.1628 -0.0351
   34POPC   O11 4526   3.325   0.698  24.642 -0.1561 -0.1645  0.3670
   34POPC    C1 4527   3.258   0.788  24.552 -0.7906  0.2382 -0.0572
   34POPC    HA 4528   3.315   0.882  24.568 -1.1774  0.4847 -0.1009
   34POPC    HB 4529   3.151   0.809  24.571 -0.5019  1.5375  0.2115
   34POPC    C2 4530   3.289   0.772  24.398  0.4332  0.0815 -0.8688
   34POPC    HS 4531   3.234   0.681  24.366 -0.4697  0.4594 -0.4167
   34POPC   O21 4532   3.435   0.766  24.380 -0.0615  0.7631  0.5673
   34POPC   C21 4533   3.467   0.697  24.274  0.3461 -0.3622  0.9366
   34POPC   O22 4534   3.387   0.659  24.185  0.1246 -0.3924  0.6370
   34POPC   C22 4535   3.619   0.671  24.268  0.8154  0.0107  0.1043
   34POPC   H2R 4536   3.632   0.564  24.296 -2.4004 -0.4463  0.1770
   34POPC   H2S 4537   3.671   0.730  24.346  0.6625 -2.1967  1.9814
   34POPC    C3 4538   3.233   0.898  24.326 -0.6288 -0.0846  0.0261
   34POPC    HX 4539   3.261   0.901  24.219 -0.3327 -1.2914  0.0607
   34POPC    HY 4540   3.286   0.986  24.368  0.9089  0.3901 -2.6801
   34POPC   O31 4541   3.097   0.917  24.342  0.2229  0.0154  0.0513
   34POPC   C31 4542   3.016   0.868  24.249 -0.0054  0.2740 -0.0978
   34POPC   O32 4543   3.054   0.785  24.167 -0.3511  0.0704 -0.5510
   34POPC   C32 4544   2.877   0.920  24.271  0.2668 -0.3368  0.5867
   34POPC   H2X 4545   2.882   1.028  24.297 -2.7315  0.5290 -1.7633
   34POPC   H2Y 4546   2.830   0.866  24.356  0.8204 -1.9458 -0.0834
   34POPC   C23 4547   3.683   0.706  24.132  0.7512 -0.0671 -0.3554
   34POPC   H3R 4548   3.662   0.625  24.058  2.0538  0.4186 -1.2984
   34POPC   H3S 4549   3.794   0.709  24.139  1.1444  0.1909 -4.2470
   34POPC   C24 4550   3.630   0.840  24.082 -0.6825 -0.4260  1.1258
   34POPC   H4R 4551   3.630   0.917  24.161  3.1392  0.0722  0.8611
   34POPC   H4S 4552   3.524   0.839  24.050 -0.2424  1.2282 -0.5946
   34POPC   C25 4553   3.699   0.870  23.948 -0.3244 -0.1724  0.4657
   34POPC   H5R 4554   3.710   0.789  23.872  1.2967 -0.7656  1.2787
   34POPC   H5S 4555   3.802   0.905  23.972 -0.5454  1.7521 -1.0965
   34POPC   C26 4556   3.633   0.986  23.879  0.4220  0.3419 -0.2431
   34POPC   H6R 4557   3.598   1.059  23.955  1.4279  0.1140  0.4626
   34POPC   H6S 4558   3.544   0.937  23.833  1.3253 -1.3168 -0.2891
   34POPC   C27 4559   3.722   1.042  23.767 -0.2277  0.3205 -0.3875
   34POPC   H7R 4560   3.775   0.955  23.722  1.1136  1.2076 -0.5743
   34POPC   H7S 4561   3.800   1.103  23.819  1.9083 -3.4266  1.2184
   34POPC   C28 4562   3.653   1.128  23.661 -0.2661  0.5510 -0.2466
   34POPC   H8R 4563   3.563   1.070  23.632 -0.0247 -0.7127  1.3561
   34POPC   H8S 4564   3.724   1.124  23.575 -0.2727  0.3042 -0.2420
   34POPC   C29 4565   3.616   1.259  23.723  0.0303  0.0392 -0.0240
   34POPC   H91 4566   3.555   1.253  23.815  2.6594 -1.2596  1.7805
   34POPC  C210 4567   3.681   1.375  23.709 -0.2318 -0.2382  0.6336
   34POPC  H101 4568   3.634   1.456  23.767  1.3817 -0.9977  3.1903
   34POPC  C211 4569   3.789   1.408  23.607 -0.6958 -0.5231 -0.4373
   34POPC  H11R 4570   3.847   1.317  23.583  0.2602 -0.1135  0.2529
   34POPC  H11S 4571   3.857   1.485  23.650  0.9558 -2.0349 -0.2290
   34POPC  C212 4572   3.736   1.473  23.479  0.7577 -0.4196 -0.9549
   34POPC  H12R 4573   3.707   1.579  23.491  0.9361 -0.3498 -1.1370
   34POPC  H12S 4574   3.651   1.406  23.454 -0.5926  1.5557 -1.9007
   34POPC  C213 4575   3.832   1.476  23.358  0.3161 -0.2933 -0.0471
   34POPC  H13R 4576   3.864   1.374  23.325  0.6214  0.1575 -1.1688
   34POPC  H13S 4577   3.922   1.534  23.388  0.9104 -1.0928 -0.2344
   34POPC  C214 4578   3.769   1.557  23.247  0.6304  0.2015 -0.5241
   34POPC  H14R 4579   3.718   1.645  23.291 -0.7055 -1.6700  1.9026
   34POPC  H14S 4580   3.695   1.491  23.197  1.2077 -0.7798 -0.1329
   34POPC  C215 4581   3.874   1.611  23.150  0.8290 -0.4226  0.4697
   34POPC  H15R 4582   3.933   1.524  23.113 -2.0405 -2.2666 -0.0673
   34POPC  H15S 4583   3.944   1.679  23.203 -1.1979  1.5631  0.7361
   34POPC  C216 4584   3.809   1.680  23.030 -0.2019  0.2927 -0.0811
   34POPC  H16R 4585   3.734   1.755  23.061 -1.6008 -0.8251 -0.6620
   34POPC  H16S 4586   3.755   1.609  22.964 -1.7770 -0.1997  1.6771
   34POPC  C217 4587   3.902   1.770  22.942 -0.3832 -0.0571 -0.2637
   34POPC  H17R 4588   3.983   1.710  22.895  2.1783  2.0774  1.1539
   34POPC  H17S 4589   3.959   1.841  23.006 -2.8973  3.3692 -1.4799
   34POPC  C218 4590   3.822   1.847  22.845  0.0855 -0.7320 -0.0529
   34POPC  H18R 4591   3.744   1.915  22.886 -0.9849 -0.5947 -2.1890
   34POPC  H18S 4592   3.774   1.781  22.771  2.0308 -1.3055 -0.8758
   34POPC  H18T 4593   3.878   1.920  22.782 -1.7296  1.4983  0.7823
   34POPC   C33 4594   2.788   0.888  24.144 -0.5552 -0.1733 -0.4287
   34POPC   H3X 4595   2.780   0.778  24.147 -1.2495 -0.1111  0.8865
   34POPC   H3Y 4596   2.844   0.926  24.056  1.3273  2.4078  1.7162
   34POPC   C34 4597   2.649   0.961  24.148  0.3687 -0.6055  0.7263
   34POPC   H4X 4598   2.674   1.069  24.159 -0.4324 -0.0845 -1.8840
   34POPC   H4Y 4599   2.580   0.927  24.228 -1.0956  1.2908  0.3485
   34POPC   C35 4600   2.575   0.957  24.019 -0.0284 -0.4040  0.3931
   34POPC   H5X 4601   2.575   0.853  23.980  2.5112 -0.4562  0.3824
   34POPC   H5Y 4602   2.611   1.035  23.949  1.1545 -1.9638 -0.7885
   34POPC   C36 4603   2.426   0.988  24.037  0.4975 -0.1410 -0.4823
   34POPC   H6X 4604   2.433   1.089  24.084  1.3469 -0.1516 -0.5581
   34POPC   H6Y 4605   2.378   0.929  24.117  0.5128 -0.4798 -0.7249
   34POPC   C37 4606   2.351   1.003  23.904  0.0743  0.4300  0.1902
   34POPC   H7X 4607   2.409   1.047  23.820  0.3915 -2.4338 -1.1983
   34POPC   H7Y 4608   2.261   1.066  23.917 -1.9548 -2.2065 -0.3148
   34POPC   C38 4609   2.299   0.863  23.861  0.4622 -0.1806  0.0502
   34POPC   H8X 4610   2.251   0.818  23.950 -0.4727 -0.4719 -0.5886
   34POPC   H8Y 4611   2.388   0.799  23.838  0.7438 -0.7369  2.3804
   34POPC   C39 4612   2.194   0.862  23.748  0.0430  0.0290 -0.3222
   34POPC   H9X 4613   2.240   0.899  23.655 -0.9984 -1.3219 -1.4299
   34POPC   H9Y 4614   2.111   0.932  23.769 -0.5695 -0.4118 -1.1979
   34POPC  C310 4615   2.129   0.732  23.730  0.0446 -0.1705  0.0404
   34POPC  H10X 4616   2.082   0.710  23.829  1.5102 -3.3490  0.1544
   34POPC  H10Y 4617   2.199   0.652  23.699 -0.6031  0.3517 -3.0303
   34POPC  C311 4618   2.007   0.718  23.631  0.3800  0.0391 -0.3138
   34POPC  H11X 4619   2.043   0.671  23.537  2.6701 -2.0551  1.4765
   34POPC  H11Y 4620   1.958   0.817  23.629 -1.1978 -0.6282  1.6759
   34POPC  C312 4621   1.903   0.620  23.684  0.4743  0.2577 -0.1671
   34POPC  H12X 4622   1.813   0.617  23.618  1.2397  0.9470 -1.2866
   34POPC  H12Y 4623   1.866   0.659  23.781  0.0313  0.6114 -0.4655
   34POPC  C313 4624   1.944   0.473  23.697 -0.7181 -0.8014 -0.8606
   34POPC  H13X 4625   2.026   0.474  23.771 -0.9578 -0.1754 -0.5919
   34POPC  H13Y 4626   1.992   0.443  23.601  0.2120 -0.4448 -0.5213
   34POPC  C314 4627   1.822   0.385  23.733 -0.4660  0.4779 -0.7250
   34POPC  H14X 4628   1.748   0.387  23.650  0.4345  0.3077 -1.5528
   34POPC  H14Y 4629   1.760   0.423  23.816 -0.3280  1.0803 -0.8912
   34POPC  C315 4630   1.855   0.238  23.765 -0.2144  0.0850 -0.0210
   34POPC  H15X 4631   1.936   0.226  23.841  0.8591 -1.6097 -1.3512
   34POPC  H15Y 4632   1.908   0.202  23.675 -0.8818 -0.8078 -0.0735
   34POPC  C316 4633   1.732   0.162  23.793  0.0129  0.0402 -0.5650
   34POPC  H16X 4634   1.745   0.055  23.821 -1.6584  0.5490  2.6004
   34POPC  H16Y 4635   1.674   0.162  23.698  1.1616 -0.8381 -1.2991
   34POPC  H16Z 4636   1.679   0.214  23.875  2.6478  1.2140  0.5190
   35POPC     N 4637   2.462   3.375  25.909 -0.8646 -0.4286  0.0287
   35POPC   C12 4638   2.534   3.353  25.776 -0.4725  0.2507  0.5661
   35POPC  H12A 4639   2.560   3.441  25.719  3.9445 -3.1415 -3.4134
   35POPC  H12B 4640   2.465   3.298  25.713  1.0596 -0.2656 -0.7286
   35POPC   C13 4641   2.554   3.442  26.011  0.4124  0.0699  0.6746
   35POPC  H13A 4642   2.515   3.446  26.111  1.4717 -1.5970  1.2035
   35POPC  H13B 4643   2.646   3.386  26.023  1.4921  2.1312  3.0638
   35POPC  H13C 4644   2.588   3.539  25.979 -1.9061 -0.0833 -2.7024
   35POPC   C14 4645   2.345   3.465  25.898  0.5680 -0.1966  0.1162
   35POPC  H14A 4646   2.308   3.497  25.994 -0.6886  0.7087 -0.6393
   35POPC  H14B 4647   2.359   3.558  25.845 -0.8429  1.1005  1.9053
   35POPC  H14C 4648   2.269   3.408  25.847  0.8933 -2.1699  1.7127
   35POPC   C15 4649   2.428   3.242  25.973 -0.1629 -0.1237  0.4041
   35POPC  H15A 4650   2.371   3.251  26.063  1.2901  0.2245  1.3244
   35POPC  H15B 4651   2.514   3.195  26.018  0.0021 -1.3207 -1.0669
   35POPC  H15C 4652   2.380   3.175  25.903 -1.2382  0.1655  0.8569
   35POPC   C11 4653   2.664   3.270  25.778 -0.4244  0.1024  0.1437
   35POPC  H11A 4654   2.696   3.248  25.674 -1.5556 -1.2141  0.0392
   35POPC  H11B 4655   2.653   3.168  25.822  1.9587 -0.0134  0.6154
   35POPC     P 4656   2.848   3.457  25.802  0.0797 -0.3897  0.0565
   35POPC   O13 4657   2.957   3.494  25.891 -0.1486  0.2449 -0.3323
   35POPC   O14 4658   2.753   3.559  25.754 -0.1957  0.7777 -0.2188
   35POPC   O12 4659   2.761   3.337  25.853  0.7729  0.2054 -0.5599
   35POPC   O11 4660   2.921   3.390  25.673  0.3319 -0.4414 -0.6082
   35POPC    C1 4661   2.987   3.263  25.707 -0.3596  0.1351  0.9085
   35POPC    HA 4662   2.904   3.189  25.699 -1.0804  0.7946  1.9221
   35POPC    HB 4663   3.030   3.257  25.809  0.9154  3.6525  0.7239
   35POPC    C2 4664   3.097   3.222  25.616 -0.5807  0.8937  0.0697
   35POPC    HS 4665   3.185   3.290  25.624  0.5849 -0.4666 -0.5530
   35POPC   O21 4666   3.059   3.235  25.480  0.6388 -0.5021 -0.3811
   35POPC   C21 4667   3.129   3.199  25.376 -0.3091 -0.2391  0.6629
   35POPC   O22 4668   3.241   3.162  25.362  0.1568 -0.4741 -0.8822
   35POPC   C22 4669   3.053   3.209  25.251  0.9301 -1.0614 -0.0635
   35POPC   H2R 4670   3.127   3.209  25.168  1.6079 -0.4156  0.5248
   35POPC   H2S 4671   2.998   3.304  25.265  1.6221 -0.8488  1.4956
   35POPC    C3 4672   3.161   3.082  25.661 -0.4484  0.5476 -0.0692
   35POPC    HX 4673   3.178   3.067  25.770 -2.7389 -2.0210  0.0237
   35POPC    HY 4674   3.258   3.061  25.610 -1.1853  0.0238 -1.2955
   35POPC   O31 4675   3.079   2.971  25.619 -0.3927  0.2629 -0.6406
   35POPC   C31 4676   2.974   2.937  25.695 -0.1934 -0.4700  0.3755
   35POPC   O32 4677   2.952   2.962  25.812  0.1681 -0.6909  0.1158
   35POPC   C32 4678   2.869   2.870  25.605  0.1623 -0.4313  0.0197
   35POPC   H2X 4679   2.898   2.892  25.500  2.2636  4.6678  1.3671
   35POPC   H2Y 4680   2.777   2.923  25.638  1.9362  1.0366  3.0782
   35POPC   C23 4681   2.955   3.089  25.245 -0.2754  0.0735  0.3249
   35POPC   H3R 4682   2.871   3.127  25.182 -0.1457  4.4165  2.4701
   35POPC   H3S 4683   2.906   3.073  25.343 -0.7891 -1.7370 -0.1699
   35POPC   C24 4684   3.033   2.969  25.191  0.2798 -0.2886 -0.1078
   35POPC   H4R 4685   3.115   2.954  25.265 -1.8415  1.5626  2.8098
   35POPC   H4S 4686   3.082   3.006  25.098  0.2425  1.3282  0.4903
   35POPC   C25 4687   2.961   2.837  25.159 -0.0374 -0.2501 -0.3423
   35POPC   H5R 4688   2.871   2.864  25.099  1.7691  2.2513 -2.1557
   35POPC   H5S 4689   2.928   2.796  25.256  2.1802 -2.8718 -0.5791
   35POPC   C26 4690   3.055   2.738  25.081 -0.7540  0.0880  0.3021
   35POPC   H6R 4691   3.156   2.726  25.124 -0.3252 -0.0677 -0.7041
   35POPC   H6S 4692   3.072   2.791  24.985 -0.0881  0.3145  0.5436
   35POPC   C27 4693   2.994   2.607  25.040  0.0864  0.1523 -0.4030
   35POPC   H7R 4694   3.038   2.569  24.946  2.4247 -2.9243  1.7542
   35POPC   H7S 4695   2.885   2.615  25.016  0.1087  2.9690  0.0635
   35POPC   C28 4696   3.025   2.490  25.144  0.1657 -1.2100  0.0363
   35POPC   H8R 4697   2.975   2.525  25.237 -2.5866 -0.8595 -1.4579
   35POPC   H8S 4698   3.133   2.472  25.158 -0.2694 -3.8346  0.5614
   35POPC   C29 4699   2.956   2.362  25.104 -0.4612 -0.2244  0.2528
   35POPC   H91 4700   2.858   2.346  25.152 -0.5487  0.2211  0.2211
   35POPC  C210 4701   3.018   2.266  25.030  0.1534 -0.2629 -0.0464
   35POPC  H101 4702   2.950   2.183  25.004 -1.1407  0.0923  2.0075
   35POPC  C211 4703   3.160   2.273  24.958  0.6376 -0.1420  0.7648
   35POPC  H11R 4704   3.213   2.176  24.961  0.7986 -0.0281  1.7781
   35POPC  H11S 4705   3.232   2.349  24.994 -0.1632  0.8000  0.4312
   35POPC  C212 4706   3.143   2.308  24.808  0.6186 -0.2007 -0.5457
   35POPC  H12R 4707   3.119   2.415  24.795  0.9957 -0.1144 -0.5551
   35POPC  H12S 4708   3.061   2.252  24.760 -0.7975  0.0937  1.4324
   35POPC  C213 4709   3.275   2.294  24.727  0.6651 -0.3205  0.6954
   35POPC  H13R 4710   3.358   2.340  24.786  1.0186 -0.7495  0.5415
   35POPC  H13S 4711   3.269   2.357  24.636  0.6445  0.9079  1.5306
   35POPC  C214 4712   3.308   2.157  24.670 -1.2169 -0.6541  0.1575
   35POPC  H14R 4713   3.337   2.079  24.744  0.6576 -0.5598 -0.4144
   35POPC  H14S 4714   3.399   2.188  24.613 -1.0735  0.2033  0.8364
   35POPC  C215 4715   3.211   2.098  24.569 -0.1260  0.5570 -0.4901
   35POPC  H15R 4716   3.163   2.178  24.509 -2.0423  0.0639  0.3003
   35POPC  H15S 4717   3.121   2.056  24.620 -1.6218  1.1479 -2.4993
   35POPC  C216 4718   3.269   1.992  24.477 -0.2435 -0.1891  0.5453
   35POPC  H16R 4719   3.319   1.912  24.535  0.5590 -0.0278  0.0857
   35POPC  H16S 4720   3.351   2.048  24.427  0.1538  1.3029  2.7252
   35POPC  C217 4721   3.156   1.940  24.375 -0.5268  0.1198  0.3896
   35POPC  H17R 4722   3.104   2.029  24.334  1.5482  0.9915 -0.4836
   35POPC  H17S 4723   3.089   1.872  24.432  1.2980 -1.8176  0.3739
   35POPC  C218 4724   3.213   1.862  24.260  0.0756 -0.8866 -0.1971
   35POPC  H18R 4725   3.291   1.917  24.203  0.4445 -0.7351  0.4455
   35POPC  H18S 4726   3.127   1.858  24.189 -1.7822  2.5068  1.6147
   35POPC  H18T 4727   3.241   1.759  24.292 -1.8104 -0.2386  4.2656
   35POPC   C33 4728   2.858   2.715  25.633 -0.5646 -0.1372 -0.7309
   35POPC   H3X 4729   2.760   2.687  25.588  0.2551 -1.6939 -1.6173
   35POPC   H3Y 4730   2.847   2.691  25.741  2.1223 -1.7492 -0.7165
   35POPC   C34 4731   2.963   2.627  25.574  0.4140  0.3420 -0.5692
   35POPC   H4X 4732   3.051   2.634  25.642  1.4523 -0.0207 -1.8427
   35POPC   H4Y 4733   2.984   2.658  25.470  0.2139  3.0573  0.1317
   35POPC   C35 4734   2.920   2.476  25.567  0.2721  0.3429 -0.1947
   35POPC   H5X 4735   2.831   2.479  25.501  1.1273 -0.8735 -1.4536
   35POPC   H5Y 4736   2.883   2.440  25.665 -0.8600 -1.7612 -1.3218
   35POPC   C36 4737   3.024   2.386  25.518 -0.3944 -0.1264 -0.0136
   35POPC   H6X 4738   3.121   2.408  25.566  1.6155 -1.5839 -3.0586
   35POPC   H6Y 4739   3.041   2.397  25.409 -2.0217  2.6323 -0.0856
   35POPC   C37 4740   2.987   2.240  25.541 -0.7278 -0.3016  0.1880
   35POPC   H7X 4741   2.881   2.237  25.510 -0.3862  1.1040 -1.2759
   35POPC   H7Y 4742   2.990   2.222  25.650 -0.5164  1.6117  0.5369
   35POPC   C38 4743   3.060   2.134  25.459  0.0374 -0.5772  0.3091
   35POPC   H8X 4744   3.081   2.172  25.356 -0.0410 -1.7091 -0.1429
   35POPC   H8Y 4745   2.986   2.053  25.444  1.1437 -1.8519  1.5273
   35POPC   C39 4746   3.180   2.080  25.541 -0.6821 -0.3853 -0.4147
   35POPC   H9X 4747   3.157   2.064  25.649  1.8773 -0.3160  0.1930
   35POPC   H9Y 4748   3.259   2.158  25.548 -0.4222 -0.6154 -0.7538
   35POPC  C310 4749   3.244   1.953  25.489  0.1973  0.1953 -0.2748
   35POPC  H10X 4750   3.329   1.929  25.556 -0.8247 -1.2504  0.5597
   35POPC  H10Y 4751   3.285   1.977  25.388 -0.2895  0.1051 -0.4940
   35POPC  C311 4752   3.149   1.836  25.474  0.1158  0.9210  0.5744
   35POPC  H11X 4753   3.075   1.856  25.395 -0.2430  1.2664  0.9937
   35POPC  H11Y 4754   3.093   1.835  25.570 -0.7226 -0.2926  0.0957
   35POPC  C312 4755   3.209   1.696  25.449  0.5888  0.2395 -0.1150
   35POPC  H12X 4756   3.277   1.692  25.361 -0.3002  1.2711 -0.8809
   35POPC  H12Y 4757   3.119   1.637  25.420  0.0120  1.6706 -1.4509
   35POPC  C313 4758   3.286   1.643  25.570  0.2683  0.7822  0.2362
   35POPC  H13X 4759   3.217   1.615  25.652 -1.1077 -0.3807 -1.2495
   35POPC  H13Y 4760   3.358   1.718  25.608 -1.5402  1.3673  2.7728
   35POPC  C314 4761   3.358   1.510  25.530 -0.8895  0.8804 -0.6321
   35POPC  H14X 4762   3.441   1.495  25.602 -1.3968  1.6582  0.1298
   35POPC  H14Y 4763   3.407   1.522  25.431 -0.4407 -0.4775 -0.5996
   35POPC  C315 4764   3.263   1.390  25.530  0.1511  0.2709 -0.3324
   35POPC  H15X 4765   3.195   1.416  25.447 -0.1686  1.7989  0.3763
   35POPC  H15Y 4766   3.196   1.404  25.618  1.6184  0.1890  0.8492
   35POPC  C316 4767   3.330   1.253  25.515  0.2138  0.1086 -0.4579
   35POPC  H16X 4768   3.384   1.236  25.611  0.9717  2.3688 -0.4217
   35POPC  H16Y 4769   3.404   1.248  25.432  0.5555  1.9778 -0.3264
   35POPC  H16Z 4770   3.244   1.183  25.519 -0.9827  1.5777  1.0174
   36POPC     N 4771   1.387   0.896  31.396  0.3410 -0.5041  0.3483
   36POPC   C12 4772   1.347   0.900  31.248  0.0230 -0.1784 -0.0513
   36POPC  H12A 4773   1.283   0.985  31.226  0.6837  0.3442  0.0289
   36POPC  H12B 4774   1.285   0.813  31.233 -0.0837 -0.0237 -0.5447
   36POPC   C13 4775   1.272   0.930  31.485 -0.6629  0.3289  0.3377
   36POPC  H13A 4776   1.239   1.027  31.449 -0.1085 -0.3168 -2.1365
   36POPC  H13B 4777   1.200   0.850  31.481  0.0312 -0.3283  0.8662
   36POPC  H13C 4778   1.318   0.938  31.582  0.3943  1.8350 -0.2403
   36POPC   C14 4779   1.430   0.756  31.437  0.0046 -0.0935 -0.1343
   36POPC  H14A 4780   1.464   0.701  31.350 -0.1094  0.2847 -0.4213
   36POPC  H14B 4781   1.502   0.768  31.517  0.1954  0.4115 -0.3788
   36POPC  H14C 4782   1.346   0.697  31.471 -0.3559  0.0259 -0.8048
   36POPC   C15 4783   1.504   0.987  31.417  0.6429  0.1547  0.4552
   36POPC  H15A 4784   1.483   1.090  31.393  2.9513  0.4070 -0.8409
   36POPC  H15B 4785   1.582   0.953  31.350 -0.3976 -0.4388 -0.4803
   36POPC  H15C 4786   1.534   0.977  31.521  0.4663 -1.7598  0.3559
   36POPC   C11 4787   1.457   0.881  31.156  0.1804  0.4913 -0.1831
   36POPC  H11A 4788   1.541   0.954  31.164 -0.3733  1.1309 -0.0629
   36POPC  H11B 4789   1.418   0.897  31.054  0.7857  0.2184 -0.4657
   36POPC     P 4790   1.450   0.631  31.070 -0.2672 -0.1023 -0.1337
   36POPC   O13 4791   1.321   0.605  31.126 -0.1911 -0.7304 -0.2674
   36POPC   O14 4792   1.548   0.525  31.073  0.4660 -0.1876 -0.5246
   36POPC   O12 4793   1.512   0.748  31.158 -0.2865 -0.0472  0.8478
   36POPC   O11 4794   1.455   0.691  30.924 -0.0929  0.5074 -0.1467
   36POPC    C1 4795   1.581   0.718  30.862  0.1303 -0.2626  0.4558
   36POPC    HA 4796   1.579   0.688  30.755 -1.2477  1.1906  0.0363
   36POPC    HB 4797   1.668   0.660  30.901 -0.3095 -0.0278  1.8219
   36POPC    C2 4798   1.619   0.873  30.848  0.6748 -0.4582 -0.6141
   36POPC    HS 4799   1.658   0.906  30.946  0.5414  1.4320 -1.1638
   36POPC   O21 4800   1.503   0.956  30.799 -0.3645 -0.0021 -0.5173
   36POPC   C21 4801   1.509   1.080  30.839  0.1215  0.0193  0.0961
   36POPC   O22 4802   1.587   1.125  30.923  0.5894 -0.4939  0.2614
   36POPC   C22 4803   1.415   1.174  30.753 -0.6130 -0.0872  0.4093
   36POPC   H2R 4804   1.325   1.201  30.812 -1.2611  0.5267 -0.8185
   36POPC   H2S 4805   1.388   1.122  30.658 -0.1372  0.5875 -0.1040
   36POPC    C3 4806   1.724   0.891  30.743 -0.0738 -0.1948 -0.2086
   36POPC    HX 4807   1.678   0.854  30.649 -1.3845 -0.1644  0.4010
   36POPC    HY 4808   1.805   0.818  30.764 -0.8190 -1.0320 -0.1803
   36POPC   O31 4809   1.774   1.028  30.730  0.4064  0.4064  0.0993
   36POPC   C31 4810   1.862   1.049  30.822 -0.7263  0.6770  0.8862
   36POPC   O32 4811   1.895   0.974  30.912 -0.3769  0.0260 -0.0733
   36POPC   C32 4812   1.914   1.191  30.812  0.7392 -0.4658  0.5381
   36POPC   H2X 4813   1.833   1.259  30.777  1.1021 -0.0813  0.4421
   36POPC   H2Y 4814   1.991   1.193  30.733 -0.1614 -0.6276 -0.3671
   36POPC   C23 4815   1.492   1.311  30.722  0.3047  0.1805 -0.1556
   36POPC   H3R 4816   1.567   1.354  30.791  1.9406  1.0966 -2.3679
   36POPC   H3S 4817   1.416   1.387  30.696  0.3275  0.4573  0.5673
   36POPC   C24 4818   1.571   1.295  30.595  0.3786  1.0059  0.7187
   36POPC   H4R 4819   1.497   1.276  30.514  1.2754  2.9184 -0.6009
   36POPC   H4S 4820   1.630   1.201  30.598 -0.2821  0.2818 -3.1510
   36POPC   C25 4821   1.652   1.415  30.558 -0.3298  0.5242  0.3209
   36POPC   H5R 4822   1.727   1.444  30.636 -1.1123  2.9280  0.2764
   36POPC   H5S 4823   1.588   1.506  30.571 -1.6469 -0.2537 -0.5499
   36POPC   C26 4824   1.700   1.415  30.413 -0.4004  0.1866 -0.2526
   36POPC   H6R 4825   1.613   1.397  30.346  0.0454 -0.4634 -0.6732
   36POPC   H6S 4826   1.756   1.323  30.385 -0.9822 -0.2772  0.0868
   36POPC   C27 4827   1.766   1.545  30.387  0.8464 -0.5961  0.2992
   36POPC   H7R 4828   1.737   1.621  30.463  0.7677 -1.8538  1.5940
   36POPC   H7S 4829   1.745   1.573  30.282 -0.9776 -2.4643  0.1036
   36POPC   C28 4830   1.916   1.516  30.405  0.0817 -0.0042 -0.4844
   36POPC   H8R 4831   1.942   1.438  30.330  0.0330  0.0063 -0.5129
   36POPC   H8S 4832   1.931   1.462  30.501  3.0224 -4.0008 -2.8266
   36POPC   C29 4833   1.982   1.649  30.386  0.4637 -0.3998  0.2960
   36POPC   H91 4834   2.006   1.703  30.479  1.4114 -2.0050  1.0192
   36POPC  C210 4835   2.026   1.703  30.268  0.3602  0.1405 -0.6112
   36POPC  H101 4836   2.074   1.802  30.262 -2.3373  1.7190  1.1846
   36POPC  C211 4837   2.005   1.638  30.131 -0.9131  0.1547 -0.2226
   36POPC  H11R 4838   1.987   1.529  30.143  0.1301  0.0545  0.5634
   36POPC  H11S 4839   2.102   1.648  30.078 -0.4939  1.4916  0.7407
   36POPC  C212 4840   1.903   1.699  30.038  0.1742  0.1181  0.4413
   36POPC  H12R 4841   1.803   1.675  30.079 -0.2928 -2.5995 -1.9259
   36POPC  H12S 4842   1.911   1.646  29.941  0.0054 -0.0271  0.5057
   36POPC  C213 4843   1.926   1.846  30.002 -0.3638 -0.3023  0.3267
   36POPC  H13R 4844   2.019   1.848  29.941 -1.8692 -0.0875 -2.1130
   36POPC  H13S 4845   1.946   1.907  30.093  1.1466 -1.0296  0.5092
   36POPC  C214 4846   1.808   1.925  29.938 -1.0466  0.3987  0.0209
   36POPC  H14R 4847   1.731   1.919  30.018 -0.7692  1.3801  0.3767
   36POPC  H14S 4848   1.776   1.872  29.846 -1.3467  0.8661 -0.1491
   36POPC  C215 4849   1.825   2.076  29.934 -0.6372  0.3712 -0.6331
   36POPC  H15R 4850   1.925   2.092  29.890 -0.6342 -0.4938 -0.9462
   36POPC  H15S 4851   1.823   2.115  30.039 -3.6761 -0.6353 -0.1992
   36POPC  C216 4852   1.722   2.161  29.857  0.3953  0.7727 -0.4205
   36POPC  H16R 4853   1.625   2.114  29.882  0.7744 -0.2621 -0.8345
   36POPC  H16S 4854   1.733   2.150  29.747  0.9467  0.4993 -0.3416
   36POPC  C217 4855   1.713   2.313  29.882  0.5195  0.2199 -0.1422
   36POPC  H17R 4856   1.695   2.342  29.987  1.2607  0.8112 -0.1730
   36POPC  H17S 4857   1.616   2.340  29.835 -0.1060  0.4479  1.2358
   36POPC  C218 4858   1.827   2.390  29.811  0.3002  0.4848 -0.2605
   36POPC  H18R 4859   1.822   2.492  29.852 -0.9695 -0.5291  2.2652
   36POPC  H18S 4860   1.812   2.389  29.700  1.4761  0.3079 -0.4375
   36POPC  H18T 4861   1.923   2.339  29.835 -0.4832 -1.5014 -1.0519
   36POPC   C33 4862   1.955   1.238  30.957  0.7858 -0.5034 -0.7365
   36POPC   H3X 4863   2.042   1.183  30.998  0.8625  0.4003  0.3439
   36POPC   H3Y 4864   1.869   1.230  31.027  2.4791  0.8986  1.6337
   36POPC   C34 4865   1.980   1.386  30.976 -0.4715  1.1401 -0.5001
   36POPC   H4X 4866   2.068   1.399  30.910  0.4983  0.7211  0.6906
   36POPC   H4Y 4867   2.018   1.422  31.074  0.7205  0.0781 -0.5587
   36POPC   C35 4868   1.867   1.475  30.926  0.3410 -0.2236  0.1543
   36POPC   H5X 4869   1.770   1.439  30.966 -0.2543 -0.7474 -1.6402
   36POPC   H5Y 4870   1.851   1.462  30.817 -1.4765 -2.6919  0.6311
   36POPC   C36 4871   1.895   1.627  30.953 -0.7603  0.5904 -0.0189
   36POPC   H6X 4872   1.958   1.674  30.874  0.3020  2.1875  1.6924
   36POPC   H6Y 4873   1.956   1.627  31.045  2.0758 -4.1755 -1.5356
   36POPC   C37 4874   1.767   1.708  30.962  0.0043 -0.0596 -0.1632
   36POPC   H7X 4875   1.786   1.797  31.025 -1.9137  2.1526 -2.5156
   36POPC   H7Y 4876   1.680   1.652  31.001 -0.2384  1.5235  1.7007
   36POPC   C38 4877   1.735   1.783  30.828 -0.2420 -0.4504 -0.1978
   36POPC   H8X 4878   1.726   1.715  30.741 -0.0386 -0.0651 -0.5209
   36POPC   H8Y 4879   1.819   1.851  30.806 -0.8751 -0.2823 -2.2890
   36POPC   C39 4880   1.600   1.854  30.833 -0.1245 -0.0887 -0.5656
   36POPC   H9X 4881   1.607   1.943  30.899 -0.6381 -0.2585 -0.2716
   36POPC   H9Y 4882   1.522   1.791  30.882  1.4999 -0.9662  0.9953
   36POPC  C310 4883   1.549   1.898  30.696 -0.0609  0.0896 -0.7975
   36POPC  H10X 4884   1.443   1.930  30.702  0.3938  1.5261  0.1655
   36POPC  H10Y 4885   1.541   1.810  30.629 -0.0217 -1.3592  0.9998
   36POPC  C311 4886   1.618   2.020  30.634 -0.7164  0.3151 -0.6673
   36POPC  H11X 4887   1.724   1.987  30.639 -0.8768 -0.1154  0.0058
   36POPC  H11Y 4888   1.591   2.105  30.700 -1.8860  0.5956 -1.4561
   36POPC  C312 4889   1.580   2.036  30.484 -0.1277 -0.1104 -0.4312
   36POPC  H12X 4890   1.592   1.942  30.426 -0.7606 -1.0139  0.8770
   36POPC  H12Y 4891   1.663   2.094  30.438  1.4029 -1.0534  1.0282
   36POPC  C313 4892   1.445   2.111  30.458 -0.2066  0.1669 -0.3173
   36POPC  H13X 4893   1.459   2.210  30.506  1.6241 -2.4430  5.5021
   36POPC  H13Y 4894   1.367   2.050  30.509 -0.4599  0.3488 -0.4888
   36POPC  C314 4895   1.402   2.117  30.308 -0.0932  0.3652  0.4444
   36POPC  H14X 4896   1.298   2.153  30.293 -0.5600 -0.9071  0.4954
   36POPC  H14Y 4897   1.400   2.013  30.268 -0.4269  0.3922  0.3871
   36POPC  C315 4898   1.504   2.199  30.218  0.3056 -0.6393 -0.3419
   36POPC  H15X 4899   1.466   2.199  30.114  0.3810 -4.3334 -0.5013
   36POPC  H15Y 4900   1.603   2.149  30.218 -0.6052 -2.5965  1.7741
   36POPC  C316 4901   1.524   2.344  30.258  0.0416  0.4852 -0.4450
   36POPC  H16X 4902   1.424   2.391  30.250 -0.1851 -0.2119 -1.9889
   36POPC  H16Y 4903   1.593   2.403  30.193 -0.0631  0.8297 -0.2469
   36POPC  H16Z 4904   1.559   2.350  30.364  0.4610 -0.8930 -0.4876
   37POPC     N 4905   3.759   1.737  17.539  0.2267  0.0251 -0.0857
   37POPC   C12 4906   3.673   1.852  17.487  0.0938  0.2606  0.1636
   37POPC  H12A 4907   3.573   1.814  17.473 -1.3011  4.5017 -4.4241
   37POPC  H12B 4908   3.702   1.877  17.386  1.9688 -0.4265  0.5033
   37POPC   C13 4909   3.901   1.774  17.534 -0.1691 -0.3639  0.7812
   37POPC  H13A 4910   3.913   1.869  17.583  0.2191 -0.0699  0.1184
   37POPC  H13B 4911   3.974   1.700  17.564  0.4745  0.4207  1.1942
   37POPC  H13C 4912   3.946   1.798  17.439  0.1211  0.2991  1.0825
   37POPC   C14 4913   3.716   1.699  17.679 -0.4351  0.4140 -0.3589
   37POPC  H14A 4914   3.610   1.679  17.690 -0.0707 -1.3184  0.3686
   37POPC  H14B 4915   3.771   1.614  17.718  0.5187  1.7565  1.3261
   37POPC  H14C 4916   3.745   1.776  17.748  3.4593 -1.2160  0.0842
   37POPC   C15 4917   3.730   1.628  17.451 -0.5040  0.0483  0.0136
   37POPC  H15A 4918   3.750   1.528  17.487  1.9576 -0.0773 -1.4622
   37POPC  H15B 4919   3.788   1.633  17.360 -3.5406  0.2005 -2.0666
   37POPC  H15C 4920   3.627   1.633  17.420 -1.0039 -0.4415  1.5055
   37POPC   C11 4921   3.664   1.986  17.573  0.1907  0.7174  0.2118
   37POPC  H11A 4922   3.663   1.971  17.683 -0.3107  0.1179  0.1371
   37POPC  H11B 4923   3.563   2.027  17.548 -0.5049 -2.4517 -3.1076
   37POPC     P 4924   3.771   2.147  17.401  0.3407 -0.6086  0.1327
   37POPC   O13 4925   3.682   2.081  17.302  0.3024 -0.4992 -0.0035
   37POPC   O14 4926   3.906   2.187  17.355  0.0262  0.3761  0.1687
   37POPC   O12 4927   3.777   2.069  17.543  0.5304  0.1621  0.0435
   37POPC   O11 4928   3.699   2.290  17.446 -0.1573  0.2649 -0.4116
   37POPC    C1 4929   3.717   2.337  17.587 -0.6406 -0.0313  0.1306
   37POPC    HA 4930   3.815   2.306  17.630  0.0341 -0.6798 -1.7836
   37POPC    HB 4931   3.637   2.295  17.652 -0.6618  0.3581  0.3556
   37POPC    C2 4932   3.719   2.491  17.586  0.4037 -0.4457 -0.4217
   37POPC    HS 4933   3.721   2.522  17.692 -0.8652  0.7967 -0.7298
   37POPC   O21 4934   3.603   2.553  17.527 -0.1180  0.8120 -0.2989
   37POPC   C21 4935   3.495   2.548  17.607 -0.6921 -0.2480 -0.8814
   37POPC   O22 4936   3.505   2.504  17.720 -0.1159 -0.1510 -0.1623
   37POPC   C22 4937   3.363   2.600  17.544 -0.1296 -0.2787  0.0198
   37POPC   H2R 4938   3.386   2.675  17.466  0.2705 -1.4115 -0.9739
   37POPC   H2S 4939   3.319   2.644  17.636 -0.3047 -0.9002  0.2388
   37POPC    C3 4940   3.844   2.552  17.512 -0.0828  0.4107  0.2118
   37POPC    HX 4941   3.840   2.518  17.406  0.0476 -0.7667  0.5660
   37POPC    HY 4942   3.936   2.506  17.553 -1.6481 -1.1826  2.1465
   37POPC   O31 4943   3.845   2.698  17.524  0.5042 -0.1048  0.0986
   37POPC   C31 4944   3.797   2.763  17.415 -0.0599  0.1596 -0.0267
   37POPC   O32 4945   3.787   2.717  17.305 -0.2257 -0.0525 -0.4867
   37POPC   C32 4946   3.736   2.899  17.455  0.7056 -0.6326 -0.0520
   37POPC   H2X 4947   3.631   2.877  17.483  0.2888 -1.6079 -2.1177
   37POPC   H2Y 4948   3.738   2.950  17.356 -1.8000 -0.6599 -0.1670
   37POPC   C23 4949   3.274   2.491  17.476  0.0961 -0.3491 -0.1172
   37POPC   H3R 4950   3.337   2.464  17.388  1.4319  0.9308  0.4096
   37POPC   H3S 4951   3.176   2.535  17.445 -1.0902 -2.2165  0.8079
   37POPC   C24 4952   3.244   2.376  17.568 -1.4434  1.0106 -0.5813
   37POPC   H4R 4953   3.331   2.311  17.592 -2.9478  0.0649  2.9333
   37POPC   H4S 4954   3.186   2.307  17.503 -0.0041 -0.4304 -0.3895
   37POPC   C25 4955   3.146   2.382  17.685  0.4937 -0.5629  0.6090
   37POPC   H5R 4956   3.209   2.398  17.775 -0.9407 -1.7547  1.8789
   37POPC   H5S 4957   3.112   2.277  17.702  3.0243 -1.7578 -1.0200
   37POPC   C26 4958   3.031   2.488  17.673 -0.3032 -0.2339  0.2106
   37POPC   H6R 4959   2.990   2.464  17.573  0.7496 -0.9618 -0.0661
   37POPC   H6S 4960   3.066   2.593  17.684 -0.3649 -0.1931  0.0202
   37POPC   C27 4961   2.911   2.464  17.769 -0.5070 -0.4107  0.4317
   37POPC   H7R 4962   2.954   2.465  17.871  2.0938  0.7379 -0.5852
   37POPC   H7S 4963   2.864   2.365  17.749 -1.6010  0.5988 -2.6025
   37POPC   C28 4964   2.802   2.576  17.745  0.7279  0.7797  0.2561
   37POPC   H8R 4965   2.749   2.562  17.648 -0.2074  0.6299  0.7817
   37POPC   H8S 4966   2.853   2.673  17.730 -1.1620  1.6335 -1.0285
   37POPC   C29 4967   2.687   2.568  17.844 -0.2142 -0.9048  0.3227
   37POPC   H91 4968   2.657   2.467  17.873 -0.7029 -0.6634  0.6711
   37POPC  C210 4969   2.622   2.669  17.904  0.5152  0.2059 -0.2238
   37POPC  H101 4970   2.531   2.649  17.962  0.5205  0.6512 -0.0604
   37POPC  C211 4971   2.640   2.816  17.890 -0.6232 -0.3710 -0.4587
   37POPC  H11R 4972   2.548   2.866  17.853 -0.5107 -0.4836 -0.9003
   37POPC  H11S 4973   2.709   2.839  17.806 -1.4164 -1.8129 -1.5622
   37POPC  C212 4974   2.656   2.900  18.015 -0.2944 -0.1639  0.8166
   37POPC  H12R 4975   2.725   2.862  18.093 -0.5636 -1.0972  0.6189
   37POPC  H12S 4976   2.564   2.892  18.076 -0.2298 -0.8459  0.8385
   37POPC  C213 4977   2.689   3.046  17.983  1.0818 -0.4704 -0.4016
   37POPC  H13R 4978   2.598   3.084  17.931  1.5011 -2.1912 -2.5572
   37POPC  H13S 4979   2.774   3.058  17.912  0.7182  0.9997 -0.6073
   37POPC  C214 4980   2.714   3.133  18.108  0.0316  0.4039  0.1455
   37POPC  H14R 4981   2.780   3.065  18.167  0.9202  1.4329  0.3679
   37POPC  H14S 4982   2.626   3.140  18.176 -0.0778  0.6995 -0.0282
   37POPC  C215 4983   2.793   3.261  18.086 -0.4120 -0.8203  0.0386
   37POPC  H15R 4984   2.738   3.330  18.019  0.1818  0.6815  1.0190
   37POPC  H15S 4985   2.884   3.226  18.034  0.1018 -2.8270  2.0862
   37POPC  C216 4986   2.825   3.315  18.226 -0.0030  0.0142 -1.1218
   37POPC  H16R 4987   2.904   3.393  18.212 -0.8585  1.0873 -0.1951
   37POPC  H16S 4988   2.879   3.238  18.285 -0.5706 -0.8275 -1.6805
   37POPC  C217 4989   2.709   3.377  18.314 -0.5854  0.4328  0.4733
   37POPC  H17R 4990   2.625   3.306  18.333 -1.2566  1.0507 -0.1237
   37POPC  H17S 4991   2.668   3.461  18.254  0.7093  0.5846 -0.2354
   37POPC  C218 4992   2.769   3.449  18.438  0.7018 -0.1419 -0.5964
   37POPC  H18R 4993   2.831   3.380  18.499  3.1658  0.9874 -1.6344
   37POPC  H18S 4994   2.685   3.500  18.490  1.7529 -0.0348  1.0861
   37POPC  H18T 4995   2.835   3.533  18.406 -0.1089  0.3515 -1.0082
   37POPC   C33 4996   3.831   2.968  17.557 -0.0923  0.0575  0.1235
   37POPC   H3X 4997   3.933   2.987  17.517 -0.6234 -0.5551 -1.6420
   37POPC   H3Y 4998   3.832   2.910  17.652  1.0683 -2.9933 -1.6158
   37POPC   C34 4999   3.783   3.119  17.586 -0.3718 -0.4157  0.5504
   37POPC   H4X 5000   3.795   3.176  17.491  3.9804 -1.5575  0.2181
   37POPC   H4Y 5001   3.852   3.174  17.653  0.6200 -1.5983  0.5365
   37POPC   C35 5002   3.639   3.123  17.644  0.0725  0.0267  0.2517
   37POPC   H5X 5003   3.643   3.042  17.720  2.3429 -0.6633 -0.5340
   37POPC   H5Y 5004   3.561   3.092  17.571  0.9255  0.5798 -0.9281
   37POPC   C36 5005   3.582   3.260  17.706  0.2954  0.6908  0.0997
   37POPC   H6X 5006   3.645   3.284  17.795 -1.2077  0.6073  1.2319
   37POPC   H6Y 5007   3.475   3.241  17.730  0.2629  2.2310  1.3778
   37POPC   C37 5008   3.582   3.372  17.609 -0.4785 -0.7270  0.2203
   37POPC   H7X 5009   3.539   3.329  17.516  1.1165 -0.9926 -0.4152
   37POPC   H7Y 5010   3.686   3.396  17.577 -0.9943 -1.2381 -2.0339
   37POPC   C38 5011   3.495   3.491  17.653 -1.0988  0.0075 -0.0213
   37POPC   H8X 5012   3.392   3.451  17.661 -0.8903 -1.8790 -4.0064
   37POPC   H8Y 5013   3.493   3.573  17.578 -1.3799  1.5192  1.5935
   37POPC   C39 5014   3.556   3.546  17.783  0.2069 -0.4860 -0.3482
   37POPC   H9X 5015   3.660   3.509  17.793  0.2177 -0.4829 -0.4401
   37POPC   H9Y 5016   3.498   3.516  17.873 -2.3156  0.7504 -1.4454
   37POPC  C310 5017   3.549   3.700  17.791  0.3313 -0.5103 -0.6595
   37POPC  H10X 5018   3.446   3.741  17.797  0.3909 -0.3710 -0.5714
   37POPC  H10Y 5019   3.603   3.747  17.706 -0.1976  0.9198 -0.2423
   37POPC  C311 5020   3.630   3.755  17.915 -0.1353 -0.5104  0.8388
   37POPC  H11X 5021   3.732   3.711  17.917 -1.0620 -2.8686 -0.2879
   37POPC  H11Y 5022   3.579   3.726  18.010 -0.5415 -1.7032  0.2696
   37POPC  C312 5023   3.637   3.907  17.910 -0.2085 -0.2044 -0.1940
   37POPC  H12X 5024   3.535   3.948  17.896 -1.1907 -2.6617 -0.9191
   37POPC  H12Y 5025   3.692   3.951  17.824 -2.3357  0.3335 -1.3404
   37POPC  C313 5026   3.704   3.969  18.038  0.0646  0.0926 -0.3209
   37POPC  H13X 5027   3.655   3.931  18.129 -1.8002 -0.8507 -1.6477
   37POPC  H13Y 5028   3.700   4.080  18.037  0.4132  0.1089 -1.3772
   37POPC  C314 5029   3.853   3.931  18.035  1.0416  0.5153  0.8316
   37POPC  H14X 5030   3.893   3.935  17.932 -1.0484  0.8511 -0.0164
   37POPC  H14Y 5031   3.875   3.832  18.081 -2.8352 -0.0758  1.7258
   37POPC  C315 5032   3.937   4.028  18.116  0.6655  0.2474  1.0198
   37POPC  H15X 5033   3.941   4.130  18.070  0.6408  0.8699  2.3425
   37POPC  H15Y 5034   4.041   3.993  18.103  0.5643  0.0081  0.8368
   37POPC  C316 5035   3.892   4.053  18.259 -0.3713  1.0684  0.5043
   37POPC  H16X 5036   3.787   4.087  18.266 -0.7809 -0.2913  1.1474
   37POPC  H16Y 5037   3.966   4.127  18.298 -1.3584  1.0666  2.4737
   37POPC  H16Z 5038   3.899   3.962  18.321 -1.4866  1.0289  0.5953
   38POPC     N 5039   1.534   2.250  22.043 -0.8500  0.3380 -0.2650
   38POPC   C12 5040   1.469   2.331  21.937 -0.1416 -0.3183 -0.0518
   38POPC  H12A 5041   1.499   2.431  21.966 -1.8725  0.8738 -2.0866
   38POPC  H12B 5042   1.363   2.321  21.955 -0.1345  0.9913  0.8544
   38POPC   C13 5043   1.496   2.104  22.027 -0.5158 -0.4209 -0.3245
   38POPC  H13A 5044   1.388   2.100  22.030 -0.5256  0.5839  1.2889
   38POPC  H13B 5045   1.529   2.057  21.935  1.7284  0.3261  0.0460
   38POPC  H13C 5046   1.547   2.051  22.106  0.1102  0.6384 -0.0095
   38POPC   C14 5047   1.681   2.269  22.017  0.2548  0.9274 -0.0157
   38POPC  H14A 5048   1.719   2.196  21.947 -0.2810 -1.8932  2.4325
   38POPC  H14B 5049   1.714   2.368  21.987  1.6564  0.3613 -0.4494
   38POPC  H14C 5050   1.729   2.252  22.112  0.5529  0.5408 -0.2335
   38POPC   C15 5051   1.511   2.295  22.185 -0.1525 -0.4772 -0.7986
   38POPC  H15A 5052   1.564   2.228  22.251  0.3921  0.7612  0.0534
   38POPC  H15B 5053   1.407   2.279  22.211  0.4975 -2.0133  1.0962
   38POPC  H15C 5054   1.545   2.395  22.206 -0.3177 -0.7757  1.0236
   38POPC   C11 5055   1.495   2.317  21.780  0.0190  0.1122  0.2809
   38POPC  H11A 5056   1.606   2.311  21.774  0.2461  3.2268 -0.1747
   38POPC  H11B 5057   1.461   2.414  21.738 -2.1716 -0.7123  0.0065
   38POPC     P 5058   1.273   2.209  21.707 -0.4507  0.0428 -0.1267
   38POPC   O13 5059   1.229   2.077  21.654  0.3083  0.5063  0.6696
   38POPC   O14 5060   1.234   2.332  21.634 -0.5593  0.0264  0.1405
   38POPC   O12 5061   1.429   2.209  21.716 -0.3865  0.0577  0.0642
   38POPC   O11 5062   1.230   2.225  21.862 -0.3282  0.6791 -0.5680
   38POPC    C1 5063   1.098   2.278  21.886 -0.2562 -0.0121  0.1016
   38POPC    HA 5064   1.044   2.205  21.950  0.6370  0.5243  1.5082
   38POPC    HB 5065   1.041   2.297  21.793 -1.0058 -0.8022  0.3858
   38POPC    C2 5066   1.104   2.401  21.986 -0.6128  0.9143  0.8048
   38POPC    HS 5067   1.003   2.446  21.983 -1.5083 -1.0209  0.3460
   38POPC   O21 5068   1.209   2.492  21.939  0.4301  0.2919  0.3178
   38POPC   C21 5069   1.182   2.585  21.849  0.0692  0.3831 -0.5900
   38POPC   O22 5070   1.070   2.602  21.797  0.0871 -0.1619 -0.3996
   38POPC   C22 5071   1.300   2.677  21.836  0.4599 -0.0717  0.2053
   38POPC   H2R 5072   1.335   2.661  21.732 -0.6808 -1.9654  0.0764
   38POPC   H2S 5073   1.368   2.637  21.914 -0.2410  0.8595  1.3408
   38POPC    C3 5074   1.141   2.349  22.125  0.6849  0.2636  0.2488
   38POPC    HX 5075   1.243   2.305  22.117  1.6290  2.5235 -0.9940
   38POPC    HY 5076   1.073   2.266  22.155  0.9757  0.2468  0.9024
   38POPC   O31 5077   1.134   2.458  22.213 -0.3090  0.0134  0.0713
   38POPC   C31 5078   1.208   2.453  22.323 -0.5661  0.1319  0.9178
   38POPC   O32 5079   1.267   2.351  22.358  0.7487  0.0289 -0.6077
   38POPC   C32 5080   1.218   2.583  22.394 -0.0577 -0.3548  0.4298
   38POPC   H2X 5081   1.287   2.648  22.335  1.8367 -1.0314  1.7951
   38POPC   H2Y 5082   1.263   2.560  22.493 -0.9220 -2.4447  0.3929
   38POPC   C23 5083   1.264   2.823  21.880 -0.1935  0.1836  0.1720
   38POPC   H3R 5084   1.191   2.867  21.809  1.2922  0.4432 -1.2394
   38POPC   H3S 5085   1.358   2.878  21.857 -0.0202 -1.1449 -2.6845
   38POPC   C24 5086   1.226   2.831  22.024  0.2216 -0.1237  0.6580
   38POPC   H4R 5087   1.313   2.785  22.077  1.9523 -1.7345 -3.1911
   38POPC   H4S 5088   1.134   2.770  22.038  1.1133 -1.9461 -1.0127
   38POPC   C25 5089   1.216   2.980  22.066 -0.8036  0.1640 -0.4935
   38POPC   H5R 5090   1.153   3.034  21.993  0.7371 -0.3452 -2.2985
   38POPC   H5S 5091   1.314   3.032  22.072 -2.4972  3.4103  2.4533
   38POPC   C26 5092   1.150   2.997  22.207  0.5519  0.5684 -0.0421
   38POPC   H6R 5093   1.216   2.939  22.275 -0.1371  1.0427  1.0448
   38POPC   H6S 5094   1.048   2.953  22.209  1.3133 -1.2857  0.8685
   38POPC   C27 5095   1.146   3.142  22.247 -0.3057 -0.6894  0.5647
   38POPC   H7R 5096   1.069   3.157  22.326  1.2458 -3.0409  2.6749
   38POPC   H7S 5097   1.108   3.199  22.159  1.2418 -0.3816  0.0562
   38POPC   C28 5098   1.273   3.208  22.315  0.4780 -0.0017 -0.1485
   38POPC   H8R 5099   1.248   3.310  22.352 -1.2037  0.7000 -2.9053
   38POPC   H8S 5100   1.356   3.208  22.241  1.8686  2.0718  1.2883
   38POPC   C29 5101   1.321   3.112  22.425  0.4188 -1.1008 -0.0227
   38POPC   H91 5102   1.363   3.019  22.384  1.0167 -0.7111 -0.2912
   38POPC  C210 5103   1.318   3.142  22.560 -0.8861  0.2666  0.8449
   38POPC  H101 5104   1.356   3.070  22.634  0.0537 -0.4357 -0.2925
   38POPC  C211 5105   1.264   3.262  22.628  0.7855  0.0516  0.7799
   38POPC  H11R 5106   1.223   3.237  22.728  2.9040 -0.1972  1.6354
   38POPC  H11S 5107   1.176   3.298  22.569  0.8466 -3.2994 -1.6216
   38POPC  C212 5108   1.370   3.369  22.650 -0.3901 -0.8165 -0.5311
   38POPC  H12R 5109   1.418   3.398  22.553 -1.2158  3.2461  0.0741
   38POPC  H12S 5110   1.444   3.329  22.723 -2.0313 -2.2484  0.4278
   38POPC  C213 5111   1.300   3.488  22.713 -0.1378 -0.0832  0.0505
   38POPC  H13R 5112   1.249   3.452  22.805  0.8910  0.0618  0.6930
   38POPC  H13S 5113   1.220   3.525  22.645 -0.9391 -2.2150 -0.2396
   38POPC  C214 5114   1.406   3.594  22.742 -0.1946 -0.0537  0.3387
   38POPC  H14R 5115   1.508   3.550  22.742 -0.3361 -0.5129 -2.3971
   38POPC  H14S 5116   1.375   3.646  22.836 -3.7145  0.2252 -0.8438
   38POPC  C215 5117   1.417   3.698  22.627  0.1959 -0.6060 -0.9870
   38POPC  H15R 5118   1.332   3.768  22.633  1.5533  1.2892 -2.4321
   38POPC  H15S 5119   1.412   3.666  22.521 -0.3762  0.5619 -1.3320
   38POPC  C216 5120   1.544   3.794  22.652 -0.0324 -0.5121  0.2707
   38POPC  H16R 5121   1.633   3.727  22.647  1.4496  1.4254 -3.9560
   38POPC  H16S 5122   1.551   3.856  22.743  0.1443  2.2367 -1.5185
   38POPC  C217 5123   1.562   3.880  22.525 -0.4126 -0.2920  0.8866
   38POPC  H17R 5124   1.466   3.906  22.475  0.0267  1.1362  0.7432
   38POPC  H17S 5125   1.620   3.822  22.449  0.5602  0.5480  0.9692
   38POPC  C218 5126   1.644   4.009  22.546  0.6494  0.9854  0.1096
   38POPC  H18R 5127   1.672   4.050  22.447 -1.4464 -0.7077 -1.2621
   38POPC  H18S 5128   1.737   3.989  22.604  2.4228  0.2838 -2.7553
   38POPC  H18T 5129   1.586   4.076  22.613  0.7674  1.5896 -0.3818
   38POPC   C33 5130   1.085   2.649  22.401 -0.1656 -0.1035  0.3181
   38POPC   H3X 5131   1.020   2.573  22.450  0.9542 -0.8355  0.7158
   38POPC   H3Y 5132   1.047   2.688  22.304  0.0095 -0.9672 -0.1122
   38POPC   C34 5133   1.083   2.772  22.496  0.4545 -0.2245 -0.3785
   38POPC   H4X 5134   1.165   2.844  22.474  1.7856 -2.1921 -2.2643
   38POPC   H4Y 5135   1.095   2.736  22.601  0.0969  1.1549  0.1616
   38POPC   C35 5136   0.945   2.855  22.494  0.1038  0.1635  0.6561
   38POPC   H5X 5137   0.866   2.783  22.524  1.1328 -1.2552  0.0721
   38POPC   H5Y 5138   0.933   2.887  22.388  0.1943 -1.5792  0.0944
   38POPC   C36 5139   0.929   2.980  22.586  0.3562  0.2643  0.0051
   38POPC   H6X 5140   1.014   3.052  22.584 -0.4795  1.3449  1.4645
   38POPC   H6Y 5141   0.940   2.934  22.687  1.2577 -0.7555 -0.5295
   38POPC   C37 5142   0.789   3.050  22.564  0.6396  0.3998  0.3887
   38POPC   H7X 5143   0.709   2.978  22.591 -1.7326  1.9605 -1.9949
   38POPC   H7Y 5144   0.772   3.086  22.460 -1.6485  2.5326  1.4173
   38POPC   C38 5145   0.765   3.172  22.656 -0.6332 -0.0133  0.0989
   38POPC   H8X 5146   0.805   3.160  22.759 -1.5754  0.6560  0.5622
   38POPC   H8Y 5147   0.656   3.192  22.670 -0.6599 -0.1097  0.0290
   38POPC   C39 5148   0.832   3.298  22.596 -0.2053  0.1756  0.5497
   38POPC   H9X 5149   0.777   3.337  22.507 -0.9530  0.8161  1.2778
   38POPC   H9Y 5150   0.933   3.275  22.556 -0.4433  0.1515 -0.0531
   38POPC  C310 5151   0.840   3.418  22.694  0.2777 -0.5108 -0.0614
   38POPC  H10X 5152   0.745   3.413  22.751 -0.5310 -0.0924 -1.3343
   38POPC  H10Y 5153   0.848   3.510  22.632 -0.6123  0.0627  0.6609
   38POPC  C311 5154   0.949   3.422  22.791 -0.3201  0.3220 -0.7012
   38POPC  H11X 5155   1.050   3.412  22.745 -0.3998  0.6562 -0.9565
   38POPC  H11Y 5156   0.938   3.340  22.865  2.0360 -0.0451 -0.6820
   38POPC  C312 5157   0.927   3.542  22.883 -0.9482  0.2583 -0.0611
   38POPC  H12X 5158   0.835   3.530  22.943  0.4161 -0.3883  2.0215
   38POPC  H12Y 5159   0.923   3.630  22.816 -0.3176  0.5046  0.2143
   38POPC  C313 5160   1.040   3.573  22.983  0.1860  0.1795 -0.2780
   38POPC  H13X 5161   1.109   3.639  22.926 -0.9470 -0.4599 -2.5050
   38POPC  H13Y 5162   1.088   3.480  23.021  1.0166  0.7911  0.1945
   38POPC  C314 5163   1.005   3.658  23.111 -0.6109 -0.0737 -0.6234
   38POPC  H14X 5164   0.904   3.639  23.152 -0.0766  0.2347  0.8928
   38POPC  H14Y 5165   1.021   3.764  23.083  2.2498 -0.4770 -0.8509
   38POPC  C315 5166   1.109   3.627  23.226 -0.2678 -0.5353 -0.0938
   38POPC  H15X 5167   1.198   3.582  23.177  0.7777 -2.2017  3.0410
   38POPC  H15Y 5168   1.067   3.545  23.289  1.2743 -0.8637  0.5457
   38POPC  C316 5169   1.147   3.748  23.306  0.1575  0.0169  0.3281
   38POPC  H16X 5170   1.225   3.733  23.384 -0.3060 -2.1519  0.4411
   38POPC  H16Y 5171   1.064   3.803  23.355  0.2462 -0.0690  0.5792
   38POPC  H16Z 5172   1.180   3.817  23.225 -0.2727  0.5033  0.5642
   39POPC     N 5173   0.306   2.621  15.625 -0.6895  0.1154  0.0245
   39POPC   C12 5174   0.378   2.642  15.759 -0.3793 -0.0315  0.1533
   39POPC  H12A 5175   0.465   2.701  15.735 -1.4726  1.3834 -0.5247
   39POPC  H12B 5176   0.416   2.544  15.781  1.1373  0.5556  0.2157
   39POPC   C13 5177   0.208   2.514  15.634 -0.1180 -0.4015  0.2187
   39POPC  H13A 5178   0.249   2.420  15.668 -0.2306  0.0780  1.7665
   39POPC  H13B 5179   0.131   2.533  15.707  0.1832  2.2611 -0.0590
   39POPC  H13C 5180   0.159   2.493  15.540  0.3690 -1.4773  0.1920
   39POPC   C14 5181   0.238   2.740  15.586 -0.1971  0.1047 -0.0431
   39POPC  H14A 5182   0.190   2.720  15.491  0.6704  3.1312 -1.2174
   39POPC  H14B 5183   0.160   2.772  15.654 -0.0479 -3.1251  1.8858
   39POPC  H14C 5184   0.313   2.818  15.581 -1.4490  1.4023  0.7492
   39POPC   C15 5185   0.406   2.576  15.524 -0.7454  0.3519 -0.6566
   39POPC  H15A 5186   0.363   2.543  15.431 -0.8290  0.4656 -0.6588
   39POPC  H15B 5187   0.460   2.496  15.573 -2.4239  0.0893  0.8837
   39POPC  H15C 5188   0.477   2.656  15.513 -0.6282 -0.0677 -3.5404
   39POPC   C11 5189   0.296   2.702  15.879 -0.0866 -0.1796 -0.3069
   39POPC  H11A 5190   0.251   2.800  15.854  0.9523  0.9251  1.8562
   39POPC  H11B 5191   0.358   2.723  15.969 -0.2774 -1.0435  0.0406
   39POPC     P 5192   0.068   2.655  15.998 -0.1799  0.2451 -0.5920
   39POPC   O13 5193   0.005   2.535  16.058  0.3002 -0.0564  0.0222
   39POPC   O14 5194  -0.012   2.743  15.917  0.4883  0.0269 -0.1776
   39POPC   O12 5195   0.198   2.608  15.926  0.5395  0.3064  0.0391
   39POPC   O11 5196   0.124   2.741  16.115 -0.2222  0.1030 -0.1716
   39POPC    C1 5197   0.066   2.854  16.175  0.7508 -0.3642  0.2596
   39POPC    HA 5198   0.065   2.848  16.286 -1.7449  3.8204  0.6705
   39POPC    HB 5199  -0.040   2.865  16.144  0.7367 -2.3368 -0.5356
   39POPC    C2 5200   0.126   2.992  16.133  0.1615 -0.2397  0.0733
   39POPC    HS 5201   0.105   3.003  16.025 -0.0946 -1.3651 -0.0095
   39POPC   O21 5202   0.269   2.983  16.156  0.5284  0.1302  0.0998
   39POPC   C21 5203   0.350   3.032  16.059  0.2499 -0.4417  0.2501
   39POPC   O22 5204   0.316   3.066  15.944  0.2951 -0.4237 -0.1797
   39POPC   C22 5205   0.496   3.028  16.095  0.1584 -0.6047 -0.0130
   39POPC   H2R 5206   0.541   3.028  15.993  1.3746  0.8931  0.4965
   39POPC   H2S 5207   0.504   2.934  16.153 -2.2501  0.1377  1.6729
   39POPC    C3 5208   0.059   3.121  16.185 -0.0104 -0.1216 -0.3076
   39POPC    HX 5209  -0.045   3.135  16.150 -0.3849  0.5480  0.9966
   39POPC    HY 5210   0.114   3.208  16.144 -0.5402  0.5856  0.4535
   39POPC   O31 5211   0.070   3.119  16.330 -0.0709 -0.7329 -0.7275
   39POPC   C31 5212  -0.037   3.077  16.395  0.2878 -0.0609  0.4582
   39POPC   O32 5213  -0.139   3.045  16.338 -0.6620 -0.4756  0.1865
   39POPC   C32 5214  -0.010   3.103  16.545 -0.3914 -0.3068  0.2995
   39POPC   H2X 5215   0.076   3.037  16.569 -1.4359 -1.7088  0.3494
   39POPC   H2Y 5216   0.015   3.210  16.560  0.1873 -0.5053  0.8028
   39POPC   C23 5217   0.543   3.152  16.171  0.0087  0.2807  0.5860
   39POPC   H3R 5218   0.482   3.239  16.140  0.1131  1.1188  2.5594
   39POPC   H3S 5219   0.650   3.181  16.157 -0.5043  1.7266 -0.4956
   39POPC   C24 5220   0.510   3.133  16.320 -0.7207 -0.2705  0.1901
   39POPC   H4R 5221   0.405   3.097  16.320  0.0149 -2.7927 -2.5372
   39POPC   H4S 5222   0.512   3.226  16.381 -1.8477  0.1213 -0.3399
   39POPC   C25 5223   0.580   3.020  16.402  0.7074  0.0895  0.3161
   39POPC   H5R 5224   0.689   3.041  16.408  1.0423 -1.3529 -0.2490
   39POPC   H5S 5225   0.551   2.925  16.351  1.3195  0.7873 -1.4195
   39POPC   C26 5226   0.531   3.011  16.543  1.0361 -0.0009  0.1708
   39POPC   H6R 5227   0.569   3.105  16.589 -0.4982  0.6656  0.1366
   39POPC   H6S 5228   0.571   2.921  16.594  0.9925  0.3063  0.7498
   39POPC   C27 5229   0.377   3.013  16.567  0.0223 -0.0383 -0.2233
   39POPC   H7R 5230   0.336   2.916  16.529  0.6634 -1.5090  2.5718
   39POPC   H7S 5231   0.327   3.098  16.516 -0.1508  1.2971  2.0448
   39POPC   C28 5232   0.332   3.037  16.713 -0.3348 -0.4935  0.4962
   39POPC   H8R 5233   0.222   3.046  16.703 -0.2768 -0.3516 -0.0597
   39POPC   H8S 5234   0.368   3.136  16.750 -0.3502 -0.6597  0.9670
   39POPC   C29 5235   0.362   2.924  16.812  0.2478 -0.0764 -0.2664
   39POPC   H91 5236   0.336   2.823  16.778  2.8342 -0.5085 -1.1915
   39POPC  C210 5237   0.444   2.935  16.926  0.0735  0.1365  0.6920
   39POPC  H101 5238   0.463   2.843  16.982 -2.4981  0.0607  1.5762
   39POPC  C211 5239   0.523   3.053  16.984 -0.0120 -0.4930 -0.1483
   39POPC  H11R 5240   0.492   3.155  16.955  1.5498 -0.1865 -0.8013
   39POPC  H11S 5241   0.631   3.034  16.969  0.1971 -0.7386  1.4774
   39POPC  C212 5242   0.484   3.055  17.140  0.8299  0.7091  0.1541
   39POPC  H12R 5243   0.506   2.954  17.183 -2.4835  0.1037  0.6927
   39POPC  H12S 5244   0.375   3.072  17.155  0.6176  0.9056 -1.4750
   39POPC  C213 5245   0.572   3.148  17.223  0.1701 -0.3358  0.7323
   39POPC  H13R 5246   0.674   3.104  17.210  0.4696 -0.0452  1.9757
   39POPC  H13S 5247   0.538   3.138  17.328  0.9262  1.3652  1.1957
   39POPC  C214 5248   0.574   3.288  17.179 -0.6307 -0.0317  0.3010
   39POPC  H14R 5249   0.483   3.349  17.196  0.9118  2.7357 -0.7418
   39POPC  H14S 5250   0.596   3.305  17.071 -2.0083 -0.0132  0.0057
   39POPC  C215 5251   0.683   3.366  17.257 -0.1175 -0.2848 -0.0142
   39POPC  H15R 5252   0.787   3.335  17.235 -0.6072 -0.0612 -3.0596
   39POPC  H15S 5253   0.656   3.354  17.364  0.4412 -1.1392  0.0406
   39POPC  C216 5254   0.687   3.519  17.222  0.2387  0.1571  0.3533
   39POPC  H16R 5255   0.582   3.549  17.206  0.4429  0.1364 -1.2454
   39POPC  H16S 5256   0.740   3.530  17.125 -1.2995 -0.6602 -0.6260
   39POPC  C217 5257   0.748   3.599  17.337 -0.0817 -0.0701 -0.0841
   39POPC  H17R 5258   0.856   3.610  17.316 -0.5444 -0.7938 -3.4479
   39POPC  H17S 5259   0.725   3.547  17.432  1.9156 -0.3051  0.3179
   39POPC  C218 5260   0.688   3.736  17.344 -0.2031  0.6549  0.1127
   39POPC  H18R 5261   0.716   3.798  17.257 -0.6296  2.3949  1.1594
   39POPC  H18S 5262   0.735   3.784  17.433  0.7371  0.5948 -0.3314
   39POPC  H18T 5263   0.578   3.729  17.356 -0.0447  0.2602  1.6130
   39POPC   C33 5264  -0.140   3.086  16.627 -0.6243  0.1833 -0.2342
   39POPC   H3X 5265  -0.182   2.984  16.613 -0.8799  0.4088 -1.2472
   39POPC   H3Y 5266  -0.211   3.164  16.592  0.3209  0.7731 -0.8797
   39POPC   C34 5267  -0.107   3.111  16.780 -0.0904  0.6055 -1.0400
   39POPC   H4X 5268  -0.037   3.028  16.804  0.3084  0.6385 -2.0402
   39POPC   H4Y 5269  -0.199   3.102  16.842  0.6249 -1.4604 -0.1811
   39POPC   C35 5270  -0.051   3.246  16.822 -0.4086 -0.8884  0.2946
   39POPC   H5X 5271   0.054   3.255  16.787 -0.1263  0.1708  1.3137
   39POPC   H5Y 5272  -0.062   3.256  16.933 -0.9094 -0.5377  0.2170
   39POPC   C36 5273  -0.126   3.365  16.759  0.6566 -0.4687  0.6372
   39POPC   H6X 5274  -0.229   3.359  16.802 -0.2438  0.2287 -1.3288
   39POPC   H6Y 5275  -0.120   3.376  16.649 -1.0659 -1.6709  0.3849
   39POPC   C37 5276  -0.076   3.507  16.814  0.2632  0.0688 -0.4407
   39POPC   H7X 5277   0.032   3.522  16.793  0.5945  1.5908  1.9053
   39POPC   H7Y 5278  -0.089   3.521  16.924  0.7535  1.7547 -0.5629
   39POPC   C38 5279  -0.146   3.617  16.730  0.6712  0.2416  0.1240
   39POPC   H8X 5280  -0.248   3.577  16.708  0.5894 -0.2575  1.2965
   39POPC   H8Y 5281  -0.098   3.627  16.631 -1.0234 -2.3689 -1.0912
   39POPC   C39 5282  -0.158   3.761  16.788  0.0754  0.4269 -0.3296
   39POPC   H9X 5283  -0.201   3.840  16.723  0.9296  0.0272 -1.4031
   39POPC   H9Y 5284  -0.053   3.794  16.801  0.2744 -0.3357  0.0894
   39POPC  C310 5285  -0.232   3.782  16.929  0.0359  0.1826 -0.5892
   39POPC  H10X 5286  -0.238   3.892  16.948  1.3317 -0.1536  2.3360
   39POPC  H10Y 5287  -0.169   3.737  17.009  0.3058 -0.2951 -1.0684
   39POPC  C311 5288  -0.372   3.727  16.925  0.0198 -0.7924 -0.9344
   39POPC  H11X 5289  -0.364   3.617  16.917  2.4283 -0.6554 -1.2418
   39POPC  H11Y 5290  -0.422   3.765  16.834 -0.3077  0.2761 -0.3308
   39POPC  C312 5291  -0.460   3.766  17.044 -0.1176  0.2690  0.0505
   39POPC  H12X 5292  -0.399   3.754  17.136  2.1655 -0.3257 -1.4398
   39POPC  H12Y 5293  -0.548   3.699  17.034 -0.3928  0.9289 -2.9046
   39POPC  C313 5294  -0.517   3.907  17.036 -1.1380 -0.1552 -0.0998
   39POPC  H13X 5295  -0.560   3.927  16.935 -0.5812  0.7778 -0.1679
   39POPC  H13Y 5296  -0.434   3.979  17.050 -2.2684  1.7420 -2.4076
   39POPC  C314 5297  -0.628   3.921  17.137 -0.6168  0.0196  0.6038
   39POPC  H14X 5298  -0.697   3.834  17.125  0.3192 -0.8357  1.2541
   39POPC  H14Y 5299  -0.687   4.009  17.107  0.0154  0.2792  0.0915
   39POPC  C315 5300  -0.575   3.933  17.281  0.2275 -0.1135  0.5623
   39POPC  H15X 5301  -0.574   4.041  17.303  2.5492 -0.2288  1.3200
   39POPC  H15Y 5302  -0.472   3.896  17.302  0.5685  0.3701 -0.1828
   39POPC  C316 5303  -0.665   3.863  17.376  0.5649 -0.3909 -0.9504
   39POPC  H16X 5304  -0.665   3.904  17.479 -1.2701 -0.3774 -0.9200
   39POPC  H16Y 5305  -0.647   3.754  17.380 -0.0542 -0.4619  0.6883
   39POPC  H16Z 5306  -0.773   3.882  17.355  0.7169 -0.3406 -1.7209
   40POPC     N 5307   2.453   2.174  20.747 -0.7795 -0.0021 -0.4825
   40POPC   C12 5308   2.491   2.243  20.617 -0.0777  0.8502 -0.7776
   40POPC  H12A 5309   2.564   2.181  20.568  1.1616 -2.7677  4.7738
   40POPC  H12B 5310   2.527   2.343  20.637 -3.4615  2.1226 -0.3189
   40POPC   C13 5311   2.357   2.265  20.822  0.0223 -0.6194 -0.2117
   40POPC  H13A 5312   2.265   2.284  20.769 -0.6012 -1.2231  0.6123
   40POPC  H13B 5313   2.349   2.222  20.921  1.3030 -2.9371 -1.0256
   40POPC  H13C 5314   2.402   2.360  20.844 -1.2947 -0.0035 -0.0809
   40POPC   C14 5315   2.384   2.048  20.725  0.1715  0.0387 -0.0387
   40POPC  H14A 5316   2.364   2.000  20.819  1.8028  1.3132  1.0313
   40POPC  H14B 5317   2.288   2.062  20.677 -0.3551  2.1741  1.4837
   40POPC  H14C 5318   2.449   1.983  20.668 -0.4415 -0.4839 -0.1413
   40POPC   C15 5319   2.581   2.160  20.822  0.2920  0.1349  0.0042
   40POPC  H15A 5320   2.634   2.254  20.828  1.4184 -0.3903 -1.0855
   40POPC  H15B 5321   2.649   2.086  20.781 -0.6419 -0.1132 -1.1735
   40POPC  H15C 5322   2.564   2.135  20.925  2.7611 -1.5603  0.0893
   40POPC   C11 5323   2.378   2.265  20.507 -1.0089 -0.0584 -0.1431
   40POPC  H11A 5324   2.335   2.165  20.486  0.6632 -0.6171 -1.1661
   40POPC  H11B 5325   2.431   2.292  20.414 -1.1568  0.7675  0.0037
   40POPC     P 5326   2.320   2.522  20.553  0.8408 -0.1833  0.2767
   40POPC   O13 5327   2.350   2.583  20.418  0.4544  0.3307  0.8383
   40POPC   O14 5328   2.423   2.543  20.659  0.3180 -0.0236  0.2329
   40POPC   O12 5329   2.281   2.366  20.534 -0.0452  0.0705  0.2020
   40POPC   O11 5330   2.186   2.585  20.611  0.3913  0.4570 -0.3220
   40POPC    C1 5331   2.057   2.564  20.547  0.0729  0.0236  0.0694
   40POPC    HA 5332   1.972   2.587  20.614 -2.4083 -1.1728 -2.4240
   40POPC    HB 5333   2.054   2.456  20.518  1.7209  0.0607 -0.3563
   40POPC    C2 5334   2.035   2.635  20.413  0.2122  0.0381 -0.6940
   40POPC    HS 5335   2.125   2.617  20.350  1.1423  2.4228 -0.1431
   40POPC   O21 5336   2.042   2.778  20.438  1.2592  0.3798 -0.4331
   40POPC   C21 5337   2.070   2.847  20.335  0.3126 -0.8193 -0.0982
   40POPC   O22 5338   2.080   2.803  20.219  0.1745  0.3765  0.0340
   40POPC   C22 5339   2.086   2.995  20.375 -0.2100  0.0089 -0.0741
   40POPC   H2R 5340   2.014   3.013  20.457 -0.9093  1.6575 -1.0061
   40POPC   H2S 5341   2.060   3.051  20.283  1.1074 -0.5537 -0.8260
   40POPC    C3 5342   1.905   2.570  20.348  0.7079 -0.2432 -0.4827
   40POPC    HX 5343   1.822   2.608  20.411  0.2966  1.9192 -2.1867
   40POPC    HY 5344   1.893   2.460  20.356 -0.1140 -0.5371 -3.8861
   40POPC   O31 5345   1.876   2.625  20.214  0.2824  0.2425 -0.2724
   40POPC   C31 5346   1.945   2.569  20.118 -0.4624  0.3603  0.5494
   40POPC   O32 5347   2.038   2.491  20.144 -0.4421 -0.0588 -0.6184
   40POPC   C32 5348   1.899   2.620  19.983  0.4142  0.3143  0.0611
   40POPC   H2X 5349   1.990   2.658  19.932 -1.0805  1.1853 -2.0949
   40POPC   H2Y 5350   1.826   2.704  19.993 -0.2380  0.4104 -3.9399
   40POPC   C23 5351   2.222   3.035  20.425 -0.9484  0.1537 -0.5148
   40POPC   H3R 5352   2.290   2.961  20.379  0.2732  0.7877  0.2006
   40POPC   H3S 5353   2.236   3.022  20.535  2.6168 -0.3698 -0.9225
   40POPC   C24 5354   2.267   3.175  20.388 -0.7327 -0.0532  0.0409
   40POPC   H4R 5355   2.363   3.195  20.440  0.4026  2.0877 -2.6221
   40POPC   H4S 5356   2.198   3.249  20.434  0.2272  1.4246 -0.8081
   40POPC   C25 5357   2.280   3.199  20.232  0.2105 -0.6774 -0.5232
   40POPC   H5R 5358   2.178   3.198  20.188  0.6416 -2.4118 -1.5925
   40POPC   H5S 5359   2.341   3.124  20.176  0.0972 -1.9930  1.0444
   40POPC   C26 5360   2.351   3.335  20.216 -0.1766  0.5293  0.5521
   40POPC   H6R 5361   2.433   3.348  20.289  2.0972 -1.1098 -1.5595
   40POPC   H6S 5362   2.271   3.410  20.235 -1.1904  0.5334 -2.9008
   40POPC   C27 5363   2.397   3.361  20.075  0.2236  0.0877  0.8095
   40POPC   H7R 5364   2.331   3.326  19.994  1.1968 -0.3227  0.1743
   40POPC   H7S 5365   2.488   3.298  20.070 -1.4364 -2.6422  2.5669
   40POPC   C28 5366   2.436   3.510  20.047 -0.0674  0.3506 -0.4991
   40POPC   H8R 5367   2.478   3.507  19.945  0.3769  1.1188 -0.3438
   40POPC   H8S 5368   2.521   3.541  20.112  0.1148 -1.5882  0.2749
   40POPC   C29 5369   2.326   3.614  20.043  0.0292  0.1300  0.3738
   40POPC   H91 5370   2.262   3.596  19.956  1.9364 -0.6022 -0.9481
   40POPC  C210 5371   2.302   3.717  20.128  0.3564 -0.4103  0.8930
   40POPC  H101 5372   2.220   3.789  20.119  1.7351  1.0392 -0.7786
   40POPC  C211 5373   2.372   3.726  20.261 -0.5080  0.4857 -0.1787
   40POPC  H11R 5374   2.482   3.706  20.260 -0.6117 -0.1424 -1.5046
   40POPC  H11S 5375   2.316   3.664  20.334 -0.8565 -1.2441 -1.8297
   40POPC  C212 5376   2.359   3.870  20.310 -0.3090  0.2618 -0.2834
   40POPC  H12R 5377   2.395   3.881  20.415  2.0152  0.7741 -1.0666
   40POPC  H12S 5378   2.250   3.892  20.311  0.2064  3.2276 -0.4860
   40POPC  C213 5379   2.415   3.976  20.215 -0.2166  0.4017  0.4171
   40POPC  H13R 5380   2.357   3.993  20.122 -0.3916 -2.1705 -0.0417
   40POPC  H13S 5381   2.511   3.928  20.185 -2.0687 -3.1149 -0.4831
   40POPC  C214 5382   2.426   4.110  20.286  0.4545  0.2074  0.0907
   40POPC  H14R 5383   2.494   4.092  20.371  1.0065  1.5080 -0.0526
   40POPC  H14S 5384   2.329   4.143  20.328 -0.3360  1.5478 -2.5322
   40POPC  C215 5385   2.497   4.219  20.209  0.1210  0.4451  0.4039
   40POPC  H15R 5386   2.489   4.318  20.259 -1.6861  1.3824 -1.5982
   40POPC  H15S 5387   2.446   4.231  20.111 -1.4323  0.0495  1.1257
   40POPC  C216 5388   2.639   4.182  20.167 -0.0008  0.4520  0.2783
   40POPC  H16R 5389   2.628   4.120  20.076  1.2933  0.9806 -0.2686
   40POPC  H16S 5390   2.673   4.111  20.246  1.1836 -0.4030 -0.9568
   40POPC  C217 5391   2.734   4.299  20.158 -0.2419 -0.4196  0.5153
   40POPC  H17R 5392   2.752   4.340  20.260  0.0442 -1.0028  0.6991
   40POPC  H17S 5393   2.691   4.379  20.094  1.8882  1.6495  1.4787
   40POPC  C218 5394   2.864   4.241  20.093  0.0562  0.2847  0.0927
   40POPC  H18R 5395   2.912   4.173  20.167 -0.5739 -0.7475 -0.4302
   40POPC  H18S 5396   2.928   4.331  20.074 -0.1898  1.1176  2.7957
   40POPC  H18T 5397   2.839   4.185  20.000 -2.3459 -1.6040  1.7382
   40POPC   C33 5398   1.824   2.507  19.906  0.2439 -0.4628 -0.1338
   40POPC   H3X 5399   1.739   2.458  19.958 -1.4465  2.2205 -0.2031
   40POPC   H3Y 5400   1.892   2.427  19.868 -1.8975 -2.0172 -0.8879
   40POPC   C34 5401   1.764   2.567  19.775 -0.3483  0.2437  0.0791
   40POPC   H4X 5402   1.685   2.641  19.802 -0.8823 -0.4953  0.5834
   40POPC   H4Y 5403   1.713   2.477  19.736 -4.1785  0.2808  4.2163
   40POPC   C35 5404   1.857   2.636  19.679 -0.4616 -0.0133 -0.1062
   40POPC   H5X 5405   1.908   2.560  19.617  0.3087 -0.6457  1.2556
   40POPC   H5Y 5406   1.930   2.702  19.732  0.3525 -1.8043  1.1098
   40POPC   C36 5407   1.770   2.737  19.604 -0.5036 -0.3315  0.5836
   40POPC   H6X 5408   1.714   2.809  19.667 -0.0769  0.8753 -0.3817
   40POPC   H6Y 5409   1.688   2.698  19.539 -0.0252  0.3335 -0.4408
   40POPC   C37 5410   1.868   2.821  19.513 -0.7181 -0.0633 -0.7289
   40POPC   H7X 5411   1.932   2.753  19.453 -0.8811  1.6631 -2.9895
   40POPC   H7Y 5412   1.942   2.867  19.581  0.6511 -1.4734 -1.2250
   40POPC   C38 5413   1.801   2.921  19.426  0.1722 -0.6147  0.4438
   40POPC   H8X 5414   1.727   2.984  19.479  1.0712  1.6345 -0.8189
   40POPC   H8Y 5415   1.754   2.872  19.338  0.8703 -1.6465  0.6238
   40POPC   C39 5416   1.892   3.021  19.362 -0.1115  0.4306 -0.0433
   40POPC   H9X 5417   1.863   3.042  19.257  1.9785 -0.9975 -0.9801
   40POPC   H9Y 5418   1.997   2.987  19.350  0.1104  1.4180 -1.1383
   40POPC  C310 5419   1.912   3.150  19.440 -0.2709 -0.4302  0.2866
   40POPC  H10X 5420   1.987   3.133  19.520 -0.3738  1.5070  0.8527
   40POPC  H10Y 5421   1.815   3.188  19.479  0.8841  0.9538  1.9536
   40POPC  C311 5422   1.967   3.276  19.365  0.2855  0.2005 -0.1240
   40POPC  H11X 5423   1.914   3.281  19.268  1.5815 -0.6364 -0.8972
   40POPC  H11Y 5424   2.073   3.246  19.349  1.5364  3.8139  0.3192
   40POPC  C312 5425   1.964   3.406  19.438  0.1091 -0.1064 -0.0089
   40POPC  H12X 5426   1.857   3.430  19.458 -0.1032 -1.7784  1.0194
   40POPC  H12Y 5427   2.014   3.489  19.383 -1.7686  1.5197  0.5857
   40POPC  C313 5428   2.018   3.395  19.581 -0.1718  0.1585  0.2679
   40POPC  H13X 5429   1.963   3.318  19.640  1.5334 -0.2548  1.4058
   40POPC  H13Y 5430   1.999   3.491  19.634 -2.3260  1.1661 -2.1254
   40POPC  C314 5431   2.163   3.357  19.574 -0.1055  0.4915 -0.0941
   40POPC  H14X 5432   2.220   3.403  19.490  2.8929 -0.7950  1.0865
   40POPC  H14Y 5433   2.162   3.251  19.542  1.5270  0.6397 -0.7521
   40POPC  C315 5434   2.239   3.372  19.709  0.0501 -0.2639  0.2289
   40POPC  H15X 5435   2.194   3.314  19.792  0.8506 -1.0631  0.1087
   40POPC  H15Y 5436   2.232   3.480  19.734 -1.1148 -0.2866  0.0744
   40POPC  C316 5437   2.375   3.326  19.699 -0.3534  0.3307 -0.0408
   40POPC  H16X 5438   2.430   3.411  19.652 -2.6854  1.4664 -0.8869
   40POPC  H16Y 5439   2.379   3.224  19.655  1.3734 -0.9322  2.7816
   40POPC  H16Z 5440   2.423   3.302  19.796  0.7134 -1.0557 -0.8702
   41CHL1    C3 5441   0.768   0.675  23.943 -0.2224 -0.6037  0.1892
   41CHL1    H3 5442   0.698   0.750  23.985 -2.2280 -2.7454  0.8732
   41CHL1    O3 5443   0.729   0.547  23.993 -0.5517 -0.4629 -0.3492
   41CHL1   H3' 5444   0.800   0.485  23.975 -0.6914 -0.2908 -1.6421
   41CHL1    C4 5445   0.759   0.669  23.787  0.1854 -0.3797  0.4110
   41CHL1   H4A 5446   0.832   0.590  23.759 -0.0265 -1.4759  2.6673
   41CHL1   H4B 5447   0.658   0.632  23.757  0.7938  0.1152 -2.5180
   41CHL1    C5 5448   0.787   0.803  23.726  0.4057 -0.7220 -0.0367
   41CHL1    C6 5449   0.702   0.869  23.634  0.3183  0.1823 -1.1287
   41CHL1    H6 5450   0.606   0.826  23.604 -0.0636 -0.7032  1.2025
   41CHL1    C7 5451   0.734   1.005  23.564  0.2948 -0.4921 -0.2602
   41CHL1   H7A 5452   0.696   1.004  23.459 -1.9492  1.7039  0.4614
   41CHL1   H7B 5453   0.681   1.087  23.616  2.1908  0.3052  0.4740
   41CHL1    C8 5454   0.880   1.047  23.580  0.2174 -0.4727 -0.0831
   41CHL1    H8 5455   0.940   0.989  23.506 -1.4897 -1.3761 -0.8222
   41CHL1   C14 5456   0.897   1.198  23.546 -0.0507  1.2289  0.5918
   41CHL1   H14 5457   0.843   1.251  23.627 -0.1464 -0.1134  1.4461
   41CHL1   C15 5458   0.842   1.242  23.413 -0.3069  1.1225  0.0844
   41CHL1  H15A 5459   0.877   1.174  23.333  0.5750  0.3606  1.0832
   41CHL1  H15B 5460   0.731   1.249  23.422 -0.3289  0.4066  0.4904
   41CHL1   C16 5461   0.911   1.377  23.395 -0.0344  0.6039  0.2070
   41CHL1  H16A 5462   0.956   1.366  23.294  1.1452  0.8193  0.6876
   41CHL1  H16B 5463   0.844   1.464  23.381 -1.4784 -0.7128 -1.5219
   41CHL1   C17 5464   1.017   1.392  23.506 -0.6847  0.0553 -0.5366
   41CHL1   H17 5465   0.973   1.454  23.586  0.6317  0.7140 -0.2980
   41CHL1   C13 5466   1.038   1.243  23.546  0.9156  0.2888  0.0651
   41CHL1   C18 5467   1.127   1.168  23.441 -0.3140  0.1504  0.4413
   41CHL1  H18A 5468   1.224   1.220  23.426 -0.7330  1.0969  0.9762
   41CHL1  H18B 5469   1.134   1.062  23.474  1.0197 -0.1956 -0.8159
   41CHL1  H18C 5470   1.085   1.193  23.341 -1.0795 -0.7825  0.5188
   41CHL1   C12 5471   1.089   1.228  23.694 -0.6259 -0.1613  0.7365
   41CHL1  H12A 5472   1.196   1.258  23.690 -0.4229 -0.8630  0.8674
   41CHL1  H12B 5473   1.031   1.300  23.756  0.2318  0.9217  0.3074
   41CHL1   C11 5474   1.075   1.084  23.745 -0.3366  0.0251  0.3097
   41CHL1  H11A 5475   1.156   1.025  23.697 -0.5948 -0.1663  0.1059
   41CHL1  H11B 5476   1.095   1.077  23.854  1.4955 -1.6713 -0.0732
   41CHL1    C9 5477   0.938   1.016  23.717  0.4933 -1.2943 -0.7538
   41CHL1    H9 5478   0.865   1.074  23.778  0.6671 -1.5292 -0.3172
   41CHL1   C10 5479   0.929   0.863  23.761  0.6060  0.0664  0.5386
   41CHL1   C19 5480   1.041   0.777  23.686  0.1564 -0.0905  0.1066
   41CHL1  H19A 5481   1.040   0.799  23.577  0.8125 -1.8307 -0.2928
   41CHL1  H19B 5482   1.140   0.802  23.730  0.0900  1.3604 -0.5058
   41CHL1  H19C 5483   1.019   0.668  23.685  0.1943 -0.0984  0.1215
   41CHL1    C1 5484   0.949   0.849  23.916  0.2597 -0.4085  0.2272
   41CHL1   H1A 5485   1.055   0.872  23.937  0.4241 -1.4157  0.5337
   41CHL1   H1B 5486   0.888   0.924  23.970 -0.3127 -0.0768 -0.8468
   41CHL1    C2 5487   0.914   0.718  23.983 -0.2688  0.9574  0.4806
   41CHL1   H2A 5488   0.916   0.718  24.094 -1.7212  0.1205  0.5330
   41CHL1   H2B 5489   0.988   0.645  23.943 -2.3518 -1.6974  1.1833
   41CHL1   C20 5490   1.140   1.475  23.455 -1.1555  0.6921 -0.5618
   41CHL1   H20 5491   1.176   1.423  23.364  1.2957 -0.9864  1.2394
   41CHL1   C21 5492   1.255   1.487  23.558  0.7687 -0.1892 -0.8642
   41CHL1  H21A 5493   1.218   1.516  23.658 -0.2939 -0.9758 -1.0058
   41CHL1  H21B 5494   1.332   1.556  23.517 -0.5889  1.3917 -0.8621
   41CHL1  H21C 5495   1.304   1.391  23.582  0.8278  0.1865  0.6028
   41CHL1   C22 5496   1.098   1.620  23.413 -0.2545 -0.8376 -0.3781
   41CHL1  H22A 5497   1.003   1.608  23.356  0.1470  1.6486 -1.6685
   41CHL1  H22B 5498   1.075   1.694  23.492  1.2276 -0.2970 -0.4419
   41CHL1   C23 5499   1.190   1.691  23.312  0.4001  0.1055 -0.3720
   41CHL1  H23A 5500   1.282   1.716  23.369  0.3181  1.0928 -0.6506
   41CHL1  H23B 5501   1.211   1.621  23.228  3.2839  0.5322 -0.1204
   41CHL1   C24 5502   1.133   1.822  23.255  0.3678  0.9015  0.5548
   41CHL1  H24A 5503   1.050   1.798  23.185  0.8289 -0.0504  0.3212
   41CHL1  H24B 5504   1.082   1.875  23.338 -2.1561  1.2053 -1.0857
   41CHL1   C25 5505   1.227   1.923  23.188  0.3175 -0.2834 -0.0758
   41CHL1   H25 5506   1.302   1.951  23.265  1.0147 -0.6372 -0.6104
   41CHL1   C26 5507   1.310   1.869  23.069 -0.0851  0.3695 -0.2210
   41CHL1  H26A 5508   1.349   1.766  23.079  1.1264  0.8005 -0.2958
   41CHL1  H26B 5509   1.258   1.883  22.973 -0.8357  1.1416  0.2872
   41CHL1  H26C 5510   1.401   1.933  23.079  1.2763 -1.7615  2.1471
   41CHL1   C27 5511   1.152   2.056  23.162 -0.9192  0.2358 -0.9317
   41CHL1  H27A 5512   1.149   2.064  23.052  2.0565 -3.3726 -1.4972
   41CHL1  H27B 5513   1.047   2.048  23.196 -0.4925  0.0739  0.4359
   41CHL1  H27C 5514   1.192   2.141  23.221  1.2215 -0.8361 -0.7234
   42CHL1    C3 5515   3.954   0.752  24.617  0.1992 -0.1718 -0.3099
   42CHL1    H3 5516   3.847   0.761  24.588  0.3520  0.1869 -0.7719
   42CHL1    O3 5517   3.984   0.635  24.689  0.1190 -0.4321  0.1967
   42CHL1   H3' 5518   3.915   0.620  24.754 -1.5242 -4.1130 -1.9977
   42CHL1    C4 5519   4.041   0.757  24.489 -0.2687  0.7305  0.1063
   42CHL1   H4A 5520   4.151   0.759  24.506 -0.3232 -0.3351  0.6483
   42CHL1   H4B 5521   4.014   0.661  24.440 -1.2195  1.7783 -1.5448
   42CHL1    C5 5522   4.019   0.888  24.414 -0.1252 -0.5804 -0.1553
   42CHL1    C6 5523   3.977   0.892  24.285  0.4413 -0.4936 -0.2269
   42CHL1    H6 5524   3.954   0.795  24.239  1.2593  0.6975 -3.3651
   42CHL1    C7 5525   3.965   1.014  24.201 -0.7839  0.3422  0.1456
   42CHL1   H7A 5526   4.019   1.012  24.104  0.0564 -1.7167  0.6047
   42CHL1   H7B 5527   3.861   1.035  24.171 -0.2609  1.1461 -1.1937
   42CHL1    C8 5528   4.025   1.132  24.274  0.2573  0.2096 -0.0493
   42CHL1    H8 5529   4.134   1.115  24.263  0.1096 -0.6630 -0.3053
   42CHL1   C14 5530   3.986   1.257  24.203 -0.1868  0.2207  0.3012
   42CHL1   H14 5531   3.876   1.268  24.208 -0.4829 -2.0962 -0.0586
   42CHL1   C15 5532   4.009   1.263  24.051 -0.3320  0.3048  0.7943
   42CHL1  H15A 5533   4.109   1.219  24.027 -1.3744 -1.7353 -0.0481
   42CHL1  H15B 5534   3.933   1.193  24.011  0.5410 -1.7507  2.5114
   42CHL1   C16 5535   4.013   1.409  24.019 -0.3115 -0.7123  0.1594
   42CHL1  H16A 5536   4.101   1.439  23.958 -0.9884 -1.9521 -1.4902
   42CHL1  H16B 5537   3.922   1.424  23.957 -0.9007 -1.7920  0.7266
   42CHL1   C17 5538   4.001   1.485  24.155  0.1910  0.3187 -0.3128
   42CHL1   H17 5539   3.890   1.496  24.153  0.2855  1.4347 -0.1191
   42CHL1   C13 5540   4.048   1.384  24.261  0.1879 -0.0227 -0.0944
   42CHL1   C18 5541   4.202   1.388  24.265 -0.4264 -0.1235 -0.3434
   42CHL1  H18A 5542   4.228   1.475  24.329  0.5981 -0.6028 -0.0942
   42CHL1  H18B 5543   4.229   1.290  24.309 -0.5259  0.7321  1.7463
   42CHL1  H18C 5544   4.253   1.392  24.166  0.5186  0.4636  0.1511
   42CHL1   C12 5545   3.990   1.408  24.395  0.4205  0.2339 -0.1019
   42CHL1  H12A 5546   4.027   1.505  24.433 -0.9897  1.4947 -1.7797
   42CHL1  H12B 5547   3.880   1.422  24.385  0.2708 -0.6461  0.2219
   42CHL1   C11 5548   4.015   1.283  24.485  0.3243 -0.2374  0.3562
   42CHL1  H11A 5549   4.123   1.284  24.513  0.1244 -0.8193  1.1880
   42CHL1  H11B 5550   3.962   1.287  24.583  0.0162  1.0583  0.1508
   42CHL1    C9 5551   3.987   1.142  24.417 -0.3202 -1.0320 -0.3838
   42CHL1    H9 5552   3.876   1.139  24.421 -0.4184  1.1516 -0.3847
   42CHL1   C10 5553   4.046   1.019  24.498  0.5281  0.0110 -0.1564
   42CHL1   C19 5554   4.199   1.036  24.524 -0.1632  0.5061  0.1685
   42CHL1  H19A 5555   4.235   0.947  24.580  0.4486  0.2709 -0.5851
   42CHL1  H19B 5556   4.257   1.050  24.430 -1.3049 -1.7471 -0.9701
   42CHL1  H19C 5557   4.203   1.120  24.596 -0.7581 -0.1127  0.9530
   42CHL1    C1 5558   3.968   1.002  24.635 -0.2625  0.4310 -0.0679
   42CHL1   H1A 5559   4.003   1.075  24.711  0.0429 -0.7669  0.9664
   42CHL1   H1B 5560   3.858   1.010  24.620 -0.6521 -1.8092  1.1551
   42CHL1    C2 5561   3.989   0.868  24.715 -0.0662  0.0752 -0.2531
   42CHL1   H2A 5562   3.929   0.870  24.808 -2.4901 -2.8918 -1.5983
   42CHL1   H2B 5563   4.095   0.849  24.745  0.3830  0.8013 -1.3241
   42CHL1   C20 5564   4.066   1.622  24.135  0.5847 -0.1003 -0.9400
   42CHL1   H20 5565   4.174   1.613  24.109  0.3861  0.8427 -2.1902
   42CHL1   C21 5566   4.053   1.706  24.266  0.8220  0.5047  0.0748
   42CHL1  H21A 5567   4.139   1.669  24.326 -1.0406 -1.4719  1.6714
   42CHL1  H21B 5568   3.957   1.682  24.317  0.9289 -0.6432 -0.2206
   42CHL1  H21C 5569   4.064   1.815  24.249  0.7919  0.2133 -2.1357
   42CHL1   C22 5570   4.014   1.702  24.016 -0.4360 -0.4092 -0.0547
   42CHL1  H22A 5571   4.070   1.796  23.998 -0.2046 -1.0689 -3.5272
   42CHL1  H22B 5572   4.033   1.638  23.927  1.6569 -1.8341  1.3303
   42CHL1   C23 5573   3.867   1.752  24.015  0.3000  0.1250  0.1574
   42CHL1  H23A 5574   3.797   1.668  24.039 -1.2237  0.9203 -1.3360
   42CHL1  H23B 5575   3.850   1.821  24.100 -1.4604 -0.2690  0.1681
   42CHL1   C24 5576   3.849   1.816  23.885  0.8281  0.0897 -0.2349
   42CHL1  H24A 5577   3.926   1.894  23.866  0.2244  0.4476 -1.2462
   42CHL1  H24B 5578   3.868   1.740  23.807 -0.0640 -1.0109  0.5767
   42CHL1   C25 5579   3.714   1.880  23.852  0.3710  0.1277 -0.8389
   42CHL1   H25 5580   3.643   1.797  23.868  2.4617 -2.0066 -1.9972
   42CHL1   C26 5581   3.679   2.003  23.944 -0.1046 -0.2498  0.1794
   42CHL1  H26A 5582   3.764   2.074  23.954  1.2538 -1.9682  1.4372
   42CHL1  H26B 5583   3.594   2.063  23.905 -1.1498 -0.5926  1.8230
   42CHL1  H26C 5584   3.658   1.957  24.043  2.4544  0.4660  1.1432
   42CHL1   C27 5585   3.698   1.919  23.703  0.8091  0.2899 -0.7215
   42CHL1  H27A 5586   3.592   1.954  23.700  0.3400 -0.9971 -0.0921
   42CHL1  H27B 5587   3.777   1.994  23.686  2.3370 -1.2489 -0.7500
   42CHL1  H27C 5588   3.711   1.832  23.635 -0.5290 -1.4282  1.0947
   43CHL1    C3 5589   0.206   0.730  24.136 -0.3843 -0.4635  0.2052
   43CHL1    H3 5590   0.170   0.811  24.202  2.7554  2.8693 -1.8080
   43CHL1    O3 5591   0.227   0.610  24.207 -1.0555 -0.2431  0.5184
   43CHL1   H3' 5592   0.141   0.568  24.214 -1.5800  0.7132  0.0012
   43CHL1    C4 5593   0.100   0.709  24.023 -0.0982 -0.0940  0.0474
   43CHL1   H4A 5594   0.127   0.609  23.984 -0.6469 -0.5210  0.7322
   43CHL1   H4B 5595   0.005   0.696  24.079 -2.0461  1.1244 -2.7462
   43CHL1    C5 5596   0.091   0.824  23.916  0.1762 -0.1156 -0.3947
   43CHL1    C6 5597  -0.027   0.888  23.883  0.2601  0.4016 -0.0180
   43CHL1    H6 5598  -0.121   0.856  23.929  1.7942 -0.5179  2.6701
   43CHL1    C7 5599  -0.039   0.977  23.763  0.1661 -0.1406 -0.1868
   43CHL1   H7A 5600  -0.126   0.953  23.698 -0.6621  0.1152  0.7972
   43CHL1   H7B 5601  -0.069   1.078  23.798 -0.9458  0.1006 -1.7450
   43CHL1    C8 5602   0.088   0.972  23.677  0.4585 -0.3827  0.1292
   43CHL1    H8 5603   0.091   0.882  23.611 -0.8304  0.9667 -1.8950
   43CHL1   C14 5604   0.091   1.090  23.587  0.1778 -0.2080 -0.4399
   43CHL1   H14 5605   0.093   1.173  23.662 -0.6601 -0.7870  0.2450
   43CHL1   C15 5606  -0.030   1.119  23.499 -0.6634 -0.2623  0.7569
   43CHL1  H15A 5607  -0.041   1.050  23.412 -0.3260 -1.2253  1.4656
   43CHL1  H15B 5608  -0.124   1.123  23.558 -2.0220 -0.0809 -1.3315
   43CHL1   C16 5609   0.007   1.252  23.428 -0.3774  0.6158 -0.1780
   43CHL1  H16A 5610  -0.001   1.254  23.317  0.5794  0.6636 -0.2587
   43CHL1  H16B 5611  -0.043   1.340  23.473  1.3211  1.5435 -0.0033
   43CHL1   C17 5612   0.163   1.267  23.452 -0.1296  0.1911  0.6076
   43CHL1   H17 5613   0.167   1.335  23.539  0.1328  1.5730 -0.4582
   43CHL1   C13 5614   0.217   1.128  23.510  0.2773 -0.2097 -0.3917
   43CHL1   C18 5615   0.232   1.024  23.395  0.0256  0.0688 -0.1955
   43CHL1  H18A 5616   0.244   0.925  23.444  0.2580  0.4289  0.4858
   43CHL1  H18B 5617   0.142   1.021  23.330 -0.2886 -2.3238  0.2712
   43CHL1  H18C 5618   0.323   1.043  23.334  0.9223 -2.6004  0.2098
   43CHL1   C12 5619   0.337   1.135  23.607  0.3424 -0.8222 -0.4269
   43CHL1  H12A 5620   0.431   1.140  23.547  0.5105  1.7666 -0.0769
   43CHL1  H12B 5621   0.313   1.220  23.674 -0.7669 -0.7808 -0.8632
   43CHL1   C11 5622   0.349   1.010  23.694 -0.9495 -0.1025 -0.0868
   43CHL1  H11A 5623   0.370   0.921  23.631 -0.7527 -0.0569 -0.0866
   43CHL1  H11B 5624   0.426   1.027  23.771  0.2005 -0.7501 -1.0607
   43CHL1    C9 5625   0.218   0.981  23.762  1.2256 -0.6220 -0.4493
   43CHL1    H9 5626   0.194   1.071  23.824  1.0590 -1.5103  0.7991
   43CHL1   C10 5627   0.227   0.858  23.853 -0.3865  0.5980  0.0710
   43CHL1   C19 5628   0.271   0.729  23.767  0.6983 -0.0607 -0.5074
   43CHL1  H19A 5629   0.201   0.700  23.686  1.9931 -2.4440 -0.8674
   43CHL1  H19B 5630   0.375   0.749  23.732 -0.0772  3.2094 -1.2481
   43CHL1  H19C 5631   0.271   0.639  23.831  0.4619 -0.8822 -1.6332
   43CHL1    C1 5632   0.326   0.889  23.974 -0.4027  0.0362  0.3088
   43CHL1   H1A 5633   0.425   0.921  23.934 -1.5730  0.1402 -2.7763
   43CHL1   H1B 5634   0.292   0.982  24.024  0.9020 -0.9229  3.1718
   43CHL1    C2 5635   0.339   0.773  24.072 -0.6216  0.2820  0.2300
   43CHL1   H2A 5636   0.422   0.792  24.144 -1.0762 -2.2583  1.5575
   43CHL1   H2B 5637   0.386   0.688  24.018 -2.2920 -2.3878  2.6993
   43CHL1   C20 5638   0.233   1.330  23.331 -1.1431 -0.2760  0.9395
   43CHL1   H20 5639   0.220   1.269  23.240 -1.2954  1.7580 -0.4635
   43CHL1   C21 5640   0.384   1.334  23.361  0.5835 -0.7032 -0.0522
   43CHL1  H21A 5641   0.412   1.333  23.468 -0.0482 -0.2290  0.1210
   43CHL1  H21B 5642   0.435   1.420  23.311  2.5707  1.5615  5.1578
   43CHL1  H21C 5643   0.427   1.235  23.333 -0.0404 -0.3749 -2.4172
   43CHL1   C22 5644   0.183   1.474  23.291 -0.3807  0.2057 -0.0143
   43CHL1  H22A 5645   0.074   1.469  23.270 -0.4686 -1.1006  0.6288
   43CHL1  H22B 5646   0.199   1.539  23.380 -4.3029 -0.3019  1.2329
   43CHL1   C23 5647   0.251   1.541  23.169 -0.2701 -0.2143 -0.6033
   43CHL1  H23A 5648   0.361   1.558  23.182 -0.2075 -0.9261 -0.1711
   43CHL1  H23B 5649   0.239   1.467  23.087 -1.4926  0.1807 -0.7909
   43CHL1   C24 5650   0.196   1.684  23.145  0.8433 -0.4119  0.4170
   43CHL1  H24A 5651   0.085   1.682  23.146  0.8409 -0.7272  0.0509
   43CHL1  H24B 5652   0.228   1.745  23.231  1.8094 -0.6936  0.2714
   43CHL1   C25 5653   0.265   1.745  23.029 -0.3181 -0.3896 -0.2545
   43CHL1   H25 5654   0.373   1.721  23.028 -0.3521 -0.5597  0.0462
   43CHL1   C26 5655   0.192   1.694  22.899 -0.1426  0.2299 -0.0963
   43CHL1  H26A 5656   0.233   1.733  22.803  0.5758 -0.2765 -0.0022
   43CHL1  H26B 5657   0.203   1.583  22.895 -0.6553  0.1117  1.3349
   43CHL1  H26C 5658   0.082   1.710  22.899 -0.0847  0.7764 -1.5203
   43CHL1   C27 5659   0.251   1.894  23.053  0.1866  0.0640  0.1432
   43CHL1  H27A 5660   0.286   1.962  22.972 -1.1814  1.1894  0.4472
   43CHL1  H27B 5661   0.144   1.917  23.069  0.4820  0.7952  1.1682
   43CHL1  H27C 5662   0.300   1.925  23.148 -0.7389 -0.2625  0.7265
   44CHL1    C3 5663   3.252   3.632  24.501 -0.3722 -0.0944 -1.0624
   44CHL1    H3 5664   3.322   3.585  24.573 -1.6628 -1.5939 -0.7352
   44CHL1    O3 5665   3.223   3.756  24.554 -0.6093  0.4287  0.1766
   44CHL1   H3' 5666   3.140   3.782  24.513 -1.5926 -0.1934  1.6515
   44CHL1    C4 5667   3.333   3.656  24.371  0.2374 -0.2139  0.1209
   44CHL1   H4A 5668   3.269   3.713  24.299  0.0512  2.4424  2.2406
   44CHL1   H4B 5669   3.427   3.715  24.380 -0.8565  1.7811 -0.7138
   44CHL1    C5 5670   3.370   3.527  24.307  0.3527  0.3678  1.0038
   44CHL1    C6 5671   3.499   3.501  24.273  0.0563 -0.6695 -0.8575
   44CHL1    H6 5672   3.577   3.575  24.296  2.1343 -2.7655 -0.7156
   44CHL1    C7 5673   3.537   3.387  24.183 -0.6875 -0.4658 -0.2229
   44CHL1   H7A 5674   3.604   3.418  24.100 -1.8884  2.1349 -0.3098
   44CHL1   H7B 5675   3.598   3.321  24.248 -0.3541  0.5954  0.5623
   44CHL1    C8 5676   3.410   3.313  24.122  0.0866 -0.3421  0.3673
   44CHL1    H8 5677   3.386   3.380  24.036  0.7720  0.3424  0.6909
   44CHL1   C14 5678   3.448   3.178  24.065 -0.0907 -0.5714  1.3209
   44CHL1   H14 5679   3.470   3.106  24.146  1.4973 -2.6343 -0.8019
   44CHL1   C15 5680   3.572   3.175  23.974  0.3412  0.2069 -0.0780
   44CHL1  H15A 5681   3.550   3.258  23.904 -3.2091  0.5272  1.2248
   44CHL1  H15B 5682   3.669   3.183  24.027 -0.2449  1.5732  0.8402
   44CHL1   C16 5683   3.557   3.038  23.896 -0.0655  0.2100  0.0984
   44CHL1  H16A 5684   3.555   3.061  23.788 -1.7310  1.0256  0.2868
   44CHL1  H16B 5685   3.633   2.959  23.916  0.7043  1.0297  0.4614
   44CHL1   C17 5686   3.408   2.987  23.930  0.4316 -0.1382  0.2552
   44CHL1   H17 5687   3.415   2.915  24.014 -0.6799 -1.6387 -0.8820
   44CHL1   C13 5688   3.332   3.110  23.993  0.2822 -0.1350  0.4988
   44CHL1   C18 5689   3.275   3.194  23.874  0.2232  0.0953  0.7585
   44CHL1  H18A 5690   3.198   3.139  23.816 -0.0390  1.1337  0.1005
   44CHL1  H18B 5691   3.220   3.281  23.915 -1.4417 -0.4602 -0.2212
   44CHL1  H18C 5692   3.356   3.240  23.813 -0.1908 -0.4157 -0.2011
   44CHL1   C12 5693   3.225   3.079  24.096  0.2849 -0.2211 -0.4029
   44CHL1  H12A 5694   3.137   3.020  24.063 -0.7217 -0.1225  1.8881
   44CHL1  H12B 5695   3.266   3.005  24.169 -1.6264  0.3490  1.3498
   44CHL1   C11 5696   3.180   3.209  24.174 -0.4279  0.0057  0.2386
   44CHL1  H11A 5697   3.129   3.267  24.094  1.7624 -0.5240 -1.6523
   44CHL1  H11B 5698   3.098   3.196  24.248 -0.4729 -2.5707 -0.1752
   44CHL1    C9 5699   3.294   3.303  24.223 -1.1166  0.0617 -0.0617
   44CHL1    H9 5700   3.335   3.246  24.310  0.6485  0.4506 -0.6045
   44CHL1   C10 5701   3.245   3.440  24.283  0.4132 -0.2348 -0.4932
   44CHL1   C19 5702   3.170   3.505  24.163  0.3712 -1.0279  0.0862
   44CHL1  H19A 5703   3.232   3.528  24.074 -1.3029  0.8564 -0.6609
   44CHL1  H19B 5704   3.082   3.446  24.129 -0.1205 -0.8299  0.9741
   44CHL1  H19C 5705   3.126   3.597  24.206 -1.2521 -1.5616 -0.3783
   44CHL1    C1 5706   3.164   3.419  24.412  1.3229  0.0035  0.2060
   44CHL1   H1A 5707   3.068   3.371  24.385 -0.0403  1.6175  1.9670
   44CHL1   H1B 5708   3.221   3.346  24.474  0.7954 -0.7472 -0.1735
   44CHL1    C2 5709   3.126   3.545  24.495 -0.5126  0.0752  0.2017
   44CHL1   H2A 5710   3.084   3.520  24.595 -0.8785  0.5922  0.1814
   44CHL1   H2B 5711   3.060   3.611  24.435  0.8181 -0.5987 -2.1360
   44CHL1   C20 5712   3.352   2.904  23.812  0.0853  0.3878 -0.0823
   44CHL1   H20 5713   3.329   2.975  23.730  1.3480  1.1916  0.2280
   44CHL1   C21 5714   3.223   2.847  23.860 -0.2191 -0.1859 -0.6376
   44CHL1  H21A 5715   3.160   2.937  23.874  1.3040  0.7405  0.5078
   44CHL1  H21B 5716   3.229   2.801  23.961  0.4992  2.8477  0.8205
   44CHL1  H21C 5717   3.178   2.785  23.779  1.5630  0.0378 -1.8453
   44CHL1   C22 5718   3.439   2.792  23.747 -0.6124  0.4408  1.3816
   44CHL1  H22A 5719   3.372   2.744  23.673 -1.9682  1.3445  1.9808
   44CHL1  H22B 5720   3.518   2.853  23.698 -1.4472  1.8091  1.6935
   44CHL1   C23 5721   3.495   2.688  23.848 -0.5740 -0.5487  0.3192
   44CHL1  H23A 5722   3.574   2.744  23.902 -2.2290  0.4283  1.8434
   44CHL1  H23B 5723   3.421   2.643  23.918  1.0294 -1.0539  1.7505
   44CHL1   C24 5724   3.565   2.573  23.768  0.2060 -0.3341 -0.5039
   44CHL1  H24A 5725   3.489   2.542  23.694  0.8627 -5.2509  0.5396
   44CHL1  H24B 5726   3.642   2.616  23.700 -1.7655  0.3939 -2.3470
   44CHL1   C25 5727   3.628   2.456  23.847 -0.2273 -0.2257 -0.0071
   44CHL1   H25 5728   3.548   2.398  23.897 -0.3617  0.1677  0.2376
   44CHL1   C26 5729   3.702   2.375  23.739  0.1919  0.2082 -0.0554
   44CHL1  H26A 5730   3.626   2.336  23.668 -0.2929  0.8392  0.1060
   44CHL1  H26B 5731   3.779   2.429  23.680  0.8456  0.8823  1.3759
   44CHL1  H26C 5732   3.757   2.296  23.795  2.1792  0.5523 -1.4193
   44CHL1   C27 5733   3.729   2.502  23.952  0.1112  0.0704 -0.3324
   44CHL1  H27A 5734   3.817   2.558  23.913  0.3773  0.7303  1.1374
   44CHL1  H27B 5735   3.685   2.569  24.029  0.3877 -1.1978  0.9780
   44CHL1  H27C 5736   3.761   2.414  24.011 -1.6181 -1.4916 -1.5989
   45CHL1    C3 5737   3.443   2.830  24.986 -1.0732 -0.6906  0.2456
   45CHL1    H3 5738   3.421   2.768  25.075  1.6454 -0.5005  1.1283
   45CHL1    O3 5739   3.405   2.963  25.013  0.2703 -0.1754  0.6241
   45CHL1   H3' 5740   3.406   3.011  24.930 -3.8840 -0.3173  0.2564
   45CHL1    C4 5741   3.595   2.823  24.967 -0.1342 -0.6780 -0.0018
   45CHL1   H4A 5742   3.602   2.894  24.882 -1.2828  0.1212  0.5400
   45CHL1   H4B 5743   3.637   2.861  25.063 -0.6219  0.0524 -0.0705
   45CHL1    C5 5744   3.655   2.691  24.921  0.2832  0.2477 -0.2210
   45CHL1    C6 5745   3.737   2.617  24.995 -0.0306 -0.2633 -0.5019
   45CHL1    H6 5746   3.779   2.668  25.083 -0.7063 -1.7001  0.6839
   45CHL1    C7 5747   3.798   2.486  24.953 -0.2659 -0.0485 -0.8924
   45CHL1   H7A 5748   3.909   2.494  24.963 -0.3013 -1.9372  2.5813
   45CHL1   H7B 5749   3.771   2.405  25.024  1.0557 -0.4791 -0.8514
   45CHL1    C8 5750   3.760   2.434  24.810 -0.8299 -0.3618 -0.0239
   45CHL1    H8 5751   3.739   2.325  24.813  0.0398 -0.5047  1.0253
   45CHL1   C14 5752   3.862   2.461  24.697 -0.5212  0.3525  0.4383
   45CHL1   H14 5753   3.880   2.569  24.682  0.5401 -0.2358 -3.7823
   45CHL1   C15 5754   3.999   2.382  24.728 -0.5643  0.2785 -0.2377
   45CHL1  H15A 5755   4.077   2.443  24.678  0.4257 -2.5366 -2.3753
   45CHL1  H15B 5756   4.021   2.362  24.835 -2.3130 -0.9291 -0.0591
   45CHL1   C16 5757   3.989   2.252  24.645  0.1770 -0.2034  0.3067
   45CHL1  H16A 5758   4.083   2.227  24.592  0.1812 -0.8360  0.6030
   45CHL1  H16B 5759   3.965   2.169  24.715 -0.7768 -0.2327 -0.0484
   45CHL1   C17 5760   3.873   2.272  24.549  0.3147  0.5961 -0.1611
   45CHL1   H17 5761   3.790   2.219  24.600  0.0392  2.6750  1.6759
   45CHL1   C13 5762   3.819   2.407  24.556 -0.1977 -0.1169 -0.0223
   45CHL1   C18 5763   3.890   2.504  24.456 -0.0827  0.1188 -0.0655
   45CHL1  H18A 5764   3.882   2.463  24.353  1.2855  1.7559 -0.8714
   45CHL1  H18B 5765   3.854   2.608  24.466  1.0132  0.5351 -0.3164
   45CHL1  H18C 5766   3.997   2.510  24.486 -0.1840 -0.1826  0.3673
   45CHL1   C12 5767   3.671   2.435  24.523 -0.0652 -0.3497  0.5802
   45CHL1  H12A 5768   3.649   2.530  24.470 -0.6042 -1.3856 -1.1362
   45CHL1  H12B 5769   3.649   2.353  24.450  0.0104 -0.0179  0.1843
   45CHL1   C11 5770   3.576   2.419  24.638  0.1074  0.6278  0.5963
   45CHL1  H11A 5771   3.469   2.433  24.610 -0.5115  2.1868  3.3827
   45CHL1  H11B 5772   3.587   2.312  24.667 -3.4243 -0.6565 -2.0825
   45CHL1    C9 5773   3.623   2.485  24.773 -0.3454 -0.5825 -0.1087
   45CHL1    H9 5774   3.561   2.438  24.852 -1.3930  1.0687  0.0994
   45CHL1   C10 5775   3.583   2.632  24.796  0.2042  0.7303 -0.9085
   45CHL1   C19 5776   3.626   2.713  24.673  0.2052  0.4465 -1.0557
   45CHL1  H19A 5777   3.557   2.696  24.588  0.1801  2.4078 -1.4529
   45CHL1  H19B 5778   3.618   2.821  24.697  1.1068  0.2464  0.2869
   45CHL1  H19C 5779   3.733   2.704  24.645  0.7052 -0.7176  0.9425
   45CHL1    C1 5780   3.427   2.641  24.823  0.0065  0.1328 -0.2059
   45CHL1   H1A 5781   3.385   2.603  24.728  1.1180  1.0167 -1.0714
   45CHL1   H1B 5782   3.400   2.571  24.905 -1.4070 -1.6402 -2.0939
   45CHL1    C2 5783   3.375   2.778  24.857 -0.6350 -0.9383 -0.1009
   45CHL1   H2A 5784   3.266   2.765  24.870 -0.8014  1.0095  0.7412
   45CHL1   H2B 5785   3.398   2.849  24.775  1.3682 -1.3807  0.0223
   45CHL1   C20 5786   3.892   2.205  24.412 -0.0763  0.1631 -0.1666
   45CHL1   H20 5787   3.820   2.245  24.338  0.1854 -0.6698 -0.8940
   45CHL1   C21 5788   3.841   2.058  24.434  0.5196  0.2019  0.1044
   45CHL1  H21A 5789   3.730   2.065  24.441  0.5675  1.1892  0.0128
   45CHL1  H21B 5790   3.897   2.026  24.525 -1.7796 -1.0490  1.1631
   45CHL1  H21C 5791   3.865   1.992  24.347  0.8237 -0.9631  1.0328
   45CHL1   C22 5792   4.037   2.218  24.349 -1.0771  0.5411 -0.6135
   45CHL1  H22A 5793   4.068   2.325  24.342 -2.2731  0.8890 -0.7682
   45CHL1  H22B 5794   4.111   2.166  24.413  1.0982  1.8152 -1.9689
   45CHL1   C23 5795   4.045   2.171  24.199 -0.8615 -0.7486 -0.5148
   45CHL1  H23A 5796   4.052   2.060  24.188  0.6003 -0.8093  0.7810
   45CHL1  H23B 5797   3.952   2.224  24.169  0.3638  2.0810  0.3546
   45CHL1   C24 5798   4.171   2.223  24.127  0.5338  1.0521 -0.1846
   45CHL1  H24A 5799   4.203   2.325  24.158 -1.8340  1.6130  0.6342
   45CHL1  H24B 5800   4.253   2.158  24.164  0.9025  1.3392 -0.4909
   45CHL1   C25 5801   4.173   2.215  23.965 -0.1401 -0.0179  0.1522
   45CHL1   H25 5802   4.276   2.237  23.929 -1.3661  1.3378 -2.8089
   45CHL1   C26 5803   4.137   2.080  23.910 -0.3970  0.6545  0.1287
   45CHL1  H26A 5804   4.217   2.008  23.934  0.2407  1.5766  0.8767
   45CHL1  H26B 5805   4.050   2.044  23.969 -0.3750  1.7024  0.8404
   45CHL1  H26C 5806   4.102   2.082  23.805 -0.6594  2.8914  0.2099
   45CHL1   C27 5807   4.067   2.311  23.894 -0.1686 -1.1587 -0.1442
   45CHL1  H27A 5808   4.081   2.417  23.925 -0.7736 -0.7408 -1.2558
   45CHL1  H27B 5809   4.074   2.290  23.785 -2.3115 -0.5645 -0.4326
   45CHL1  H27C 5810   3.965   2.287  23.932 -0.9158  2.1641  0.2548
   46CHL1    C3 5811   2.947   0.459  28.274  0.3290  0.1444 -0.0680
   46CHL1    H3 5812   2.887   0.441  28.182  0.6820 -0.9059 -0.1033
   46CHL1    O3 5813   2.961   0.331  28.347 -0.3448  0.6312  0.2288
   46CHL1   H3' 5814   3.016   0.276  28.290 -2.5110 -0.9537 -0.4724
   46CHL1    C4 5815   3.073   0.514  28.216 -0.6576 -0.0082 -0.2406
   46CHL1   H4A 5816   3.154   0.516  28.293 -0.3409  0.3558 -0.5816
   46CHL1   H4B 5817   3.110   0.448  28.135 -1.8442  0.8305 -1.4878
   46CHL1    C5 5818   3.055   0.655  28.160  0.6767  1.0895 -0.4326
   46CHL1    C6 5819   3.087   0.683  28.034  0.1929  0.7924  0.8471
   46CHL1    H6 5820   3.138   0.605  27.976 -0.5672  1.2113 -0.4207
   46CHL1    C7 5821   3.070   0.811  27.963 -0.0189  0.1632  0.4653
   46CHL1   H7A 5822   3.159   0.847  27.909  1.0409 -0.7711  1.5373
   46CHL1   H7B 5823   2.995   0.806  27.881  1.3131  4.0159 -1.2188
   46CHL1    C8 5824   3.035   0.924  28.056 -0.0615 -0.1412  0.0771
   46CHL1    H8 5825   3.130   0.957  28.105 -0.9899 -0.4858  2.2098
   46CHL1   C14 5826   2.987   1.054  27.989 -0.3965  0.1636 -0.1336
   46CHL1   H14 5827   2.901   1.021  27.927 -0.2786 -0.1902 -0.1085
   46CHL1   C15 5828   3.082   1.107  27.879  0.1934 -0.2116 -1.2935
   46CHL1  H15A 5829   3.185   1.113  27.918 -0.6518 -0.8974  1.2240
   46CHL1  H15B 5830   3.079   1.039  27.791 -1.4389 -2.1021  0.1342
   46CHL1   C16 5831   3.019   1.249  27.851  0.4815  0.7076 -0.5493
   46CHL1  H16A 5832   3.106   1.317  27.864 -0.2422  1.6852 -0.6814
   46CHL1  H16B 5833   2.978   1.251  27.748  1.7094 -4.3696 -1.4075
   46CHL1   C17 5834   2.906   1.275  27.962 -0.8304  0.1960 -0.1157
   46CHL1   H17 5835   2.813   1.226  27.927 -0.5165 -0.1805 -0.4274
   46CHL1   C13 5836   2.948   1.175  28.075  0.2037  0.0470  0.7628
   46CHL1   C18 5837   3.070   1.232  28.149 -0.3606 -0.0527  0.3978
   46CHL1  H18A 5838   3.099   1.175  28.240  0.9465  1.1716  0.7935
   46CHL1  H18B 5839   3.162   1.250  28.090  0.6708 -1.9478  1.3525
   46CHL1  H18C 5840   3.045   1.333  28.190  1.0502 -0.4617  2.4279
   46CHL1   C12 5841   2.839   1.128  28.172  0.4593 -0.8522  0.0770
   46CHL1  H12A 5842   2.793   1.208  28.234  1.4529 -0.3653  0.2072
   46CHL1  H12B 5843   2.760   1.095  28.101 -0.3072  0.2676  0.3898
   46CHL1   C11 5844   2.879   1.000  28.251 -0.8840  0.2410 -0.4771
   46CHL1  H11A 5845   2.948   1.018  28.336 -1.8888 -2.1594  0.9766
   46CHL1  H11B 5846   2.780   0.970  28.294 -0.8032  1.1242  0.3741
   46CHL1    C9 5847   2.931   0.884  28.161 -0.0250  0.2469  0.0339
   46CHL1    H9 5848   2.841   0.850  28.104  0.6165 -0.0360 -0.8347
   46CHL1   C10 5849   2.979   0.761  28.242 -0.2146  0.4780 -0.1617
   46CHL1   C19 5850   3.078   0.810  28.353  0.4459  0.2170  0.0084
   46CHL1  H19A 5851   3.144   0.887  28.308  0.1596  0.5029  0.0687
   46CHL1  H19B 5852   3.028   0.837  28.449 -1.1562  1.5506 -1.1426
   46CHL1  H19C 5853   3.145   0.726  28.381  1.1017  0.6881 -0.1130
   46CHL1    C1 5854   2.851   0.690  28.301  0.2775 -0.6825 -0.2280
   46CHL1   H1A 5855   2.798   0.760  28.369  2.4113  0.8227 -0.0206
   46CHL1   H1B 5856   2.790   0.661  28.213 -3.1510  1.9988  1.0316
   46CHL1    C2 5857   2.875   0.559  28.371 -0.4183  0.2057  0.9589
   46CHL1   H2A 5858   2.783   0.499  28.386 -0.1987 -0.3919 -0.0018
   46CHL1   H2B 5859   2.920   0.563  28.473 -0.6488  0.8077  1.0349
   46CHL1   C20 5860   2.856   1.416  27.998 -0.8604 -0.5166  0.1536
   46CHL1   H20 5861   2.911   1.447  28.089  1.0426 -3.2640  0.0728
   46CHL1   C21 5862   2.708   1.411  28.030 -0.1375  0.4256  0.3857
   46CHL1  H21A 5863   2.697   1.359  28.127  3.4584  0.5381  0.9817
   46CHL1  H21B 5864   2.655   1.358  27.948 -0.7526  0.9558  0.4296
   46CHL1  H21C 5865   2.659   1.510  28.042 -2.3609 -0.7904  2.0423
   46CHL1   C22 5866   2.898   1.513  27.880  0.0918  0.8896  0.2943
   46CHL1  H22A 5867   3.003   1.497  27.849 -0.1164  0.5159 -0.2407
   46CHL1  H22B 5868   2.829   1.488  27.796 -0.5064 -0.3394  1.1293
   46CHL1   C23 5869   2.891   1.665  27.916 -0.0987 -0.0837  0.2301
   46CHL1  H23A 5870   2.789   1.663  27.961 -0.4421 -3.2860 -0.4484
   46CHL1  H23B 5871   2.971   1.679  27.992  0.2021  0.7398 -0.2323
   46CHL1   C24 5872   2.904   1.751  27.796  0.7387  0.3585  0.9524
   46CHL1  H24A 5873   3.000   1.732  27.744  0.3453  0.1145  0.3134
   46CHL1  H24B 5874   2.816   1.728  27.732  1.5257 -0.1775  0.0540
   46CHL1   C25 5875   2.909   1.905  27.818  0.6173  0.3522 -0.0525
   46CHL1   H25 5876   2.819   1.937  27.875 -0.8199 -1.7385 -0.9880
   46CHL1   C26 5877   3.036   1.949  27.896  0.2367  0.2749  0.1506
   46CHL1  H26A 5878   3.114   1.884  27.852  0.4100  2.1400 -2.4882
   46CHL1  H26B 5879   3.066   2.055  27.881  1.4522 -0.0503  0.2478
   46CHL1  H26C 5880   3.033   1.914  28.002  0.8866  0.0676  0.1033
   46CHL1   C27 5881   2.893   1.977  27.687 -0.0557 -0.2367  0.6849
   46CHL1  H27A 5882   2.904   2.086  27.705  0.8984 -0.2097  0.0086
   46CHL1  H27B 5883   2.974   1.958  27.614 -1.1169  2.5482 -1.3895
   46CHL1  H27C 5884   2.800   1.948  27.635  2.2930 -0.8424 -3.6468
   47CHL1    C3 5885   0.982   3.275  24.575  0.1749 -0.4286  0.1943
   47CHL1    H3 5886   1.006   3.225  24.671  0.3494  0.7572  0.7874
   47CHL1    O3 5887   0.959   3.413  24.603  0.5047  0.2040  0.1928
   47CHL1   H3' 5888   1.037   3.453  24.642  0.5211  0.6192 -0.2519
   47CHL1    C4 5889   1.090   3.259  24.466 -0.4298  0.5285 -0.2688
   47CHL1   H4A 5890   1.084   3.343  24.394 -0.5407  2.0887  1.4770
   47CHL1   H4B 5891   1.177   3.281  24.531  0.4218 -0.2942 -1.0954
   47CHL1    C5 5892   1.103   3.127  24.396 -0.1463  0.0800 -1.2160
   47CHL1    C6 5893   1.221   3.063  24.393 -0.0979 -0.3539  0.2768
   47CHL1    H6 5894   1.307   3.114  24.439 -1.5045  1.6760  0.7830
   47CHL1    C7 5895   1.249   2.928  24.336 -0.4518 -0.3351  0.5448
   47CHL1   H7A 5896   1.336   2.946  24.269 -1.2781  1.2600 -0.1780
   47CHL1   H7B 5897   1.281   2.858  24.416 -1.7448 -1.7938 -0.1663
   47CHL1    C8 5898   1.127   2.891  24.254  0.0253 -0.2977 -0.1714
   47CHL1    H8 5899   1.133   2.942  24.156 -2.6387 -1.7390 -1.1793
   47CHL1   C14 5900   1.145   2.737  24.229  0.0700  1.1431 -0.1523
   47CHL1   H14 5901   1.110   2.700  24.328  1.5565 -0.0035 -0.0189
   47CHL1   C15 5902   1.287   2.678  24.200  0.2583 -0.8420  0.6404
   47CHL1  H15A 5903   1.331   2.733  24.115  0.6299  0.6728  1.7757
   47CHL1  H15B 5904   1.360   2.671  24.283  0.0028 -3.5725  0.7575
   47CHL1   C16 5905   1.249   2.534  24.158  0.1495  0.2963 -0.2155
   47CHL1  H16A 5906   1.313   2.510  24.070  0.4374 -2.1841  0.5829
   47CHL1  H16B 5907   1.262   2.464  24.244 -0.6766 -1.0758 -1.1570
   47CHL1   C17 5908   1.098   2.532  24.119  0.2737  0.5637 -0.0127
   47CHL1   H17 5909   1.038   2.472  24.190 -1.1962  1.8882 -0.0712
   47CHL1   C13 5910   1.054   2.677  24.124  0.3394 -0.7552  0.3207
   47CHL1   C18 5911   1.083   2.743  23.980  1.0579 -0.7470  0.1883
   47CHL1  H18A 5912   1.019   2.702  23.899 -0.0527  0.0588  0.6382
   47CHL1  H18B 5913   1.078   2.854  23.975 -0.5708 -0.8242 -0.5719
   47CHL1  H18C 5914   1.185   2.706  23.955  1.2689 -1.0103  1.3605
   47CHL1   C12 5915   0.912   2.709  24.177  0.1932 -0.0872  0.0787
   47CHL1  H12A 5916   0.827   2.686  24.108 -1.5783 -0.3724  2.2388
   47CHL1  H12B 5917   0.896   2.647  24.267  0.2501 -1.4192 -0.8065
   47CHL1   C11 5918   0.883   2.866  24.208  0.4438  0.2166 -0.5456
   47CHL1  H11A 5919   0.897   2.929  24.117  1.8199 -0.2063 -0.6469
   47CHL1  H11B 5920   0.785   2.888  24.255  0.8166  2.1351 -0.5631
   47CHL1    C9 5921   0.989   2.918  24.310 -0.0614 -0.5398 -0.2784
   47CHL1    H9 5922   0.983   2.858  24.403 -1.4378  0.8590  0.5995
   47CHL1   C10 5923   0.964   3.069  24.352 -0.7074 -0.2378 -0.1047
   47CHL1   C19 5924   0.910   3.155  24.235  0.2063  0.4023 -0.0809
   47CHL1  H19A 5925   0.800   3.140  24.238  0.2737 -0.0376  2.1965
   47CHL1  H19B 5926   0.923   3.265  24.246  1.2680  0.2213  0.6296
   47CHL1  H19C 5927   0.963   3.123  24.143  0.4560 -2.9826  1.0901
   47CHL1    C1 5928   0.875   3.072  24.471  0.4155  0.7074 -0.3360
   47CHL1   H1A 5929   0.777   3.036  24.433  0.8437  0.8098 -1.5833
   47CHL1   H1B 5930   0.899   2.999  24.551 -2.9471 -0.5039 -0.2514
   47CHL1    C2 5931   0.850   3.212  24.531  0.1272 -0.1920 -0.0831
   47CHL1   H2A 5932   0.775   3.213  24.613  0.8156 -0.9922  0.5597
   47CHL1   H2B 5933   0.813   3.285  24.455 -2.6766  3.4953  4.3128
   47CHL1   C20 5934   1.068   2.445  23.993  0.5022 -0.1235 -0.2576
   47CHL1   H20 5935   1.091   2.500  23.900 -1.5549  0.3423 -0.5419
   47CHL1   C21 5936   0.916   2.427  23.988  0.2573  0.0979 -0.1484
   47CHL1  H21A 5937   0.877   2.383  24.082 -0.5255 -1.8590 -1.3313
   47CHL1  H21B 5938   0.889   2.363  23.901  0.2727  0.4647 -0.4254
   47CHL1  H21C 5939   0.882   2.528  23.958  0.0714 -0.0439 -0.4147
   47CHL1   C22 5940   1.145   2.311  23.998  0.0499 -0.0314 -0.0593
   47CHL1  H22A 5941   1.254   2.332  23.988 -0.0623  0.3877 -0.4674
   47CHL1  H22B 5942   1.131   2.254  24.092  3.3406 -1.1896 -0.1439
   47CHL1   C23 5943   1.127   2.223  23.871  0.3446 -0.4321 -0.1160
   47CHL1  H23A 5944   1.023   2.183  23.877 -0.4616  1.1686 -2.1378
   47CHL1  H23B 5945   1.117   2.297  23.789  0.9392 -1.4095 -1.0963
   47CHL1   C24 5946   1.237   2.120  23.842 -0.5689  0.6088  0.0032
   47CHL1  H24A 5947   1.335   2.172  23.838 -0.2794  0.1007  0.3719
   47CHL1  H24B 5948   1.245   2.033  23.910 -0.2904  0.1379 -0.6244
   47CHL1   C25 5949   1.216   2.061  23.702  0.3604 -0.1754  0.6465
   47CHL1   H25 5950   1.308   2.004  23.676  1.9916  2.8774 -0.7955
   47CHL1   C26 5951   1.102   1.961  23.685  0.3493  0.2923 -0.6702
   47CHL1  H26A 5952   1.097   1.894  23.773  0.2893  0.5654 -0.4611
   47CHL1  H26B 5953   1.133   1.888  23.608 -1.4261  1.4195 -2.5667
   47CHL1  H26C 5954   1.001   2.007  23.670  0.2836  0.3862  0.0101
   47CHL1   C27 5955   1.212   2.159  23.589  0.0646 -0.1702 -0.1765
   47CHL1  H27A 5956   1.113   2.209  23.597 -1.2021 -2.7516  2.1131
   47CHL1  H27B 5957   1.296   2.230  23.599 -0.8162  1.1399 -1.7100
   47CHL1  H27C 5958   1.209   2.099  23.496 -2.1964 -0.3311 -0.0729
   48CHL1    C3 5959   3.129   0.680  23.875  0.0215 -0.8029 -0.4983
   48CHL1    H3 5960   3.031   0.732  23.871  0.2937 -0.2519 -0.1376
   48CHL1    O3 5961   3.137   0.600  23.994  0.1747  0.1433  0.3679
   48CHL1   H3' 5962   3.120   0.670  24.056 -0.4255  1.0965 -0.8438
   48CHL1    C4 5963   3.153   0.584  23.759 -0.1320  0.7557 -0.1296
   48CHL1   H4A 5964   3.247   0.529  23.778 -2.3803 -2.3462  3.3278
   48CHL1   H4B 5965   3.075   0.506  23.772 -0.0956  0.9996  1.8987
   48CHL1    C5 5966   3.152   0.652  23.627  0.5055  0.0977  0.4635
   48CHL1    C6 5967   3.049   0.635  23.536 -0.3244  1.2957 -0.5683
   48CHL1    H6 5968   2.976   0.553  23.545  0.4928  0.4967 -1.0667
   48CHL1    C7 5969   3.042   0.714  23.407 -0.4045  0.7078 -0.3824
   48CHL1   H7A 5970   3.011   0.656  23.317  0.6694 -1.8006  0.7618
   48CHL1   H7B 5971   2.974   0.800  23.422  0.1521  1.3275 -1.2737
   48CHL1    C8 5972   3.173   0.776  23.363  0.3339 -0.1346  0.0947
   48CHL1    H8 5973   3.234   0.692  23.323  0.3655 -0.0904  0.0506
   48CHL1   C14 5974   3.156   0.880  23.257  1.0362  0.3352  0.2368
   48CHL1   H14 5975   3.100   0.965  23.302  0.3310  0.9526 -1.7056
   48CHL1   C15 5976   3.071   0.827  23.138  0.3714 -0.5714  0.1034
   48CHL1  H15A 5977   3.121   0.734  23.104  0.3882 -1.1959  1.7374
   48CHL1  H15B 5978   2.963   0.806  23.151 -0.0301  0.4122 -1.3803
   48CHL1   C16 5979   3.088   0.947  23.043 -0.6285 -0.1434  0.0527
   48CHL1  H16A 5980   3.103   0.896  22.945  1.0257  2.3021 -1.0470
   48CHL1  H16B 5981   2.997   1.010  23.034  0.0573  0.7198 -1.0047
   48CHL1   C17 5982   3.207   1.037  23.088 -0.1066 -0.0120 -0.3941
   48CHL1   H17 5983   3.174   1.131  23.138  0.8236  0.8108 -1.2660
   48CHL1   C13 5984   3.277   0.954  23.195 -0.0139  0.2126 -0.0536
   48CHL1   C18 5985   3.373   0.848  23.129  0.9323 -1.1619 -0.5971
   48CHL1  H18A 5986   3.392   0.762  23.197 -0.1025  0.3642  1.7695
   48CHL1  H18B 5987   3.328   0.798  23.040 -2.1967  1.2881 -0.5713
   48CHL1  H18C 5988   3.472   0.894  23.110  0.9152 -0.8748 -0.0311
   48CHL1   C12 5989   3.345   1.021  23.318  0.8445 -0.1670 -0.5722
   48CHL1  H12A 5990   3.443   1.061  23.287  0.6796 -0.5366 -1.6081
   48CHL1  H12B 5991   3.275   1.103  23.348 -0.4222 -0.6770 -2.0157
   48CHL1   C11 5992   3.371   0.924  23.430 -0.0866 -0.0057 -0.0844
   48CHL1  H11A 5993   3.442   0.850  23.388  0.3248  0.3525 -0.0297
   48CHL1  H11B 5994   3.415   0.980  23.516 -3.7377  0.5319  1.6571
   48CHL1    C9 5995   3.245   0.846  23.475  0.7371  0.4893 -0.0307
   48CHL1    H9 5996   3.178   0.926  23.511  1.5675  1.9714 -1.6087
   48CHL1   C10 5997   3.256   0.770  23.616  0.4376 -0.5658  1.1166
   48CHL1   C19 5998   3.396   0.710  23.629  0.5203  0.2260 -0.8795
   48CHL1  H19A 5999   3.406   0.658  23.727 -0.2245  0.9880 -0.3826
   48CHL1  H19B 6000   3.403   0.633  23.549 -3.9246  0.5777 -1.8733
   48CHL1  H19C 6001   3.478   0.786  23.629 -0.9024  1.8135 -1.4140
   48CHL1    C1 6002   3.238   0.864  23.737  0.4232 -0.0540 -1.3026
   48CHL1   H1A 6003   3.315   0.943  23.747 -2.1401  2.4186  0.5741
   48CHL1   H1B 6004   3.138   0.911  23.725  0.0470 -0.0044  1.3047
   48CHL1    C2 6005   3.233   0.793  23.873  0.0210  0.3815 -0.2932
   48CHL1   H2A 6006   3.224   0.872  23.950 -1.1570  0.6648 -0.7017
   48CHL1   H2B 6007   3.335   0.754  23.894  0.6093  1.5749 -0.8719
   48CHL1   C20 6008   3.283   1.095  22.968 -0.4848 -0.0545 -0.3421
   48CHL1   H20 6009   3.349   1.012  22.933 -0.2676 -1.3529  2.7750
   48CHL1   C21 6010   3.389   1.204  23.015  0.1408  0.5768 -0.0798
   48CHL1  H21A 6011   3.331   1.285  23.065 -0.6979 -0.7411  1.1682
   48CHL1  H21B 6012   3.436   1.251  22.926 -0.8756  0.6549 -0.5880
   48CHL1  H21C 6013   3.464   1.160  23.084  0.5333 -2.3005 -2.1461
   48CHL1   C22 6014   3.184   1.153  22.870  0.2939 -0.0692  0.5609
   48CHL1  H22A 6015   3.104   1.079  22.846  0.2915 -0.2289  1.0438
   48CHL1  H22B 6016   3.133   1.236  22.923 -3.7707 -0.2452 -2.5509
   48CHL1   C23 6017   3.231   1.200  22.740 -0.3117  0.4016 -0.1967
   48CHL1  H23A 6018   3.321   1.261  22.765  0.6390 -1.0412  0.0048
   48CHL1  H23B 6019   3.273   1.120  22.675 -1.4800 -2.5322  2.4429
   48CHL1   C24 6020   3.133   1.290  22.673 -0.3738  0.3746 -0.1530
   48CHL1  H24A 6021   3.034   1.240  22.663 -0.5263  0.4448  0.8496
   48CHL1  H24B 6022   3.107   1.375  22.741 -2.0087  0.1696 -0.4647
   48CHL1   C25 6023   3.170   1.358  22.541  0.3477 -0.3595  0.3752
   48CHL1   H25 6024   3.075   1.401  22.503  0.7488 -0.3132 -0.6090
   48CHL1   C26 6025   3.252   1.490  22.552  0.6054  0.3165 -1.1464
   48CHL1  H26A 6026   3.277   1.530  22.451  1.2681  3.6415  0.1936
   48CHL1  H26B 6027   3.184   1.556  22.610  0.5986 -0.6916  0.0304
   48CHL1  H26C 6028   3.347   1.474  22.607  0.1338  3.6101  0.8623
   48CHL1   C27 6029   3.216   1.257  22.435  0.4999  0.3790  0.1945
   48CHL1  H27A 6030   3.155   1.165  22.438 -2.2905  2.1190 -0.0860
   48CHL1  H27B 6031   3.214   1.304  22.334  3.7307 -1.5970 -0.9445
   48CHL1  H27C 6032   3.321   1.240  22.469  0.2442 -0.7264  0.4581
   49CHL1    C3 6033   0.703   0.539  29.404 -0.4509  0.2731  1.0815
   49CHL1    H3 6034   0.740   0.577  29.502  1.1086  0.9284  0.2640
   49CHL1    O3 6035   0.685   0.396  29.429 -0.4547 -0.5921 -0.8887
   49CHL1   H3' 6036   0.641   0.402  29.515 -1.1635 -0.5229 -1.2471
   49CHL1    C4 6037   0.569   0.603  29.368 -0.6525 -0.1524  0.4817
   49CHL1   H4A 6038   0.531   0.534  29.290  0.0479 -0.3004  0.2627
   49CHL1   H4B 6039   0.496   0.604  29.452 -0.2759 -1.6577  0.8563
   49CHL1    C5 6040   0.588   0.743  29.311 -0.0938  0.3743 -0.3049
   49CHL1    C6 6041   0.519   0.846  29.361  0.3641  0.0259 -1.3054
   49CHL1    H6 6042   0.452   0.829  29.447  0.3708  1.0089 -1.0986
   49CHL1    C7 6043   0.516   0.985  29.294 -0.9163  0.0151 -0.0723
   49CHL1   H7A 6044   0.411   1.019  29.287 -1.8941 -2.6632  0.2565
   49CHL1   H7B 6045   0.569   1.063  29.353  0.5127 -0.4205 -0.7366
   49CHL1    C8 6046   0.577   0.987  29.153  0.4804 -0.2593 -0.5661
   49CHL1    H8 6047   0.512   0.936  29.080  0.9319 -1.4982 -0.1267
   49CHL1   C14 6048   0.610   1.128  29.114  0.1875  0.2551  0.2748
   49CHL1   H14 6049   0.680   1.165  29.191 -3.0989 -0.2135  3.8065
   49CHL1   C15 6050   0.501   1.235  29.115 -0.2616 -0.2603  0.8751
   49CHL1  H15A 6051   0.410   1.191  29.068  0.4238  0.1746 -0.9433
   49CHL1  H15B 6052   0.474   1.272  29.217  2.5047 -0.1158  1.6263
   49CHL1   C16 6053   0.567   1.339  29.027  0.5327  0.0997  0.7418
   49CHL1  H16A 6054   0.497   1.364  28.944  1.2211  0.8570  0.3868
   49CHL1  H16B 6055   0.591   1.427  29.090 -0.3217 -0.4313  1.8469
   49CHL1   C17 6056   0.701   1.280  28.969  0.4291 -0.5242  0.8649
   49CHL1   H17 6057   0.783   1.319  29.033  0.5581  1.1392 -0.2376
   49CHL1   C13 6058   0.687   1.136  28.984  0.8669  1.2461  0.5066
   49CHL1   C18 6059   0.594   1.089  28.865  0.8608  0.1292  0.2211
   49CHL1  H18A 6060   0.639   1.090  28.764 -0.2506  2.0378 -0.3181
   49CHL1  H18B 6061   0.552   0.987  28.879  0.0161  0.5275  0.7021
   49CHL1  H18C 6062   0.504   1.153  28.855  1.9661  1.7121  0.0512
   49CHL1   C12 6063   0.821   1.061  28.995 -0.1807 -0.6206  0.0350
   49CHL1  H12A 6064   0.871   1.063  28.895  0.9936 -1.4254  0.5770
   49CHL1  H12B 6065   0.878   1.110  29.077 -0.8926  2.1502 -1.0052
   49CHL1   C11 6066   0.805   0.919  29.029 -0.0957 -0.4294 -0.4280
   49CHL1  H11A 6067   0.754   0.871  28.942 -1.9324 -0.1496  0.4454
   49CHL1  H11B 6068   0.902   0.869  29.049 -0.4126 -0.4991  1.0308
   49CHL1    C9 6069   0.711   0.906  29.151 -0.4183  0.0038  0.3199
   49CHL1    H9 6070   0.768   0.965  29.226  1.0968  0.1265 -0.8735
   49CHL1   C10 6071   0.689   0.758  29.202  0.1201  0.1462  0.3749
   49CHL1   C19 6072   0.638   0.681  29.078 -0.3237 -0.2380  0.3609
   49CHL1  H19A 6073   0.537   0.719  29.049  0.0297 -0.1115 -0.7535
   49CHL1  H19B 6074   0.702   0.688  28.988 -1.8781 -3.3279 -1.1560
   49CHL1  H19C 6075   0.638   0.573  29.105  0.7675 -0.1702  0.6469
   49CHL1    C1 6076   0.824   0.698  29.257 -0.4832  0.7249 -0.0415
   49CHL1   H1A 6077   0.901   0.713  29.179 -0.4179  2.8234  0.3587
   49CHL1   H1B 6078   0.851   0.766  29.341  1.5408 -0.0867  0.0154
   49CHL1    C2 6079   0.813   0.552  29.295 -0.2349 -0.5831 -0.0735
   49CHL1   H2A 6080   0.912   0.522  29.334 -1.2917 -0.9400  2.5320
   49CHL1   H2B 6081   0.777   0.483  29.216 -1.2897  2.3576 -2.3746
   49CHL1   C20 6082   0.765   1.348  28.838 -0.4409  0.2178  0.2600
   49CHL1   H20 6083   0.834   1.272  28.795  2.8187  1.3306  3.1051
   49CHL1   C21 6084   0.861   1.468  28.871  0.6748 -0.0689 -0.6875
   49CHL1  H21A 6085   0.943   1.437  28.939  0.0529 -0.6911 -0.1994
   49CHL1  H21B 6086   0.804   1.546  28.925  1.1395 -0.7083  0.7748
   49CHL1  H21C 6087   0.905   1.516  28.781  0.5993 -1.0130 -1.2454
   49CHL1   C22 6088   0.666   1.397  28.735  0.8583  0.2358 -0.4628
   49CHL1  H22A 6089   0.586   1.324  28.714  0.2344  1.1828 -1.4872
   49CHL1  H22B 6090   0.617   1.488  28.777  1.0926 -0.4556  1.4065
   49CHL1   C23 6091   0.725   1.430  28.599  0.9199  0.0988 -0.2663
   49CHL1  H23A 6092   0.794   1.517  28.606  0.9813 -0.0611  1.6346
   49CHL1  H23B 6093   0.784   1.346  28.556  1.2484 -0.6490  1.5400
   49CHL1   C24 6094   0.610   1.452  28.501  0.2528 -0.3327  0.1084
   49CHL1  H24A 6095   0.569   1.353  28.471  1.9095 -1.3622  1.0787
   49CHL1  H24B 6096   0.531   1.517  28.544  0.9330  1.6279 -1.4475
   49CHL1   C25 6097   0.657   1.532  28.380  0.2812  0.3751  0.1124
   49CHL1   H25 6098   0.741   1.598  28.411  0.5602  0.1047 -0.0686
   49CHL1   C26 6099   0.709   1.444  28.261 -0.1230 -0.1681  0.5285
   49CHL1  H26A 6100   0.633   1.375  28.218  1.2119 -0.9103 -0.7706
   49CHL1  H26B 6101   0.725   1.510  28.173  0.7846 -1.1178 -0.0401
   49CHL1  H26C 6102   0.795   1.381  28.293  0.6920  0.2039 -0.8709
   49CHL1   C27 6103   0.542   1.617  28.329  0.4942  0.1358 -0.2753
   49CHL1  H27A 6104   0.465   1.549  28.288  0.4155  0.1101 -0.0849
   49CHL1  H27B 6105   0.508   1.675  28.418  0.9343 -0.4299  0.2725
   49CHL1  H27C 6106   0.577   1.695  28.259 -0.1350  0.0411 -0.6987
   50CHL1    C3 6107   2.220   2.779  26.708 -0.2867  0.4327  0.4076
   50CHL1    H3 6108   2.330   2.765  26.715 -0.1965  0.8615 -0.0917
   50CHL1    O3 6109   2.192   2.913  26.691  0.2496  0.8551 -0.5102
   50CHL1   H3' 6110   2.103   2.916  26.728  0.4597 -1.3264  0.3139
   50CHL1    C4 6111   2.162   2.705  26.591  0.2404 -1.5686 -0.2866
   50CHL1   H4A 6112   2.053   2.724  26.583  0.2654 -1.2072  0.1683
   50CHL1   H4B 6113   2.204   2.747  26.497  1.6089 -0.3063  0.8405
   50CHL1    C5 6114   2.203   2.562  26.590 -0.0257 -0.3551 -0.4402
   50CHL1    C6 6115   2.275   2.499  26.497 -0.1636 -0.3641  0.2806
   50CHL1    H6 6116   2.296   2.551  26.402  0.0718 -0.6500  0.1735
   50CHL1    C7 6117   2.319   2.352  26.508 -0.1672  0.6944 -0.3836
   50CHL1   H7A 6118   2.300   2.300  26.412  1.8299 -0.5735 -0.1332
   50CHL1   H7B 6119   2.429   2.358  26.513 -0.1432  0.3641 -0.5018
   50CHL1    C8 6120   2.236   2.269  26.612 -1.6106  0.2390  0.3973
   50CHL1    H8 6121   2.138   2.252  26.563 -1.8848  0.0876  0.9876
   50CHL1   C14 6122   2.311   2.142  26.647 -0.1393 -0.2241 -0.4061
   50CHL1   H14 6123   2.411   2.168  26.688 -0.5811 -0.8618  1.1357
   50CHL1   C15 6124   2.347   2.041  26.534 -0.1079  0.2137  0.3954
   50CHL1  H15A 6125   2.263   2.029  26.463  1.4738 -1.2187 -1.3291
   50CHL1  H15B 6126   2.431   2.070  26.468  0.7951 -2.4081  0.2550
   50CHL1   C16 6127   2.374   1.909  26.603 -0.3601 -0.4581 -0.5787
   50CHL1  H16A 6128   2.290   1.842  26.574  0.0745 -1.4256  0.3212
   50CHL1  H16B 6129   2.472   1.858  26.588  0.0758 -0.4569  1.9076
   50CHL1   C17 6130   2.344   1.938  26.757 -0.7804  0.3854  0.4089
   50CHL1   H17 6131   2.444   1.971  26.792 -0.2910  2.3848 -2.5461
   50CHL1   C13 6132   2.248   2.062  26.760  0.4453  0.4227 -0.0724
   50CHL1   C18 6133   2.098   2.018  26.720  0.1389 -0.6190  0.3078
   50CHL1  H18A 6134   2.051   1.981  26.814 -0.9028  0.3676  0.1905
   50CHL1  H18B 6135   2.039   2.098  26.670 -1.4784 -0.9343  1.6170
   50CHL1  H18C 6136   2.099   1.926  26.656  0.3844 -1.2793  1.2358
   50CHL1   C12 6137   2.254   2.147  26.889  0.3101 -0.0383  0.1513
   50CHL1  H12A 6138   2.207   2.094  26.974  0.7282  2.1070  1.8054
   50CHL1  H12B 6139   2.361   2.162  26.914  0.2525  0.3093  0.1907
   50CHL1   C11 6140   2.169   2.272  26.873  0.3630  0.0623 -0.1749
   50CHL1  H11A 6141   2.060   2.256  26.860  0.6572 -0.9303 -1.5574
   50CHL1  H11B 6142   2.172   2.336  26.964  0.7377 -0.6317  0.3015
   50CHL1    C9 6143   2.223   2.354  26.742  0.3264  0.2741 -0.0114
   50CHL1    H9 6144   2.328   2.387  26.760  0.7214  0.2490 -1.9684
   50CHL1   C10 6145   2.145   2.491  26.715 -0.3468 -0.4867 -0.1158
   50CHL1   C19 6146   1.994   2.464  26.685  0.7959 -0.4552  0.4111
   50CHL1  H19A 6147   1.940   2.421  26.772 -0.5714 -0.6493 -0.4987
   50CHL1  H19B 6148   1.937   2.559  26.679 -0.3884 -0.6665  4.7749
   50CHL1  H19C 6149   1.971   2.396  26.600 -1.0595 -1.6585  1.7810
   50CHL1    C1 6150   2.157   2.581  26.846  0.0885  0.2101  0.5792
   50CHL1   H1A 6151   2.078   2.538  26.911  1.3762 -1.1388  1.3152
   50CHL1   H1B 6152   2.255   2.556  26.892 -1.2986 -2.2268  2.4599
   50CHL1    C2 6153   2.139   2.736  26.839 -0.6546 -0.1380  0.6330
   50CHL1   H2A 6154   2.184   2.797  26.920  1.3397 -0.9638  0.1845
   50CHL1   H2B 6155   2.030   2.753  26.820 -0.4240 -1.6746 -2.7361
   50CHL1   C20 6156   2.299   1.810  26.829 -0.0421  0.3150  0.2914
   50CHL1   H20 6157   2.209   1.776  26.773 -0.9912  2.4199  0.4178
   50CHL1   C21 6158   2.237   1.837  26.963  0.3560 -0.3096  0.5006
   50CHL1  H21A 6159   2.134   1.876  26.955  0.5368  0.1774  0.5143
   50CHL1  H21B 6160   2.299   1.901  27.029 -0.5796 -1.2833  2.4100
   50CHL1  H21C 6161   2.229   1.740  27.016 -1.4430  0.5904  1.9996
   50CHL1   C22 6162   2.411   1.699  26.827 -0.0761  0.5044 -0.3624
   50CHL1  H22A 6163   2.488   1.733  26.755 -1.0131 -0.1338 -1.6940
   50CHL1  H22B 6164   2.457   1.697  26.928  0.2225 -0.1645 -0.5010
   50CHL1   C23 6165   2.366   1.551  26.795 -0.5456  0.2081 -0.3207
   50CHL1  H23A 6166   2.457   1.488  26.797 -1.2834 -0.8805  1.9055
   50CHL1  H23B 6167   2.281   1.523  26.862 -0.3228  0.8246  0.2313
   50CHL1   C24 6168   2.315   1.541  26.655  0.3087  0.3211 -0.5595
   50CHL1  H24A 6169   2.218   1.596  26.660  1.3458  2.1392  0.8363
   50CHL1  H24B 6170   2.368   1.594  26.573  2.2916 -0.5017  0.1496
   50CHL1   C25 6171   2.294   1.390  26.609 -0.3168 -0.6702 -0.0104
   50CHL1   H25 6172   2.394   1.345  26.594 -0.3543 -0.7078 -0.1538
   50CHL1   C26 6173   2.206   1.307  26.705 -0.0529 -0.3203  0.9430
   50CHL1  H26A 6174   2.252   1.299  26.806 -1.2688  0.9074  1.6380
   50CHL1  H26B 6175   2.107   1.358  26.709 -0.6011 -1.0819 -1.3919
   50CHL1  H26C 6176   2.182   1.206  26.666  0.8180 -0.3188  0.3898
   50CHL1   C27 6177   2.225   1.386  26.472  0.7252 -0.5914 -0.3610
   50CHL1  H27A 6178   2.274   1.458  26.403  0.4257 -0.7764 -0.7640
   50CHL1  H27B 6179   2.233   1.287  26.424  1.7241 -0.4239 -0.5698
   50CHL1  H27C 6180   2.118   1.413  26.478  0.9448  0.3359 -0.3518
   51CHL1    C3 6181   0.542   0.937  24.659  0.7286  0.7224 -0.3283
   51CHL1    H3 6182   0.463   0.875  24.611  0.8649  0.8877 -0.7759
   51CHL1    O3 6183   0.581   0.889  24.786  0.3827  0.1233  0.3971
   51CHL1   H3' 6184   0.645   0.819  24.771 -1.8176 -1.6109 -1.9899
   51CHL1    C4 6185   0.661   0.941  24.562  0.2986 -0.2618 -0.0400
   51CHL1   H4A 6186   0.744   0.985  24.622  1.6371  0.1208 -2.0556
   51CHL1   H4B 6187   0.700   0.838  24.549 -1.2439 -0.8016 -0.5598
   51CHL1    C5 6188   0.639   1.006  24.429  0.1522 -0.3024  1.4525
   51CHL1    C6 6189   0.669   0.950  24.310  0.3105 -0.0577 -0.2230
   51CHL1    H6 6190   0.719   0.852  24.312 -1.2237 -0.9750 -2.4786
   51CHL1    C7 6191   0.640   1.008  24.177 -1.0160 -0.8071 -0.5568
   51CHL1   H7A 6192   0.723   0.983  24.108 -1.0737  1.5525 -1.5857
   51CHL1   H7B 6193   0.547   0.961  24.137 -1.9646  2.4330 -2.5717
   51CHL1    C8 6194   0.627   1.163  24.185  0.3154 -0.0943 -0.5556
   51CHL1    H8 6195   0.733   1.184  24.211  0.7703 -1.2704 -1.3718
   51CHL1   C14 6196   0.591   1.222  24.047  0.2668  0.0151 -0.5429
   51CHL1   H14 6197   0.500   1.166  24.015  0.1249  0.5292 -1.0537
   51CHL1   C15 6198   0.697   1.205  23.940 -0.5509 -0.1046  0.2514
   51CHL1  H15A 6199   0.802   1.192  23.974  0.0787  1.5648 -0.9531
   51CHL1  H15B 6200   0.664   1.111  23.891 -1.9131  0.4338  0.0633
   51CHL1   C16 6201   0.659   1.305  23.834 -0.0409  0.2174  0.0574
   51CHL1  H16A 6202   0.745   1.372  23.815 -0.7634  1.9472  2.3289
   51CHL1  H16B 6203   0.635   1.259  23.736 -0.3839  1.0961 -0.2738
   51CHL1   C17 6204   0.537   1.383  23.892  0.6453  0.0829 -0.2531
   51CHL1   H17 6205   0.441   1.334  23.864  0.3176  0.8361 -0.4869
   51CHL1   C13 6206   0.562   1.362  24.049 -0.4031  0.1033  0.5942
   51CHL1   C18 6207   0.680   1.444  24.104 -0.0258 -0.8564  0.0007
   51CHL1  H18A 6208   0.719   1.404  24.200  1.7989 -2.1728 -1.1995
   51CHL1  H18B 6209   0.759   1.462  24.027  0.0458 -3.1323 -0.5324
   51CHL1  H18C 6210   0.642   1.546  24.122  0.2894 -0.7118 -0.1516
   51CHL1   C12 6211   0.442   1.383  24.144 -0.8796  0.0284  0.6283
   51CHL1  H12A 6212   0.421   1.491  24.134 -0.5657 -0.1107 -2.2966
   51CHL1  H12B 6213   0.354   1.329  24.103 -0.5879 -0.9945  1.2982
   51CHL1   C11 6214   0.467   1.336  24.289 -0.6473  0.0102 -0.2509
   51CHL1  H11A 6215   0.535   1.412  24.331 -2.0101  1.2024 -0.1451
   51CHL1  H11B 6216   0.373   1.341  24.348 -1.2504 -3.4695 -0.6742
   51CHL1    C9 6217   0.520   1.191  24.294  0.5103 -0.3048  0.6642
   51CHL1    H9 6218   0.430   1.132  24.268  0.4474 -0.1024  0.4170
   51CHL1   C10 6219   0.564   1.143  24.434 -0.3294  0.1767 -0.0461
   51CHL1   C19 6220   0.663   1.245  24.486 -0.0596 -0.7490 -0.3678
   51CHL1  H19A 6221   0.748   1.242  24.415  0.2046  1.6157 -0.2301
   51CHL1  H19B 6222   0.621   1.347  24.498  1.8272  0.1820 -1.4250
   51CHL1  H19C 6223   0.713   1.217  24.581 -0.8552  0.1585  0.3384
   51CHL1    C1 6224   0.446   1.138  24.532 -0.0296 -1.0013 -0.3752
   51CHL1   H1A 6225   0.405   1.240  24.550 -1.7141 -2.0443  2.3351
   51CHL1   H1B 6226   0.365   1.086  24.476  0.9776 -2.0812 -0.8696
   51CHL1    C2 6227   0.468   1.066  24.671  0.2518  0.4311  0.0552
   51CHL1   H2A 6228   0.371   1.045  24.720 -0.5984  2.3051 -0.7282
   51CHL1   H2B 6229   0.519   1.131  24.746 -0.9079  0.6045  0.7292
   51CHL1   C20 6230   0.536   1.523  23.826 -0.6500 -0.4300  0.3873
   51CHL1   H20 6231   0.617   1.583  23.872 -2.1747  2.6270 -0.6373
   51CHL1   C21 6232   0.412   1.599  23.878  0.1461 -0.0326  0.1088
   51CHL1  H21A 6233   0.318   1.543  23.858  0.4013 -1.1434  1.8613
   51CHL1  H21B 6234   0.400   1.698  23.829 -0.1191  0.1961  0.6213
   51CHL1  H21C 6235   0.426   1.620  23.987  2.3405  1.1894 -0.3505
   51CHL1   C22 6236   0.525   1.525  23.671 -0.4693  0.5786 -0.0929
   51CHL1  H22A 6237   0.594   1.449  23.629  0.0216  0.8958  0.1374
   51CHL1  H22B 6238   0.427   1.482  23.642  0.0505 -1.2027  0.6872
   51CHL1   C23 6239   0.567   1.661  23.613 -0.7580  0.1559 -0.0114
   51CHL1  H23A 6240   0.509   1.744  23.659 -0.2427 -0.1831  1.3007
   51CHL1  H23B 6241   0.674   1.682  23.636 -0.2029 -0.4561 -1.8960
   51CHL1   C24 6242   0.545   1.657  23.457  0.0369 -0.4898 -0.8250
   51CHL1  H24A 6243   0.617   1.582  23.418 -0.0416 -2.0598  1.7825
   51CHL1  H24B 6244   0.441   1.625  23.436 -0.3628 -0.8755  1.4716
   51CHL1   C25 6245   0.588   1.784  23.386 -0.0066  0.1251 -0.7664
   51CHL1   H25 6246   0.670   1.831  23.444 -0.6828  0.8275 -0.3478
   51CHL1   C26 6247   0.637   1.760  23.244 -0.3276  0.8276  0.3054
   51CHL1  H26A 6248   0.721   1.687  23.238 -1.0332  0.1120 -4.3798
   51CHL1  H26B 6249   0.558   1.711  23.184  0.7736 -0.2953 -0.2653
   51CHL1  H26C 6250   0.674   1.856  23.203 -1.2310  0.1558 -2.2047
   51CHL1   C27 6251   0.473   1.883  23.384 -0.4463  0.0363  0.1661
   51CHL1  H27A 6252   0.443   1.911  23.487  1.9410 -2.2941  1.6032
   51CHL1  H27B 6253   0.509   1.977  23.335 -0.2484  0.4857  1.1551
   51CHL1  H27C 6254   0.376   1.846  23.344  0.0775  0.1892 -1.3079
   52CHL1    C3 6255   2.658   3.059  27.180  0.4699  0.1853  0.2405
   52CHL1    H3 6256   2.665   3.045  27.070  0.0267  2.8126 -0.1893
   52CHL1    O3 6257   2.665   3.196  27.196  0.3052 -0.1114 -0.5813
   52CHL1   H3' 6258   2.720   3.212  27.273  0.0891  2.9261 -0.9381
   52CHL1    C4 6259   2.518   3.021  27.229 -0.3256 -0.2751 -0.1269
   52CHL1   H4A 6260   2.501   3.053  27.334  2.1377 -1.6095  0.7608
   52CHL1   H4B 6261   2.450   3.076  27.161 -0.9188  0.1416  0.7889
   52CHL1    C5 6262   2.506   2.873  27.223 -0.2156  0.1327 -0.1729
   52CHL1    C6 6263   2.420   2.805  27.137  0.3394 -0.1804  0.1032
   52CHL1    H6 6264   2.349   2.859  27.073  1.7493  0.3495 -1.0932
   52CHL1    C7 6265   2.415   2.651  27.125 -0.0340 -0.1610 -0.2149
   52CHL1   H7A 6266   2.309   2.621  27.113 -0.6320  1.6459  0.1889
   52CHL1   H7B 6267   2.471   2.607  27.039 -1.6135 -0.0719 -1.3367
   52CHL1    C8 6268   2.479   2.586  27.252 -0.3361 -0.4887 -0.2422
   52CHL1    H8 6269   2.416   2.596  27.343 -1.0089 -0.5969 -0.6957
   52CHL1   C14 6270   2.496   2.443  27.228 -0.3394  0.6343  0.5859
   52CHL1   H14 6271   2.556   2.440  27.134 -2.1827 -3.5663 -0.6604
   52CHL1   C15 6272   2.368   2.359  27.213  0.4067 -0.3279 -0.6068
   52CHL1  H15A 6273   2.294   2.398  27.286  0.1140  0.0898 -1.1180
   52CHL1  H15B 6274   2.322   2.382  27.114 -0.6154  0.6485  0.0712
   52CHL1   C16 6275   2.407   2.216  27.240  0.0736  0.4685  0.3045
   52CHL1  H16A 6276   2.348   2.180  27.328  1.2457 -1.1003  0.4906
   52CHL1  H16B 6277   2.376   2.153  27.154 -2.4021  0.0334  1.4042
   52CHL1   C17 6278   2.562   2.215  27.268 -0.3073  0.7244  0.7405
   52CHL1   H17 6279   2.596   2.222  27.163 -2.8131  0.7075 -0.1555
   52CHL1   C13 6280   2.579   2.357  27.325 -0.2426 -0.5427 -0.7635
   52CHL1   C18 6281   2.519   2.361  27.467 -0.3743 -0.4166  0.4048
   52CHL1  H18A 6282   2.423   2.309  27.481 -1.2709  1.2233  0.6620
   52CHL1  H18B 6283   2.581   2.324  27.551 -0.4991 -0.6214  0.4042
   52CHL1  H18C 6284   2.493   2.468  27.487  0.5405 -0.6214  3.0830
   52CHL1   C12 6285   2.715   2.421  27.332 -0.6414  0.0258  0.3649
   52CHL1  H12A 6286   2.762   2.361  27.413 -0.4731 -0.7030 -0.2579
   52CHL1  H12B 6287   2.779   2.398  27.244 -0.1513  2.3752  0.0378
   52CHL1   C11 6288   2.714   2.569  27.368 -0.6742  0.3085 -0.1332
   52CHL1  H11A 6289   2.683   2.576  27.474 -1.0636 -0.4672 -0.1830
   52CHL1  H11B 6290   2.816   2.613  27.360 -0.0044 -1.3649 -1.3769
   52CHL1    C9 6291   2.619   2.649  27.281 -0.4268  0.0126 -0.2271
   52CHL1    H9 6292   2.668   2.631  27.183  1.0725  1.6577  0.1808
   52CHL1   C10 6293   2.615   2.798  27.302  0.4185  0.2127 -0.7757
   52CHL1   C19 6294   2.575   2.813  27.455 -0.5984  0.6363 -0.5651
   52CHL1  H19A 6295   2.485   2.749  27.462  0.7836 -1.4429 -0.9626
   52CHL1  H19B 6296   2.648   2.762  27.521 -0.7713 -0.8070 -1.4531
   52CHL1  H19C 6297   2.560   2.916  27.495  1.0606  0.4740  0.5618
   52CHL1    C1 6298   2.758   2.857  27.273 -0.4114  0.2485 -0.2363
   52CHL1   H1A 6299   2.827   2.827  27.355 -0.2412  1.8358  0.2332
   52CHL1   H1B 6300   2.801   2.815  27.179  0.8258  0.7846  0.0657
   52CHL1    C2 6301   2.768   3.004  27.270  0.4505  0.5195  0.0078
   52CHL1   H2A 6302   2.869   3.021  27.227  0.1738  1.9776 -0.1372
   52CHL1   H2B 6303   2.747   3.049  27.370  0.0480 -0.8604  0.5598
   52CHL1   C20 6304   2.609   2.091  27.348 -0.7804 -0.0954  0.2283
   52CHL1   H20 6305   2.565   2.092  27.450  1.3526 -0.1900  1.2247
   52CHL1   C21 6306   2.765   2.096  27.344 -0.7663  0.4291  0.3307
   52CHL1  H21A 6307   2.810   1.996  27.361 -0.4010  0.4225 -0.5989
   52CHL1  H21B 6308   2.807   2.153  27.430  1.7828 -1.3231  0.3839
   52CHL1  H21C 6309   2.814   2.132  27.251 -0.8909 -0.5384 -0.1248
   52CHL1   C22 6310   2.561   1.953  27.285 -0.1717  0.5383  0.4006
   52CHL1  H22A 6311   2.452   1.969  27.270  0.3545  4.0507 -0.5966
   52CHL1  H22B 6312   2.612   1.939  27.187 -0.7005 -0.1311  0.2183
   52CHL1   C23 6313   2.581   1.830  27.365  0.1154  0.5894  0.5908
   52CHL1  H23A 6314   2.685   1.792  27.353  0.0914  0.9225 -0.9606
   52CHL1  H23B 6315   2.564   1.849  27.473  1.1110  1.1864  0.6556
   52CHL1   C24 6316   2.484   1.716  27.325 -0.5859  0.4588 -0.1163
   52CHL1  H24A 6317   2.395   1.747  27.385 -1.3184  1.4737 -1.6537
   52CHL1  H24B 6318   2.457   1.721  27.218 -0.6960  0.7228 -0.0766
   52CHL1   C25 6319   2.527   1.583  27.383  0.4263  0.1915 -0.2494
   52CHL1   H25 6320   2.615   1.555  27.321  1.0266 -0.8997  1.0455
   52CHL1   C26 6321   2.579   1.608  27.524 -0.7566  0.1551 -0.6088
   52CHL1  H26A 6322   2.671   1.670  27.533  0.7263 -1.9968 -0.3373
   52CHL1  H26B 6323   2.497   1.641  27.592 -0.8756 -1.1906 -0.0706
   52CHL1  H26C 6324   2.623   1.516  27.568 -4.0605 -1.6615 -0.7551
   52CHL1   C27 6325   2.415   1.477  27.372 -0.6295 -0.5917 -0.0224
   52CHL1  H27A 6326   2.443   1.377  27.411 -0.0111  0.0580  1.2826
   52CHL1  H27B 6327   2.329   1.506  27.435 -0.7534  1.6313 -1.1121
   52CHL1  H27C 6328   2.362   1.478  27.275  0.3369  1.4978 -0.5717
   53CHL1    C3 6329   2.450   2.993  25.639 -0.4074 -0.2466  0.3431
   53CHL1    H3 6330   2.561   2.991  25.648 -0.4577 -2.2419  0.9805
   53CHL1    O3 6331   2.386   3.119  25.644 -0.5925 -0.2611  0.2760
   53CHL1   H3' 6332   2.427   3.164  25.570 -0.6393 -1.2029 -0.3420
   53CHL1    C4 6333   2.414   2.921  25.502  0.3365 -1.0890  0.5392
   53CHL1   H4A 6334   2.305   2.925  25.482  0.6507 -1.5454 -1.5299
   53CHL1   H4B 6335   2.462   2.975  25.417  0.3259  1.2064  1.9015
   53CHL1    C5 6336   2.463   2.781  25.499  0.2145  0.0887  0.1726
   53CHL1    C6 6337   2.537   2.730  25.404  1.4528 -0.2891  0.1266
   53CHL1    H6 6338   2.581   2.796  25.329  2.7525  0.3630  1.3968
   53CHL1    C7 6339   2.565   2.589  25.390 -0.1771  0.4655  0.2344
   53CHL1   H7A 6340   2.539   2.563  25.285 -0.6744  1.0558  0.2000
   53CHL1   H7B 6341   2.672   2.575  25.415 -0.0859 -1.3230 -0.9766
   53CHL1    C8 6342   2.478   2.502  25.484  0.6163 -0.2138  0.0443
   53CHL1    H8 6343   2.374   2.497  25.445  0.0790 -0.7122  1.4770
   53CHL1   C14 6344   2.546   2.363  25.494  0.0790 -0.1909  0.3402
   53CHL1   H14 6345   2.646   2.381  25.540 -0.1146 -0.3161  0.8105
   53CHL1   C15 6346   2.576   2.288  25.362  1.5075 -0.0938  0.4411
   53CHL1  H15A 6347   2.486   2.280  25.297  0.7433  0.0903  1.4657
   53CHL1  H15B 6348   2.664   2.325  25.305  3.1770 -3.0744  0.8284
   53CHL1   C16 6349   2.601   2.144  25.401 -0.4813  0.0567 -0.1555
   53CHL1  H16A 6350   2.526   2.083  25.349 -0.4548 -0.8851  0.8734
   53CHL1  H16B 6351   2.701   2.101  25.377  0.3901  1.1388  1.2812
   53CHL1   C17 6352   2.574   2.146  25.558 -0.2181  0.8619 -0.2769
   53CHL1   H17 6353   2.671   2.160  25.610  0.3456 -1.5845 -0.5061
   53CHL1   C13 6354   2.479   2.262  25.584 -0.3791 -0.5233 -1.0515
   53CHL1   C18 6355   2.336   2.230  25.534  0.7429 -0.1695  0.7435
   53CHL1  H18A 6356   2.266   2.315  25.546 -1.6872 -1.4168 -2.9431
   53CHL1  H18B 6357   2.334   2.204  25.426 -1.6264  0.4558  0.5955
   53CHL1  H18C 6358   2.285   2.147  25.588 -0.6646  1.7559  2.5436
   53CHL1   C12 6359   2.470   2.315  25.727  0.1509  0.1212 -0.7060
   53CHL1  H12A 6360   2.401   2.246  25.781  2.5316 -1.2468  0.8145
   53CHL1  H12B 6361   2.574   2.310  25.766 -0.0663 -0.6139 -0.1952
   53CHL1   C11 6362   2.409   2.454  25.726  0.1373  0.2678 -0.2653
   53CHL1  H11A 6363   2.301   2.437  25.709  0.3059 -1.8680  0.4636
   53CHL1  H11B 6364   2.403   2.503  25.825  0.5592  0.4152 -0.3087
   53CHL1    C9 6365   2.472   2.555  25.625  0.7121 -0.8571 -0.7893
   53CHL1    H9 6366   2.579   2.570  25.652  0.6707 -0.6370 -0.7441
   53CHL1   C10 6367   2.408   2.699  25.618 -0.2030 -0.2177  0.0215
   53CHL1   C19 6368   2.249   2.676  25.606 -0.8981 -0.2434 -0.4159
   53CHL1  H19A 6369   2.217   2.621  25.696  1.7270 -1.7078 -0.2697
   53CHL1  H19B 6370   2.190   2.768  25.589  1.8301  1.6058 -0.5264
   53CHL1  H19C 6371   2.221   2.605  25.525 -1.1060  0.9276 -1.3972
   53CHL1    C1 6372   2.443   2.764  25.750  0.4143  0.0070 -0.6477
   53CHL1   H1A 6373   2.432   2.697  25.838 -0.0488  2.2730  1.1005
   53CHL1   H1B 6374   2.554   2.763  25.747  0.6207 -1.0247  3.0804
   53CHL1    C2 6375   2.393   2.912  25.756  0.4392 -0.9996  0.2819
   53CHL1   H2A 6376   2.409   2.965  25.852 -1.6384 -0.7677  0.5480
   53CHL1   H2B 6377   2.282   2.914  25.752  0.4529  0.9404 -0.3723
   53CHL1   C20 6378   2.525   2.009  25.605  0.1973 -0.3434 -0.5956
   53CHL1   H20 6379   2.416   2.007  25.584  0.1260  1.5542 -0.5356
   53CHL1   C21 6380   2.538   1.995  25.757 -0.2135  0.2239 -0.7173
   53CHL1  H21A 6381   2.453   2.048  25.804 -0.2270 -0.6904  0.3542
   53CHL1  H21B 6382   2.629   2.037  25.806 -1.1456 -0.1365  1.4620
   53CHL1  H21C 6383   2.527   1.890  25.792 -0.7485  0.3890 -0.3737
   53CHL1   C22 6384   2.591   1.886  25.527 -0.3550  0.1828 -0.4321
   53CHL1  H22A 6385   2.540   1.798  25.574  3.6049 -1.1826  1.8243
   53CHL1  H22B 6386   2.567   1.891  25.419 -1.0555  0.6901 -0.2626
   53CHL1   C23 6387   2.742   1.864  25.547  0.2603  0.4387 -0.2842
   53CHL1  H23A 6388   2.790   1.958  25.512  2.0032  0.5259  2.1544
   53CHL1  H23B 6389   2.780   1.842  25.649 -1.3462  2.8015  0.9170
   53CHL1   C24 6390   2.795   1.751  25.458  0.1196  0.4293 -0.2819
   53CHL1  H24A 6391   2.762   1.769  25.354  2.4686 -2.6293 -1.6898
   53CHL1  H24B 6392   2.904   1.733  25.462  0.1637  0.7349 -0.0707
   53CHL1   C25 6393   2.744   1.613  25.501  0.1194 -0.1023 -0.2391
   53CHL1   H25 6394   2.633   1.612  25.496  0.0876 -0.8657  0.3740
   53CHL1   C26 6395   2.792   1.512  25.397  0.9228  0.2244 -0.1342
   53CHL1  H26A 6396   2.750   1.515  25.294  1.1182 -0.5896 -0.2493
   53CHL1  H26B 6397   2.903   1.513  25.401  0.9331  2.7596  0.3179
   53CHL1  H26C 6398   2.758   1.412  25.432  1.6222  0.5360  1.5289
   53CHL1   C27 6399   2.764   1.571  25.644  0.1996 -0.4104  0.2364
   53CHL1  H27A 6400   2.723   1.468  25.651 -2.9790  0.5798 -1.6002
   53CHL1  H27B 6401   2.874   1.575  25.657  0.1196 -1.2006  1.2911
   53CHL1  H27C 6402   2.729   1.631  25.732 -1.2877 -0.4099 -0.3181
   54CHL1    C3 6403   0.150   0.299  23.949  0.3146 -0.4172 -0.4432
   54CHL1    H3 6404   0.172   0.400  23.989 -1.7134  1.1394 -2.9457
   54CHL1    O3 6405   0.194   0.205  24.047 -0.6932  0.7237 -0.1995
   54CHL1   H3' 6406   0.132   0.211  24.120  0.4291  0.1894  0.8305
   54CHL1    C4 6407   0.005   0.288  23.924 -0.3407 -0.0117  0.8444
   54CHL1   H4A 6408  -0.020   0.184  23.894 -0.2291  0.0941  0.3853
   54CHL1   H4B 6409  -0.053   0.301  24.018 -1.7551  1.0830 -0.1357
   54CHL1    C5 6410  -0.046   0.388  23.820 -0.1790 -0.0813  0.3873
   54CHL1    C6 6411  -0.143   0.472  23.849  0.7470  0.0428 -0.1734
   54CHL1    H6 6412  -0.185   0.469  23.951  2.0062 -1.1211  0.3575
   54CHL1    C7 6413  -0.200   0.575  23.754 -0.2280 -0.1831  0.4736
   54CHL1   H7A 6414  -0.310   0.583  23.768 -0.2247 -0.1722  0.4942
   54CHL1   H7B 6415  -0.164   0.677  23.780 -1.1611 -0.3689  2.7238
   54CHL1    C8 6416  -0.176   0.540  23.613 -0.7454  0.4047  0.1565
   54CHL1    H8 6417  -0.237   0.453  23.580 -2.0644  1.7169 -1.0150
   54CHL1   C14 6418  -0.210   0.651  23.522  0.0184  0.0222  0.1433
   54CHL1   H14 6419  -0.140   0.733  23.550  1.2784 -1.2611  0.9260
   54CHL1   C15 6420  -0.351   0.712  23.519  0.6318 -0.4059 -0.0224
   54CHL1  H15A 6421  -0.435   0.639  23.510  0.0324  0.2304  0.2950
   54CHL1  H15B 6422  -0.381   0.773  23.607  0.2459 -0.0244 -0.4093
   54CHL1   C16 6423  -0.361   0.804  23.393  0.4862 -0.2577 -0.2071
   54CHL1  H16A 6424  -0.449   0.779  23.330 -0.0532 -0.5018  0.6280
   54CHL1  H16B 6425  -0.335   0.908  23.421 -1.9419  0.0586  1.0752
   54CHL1   C17 6426  -0.234   0.759  23.311 -0.4846 -0.5524  0.2209
   54CHL1   H17 6427  -0.153   0.834  23.326 -1.9378  0.7341  1.9321
   54CHL1   C13 6428  -0.179   0.634  23.374 -0.2217  0.9279  0.5483
   54CHL1   C18 6429  -0.268   0.510  23.317  0.2850 -0.0960 -0.5367
   54CHL1  H18A 6430  -0.373   0.545  23.322  0.8502  1.7975 -1.1076
   54CHL1  H18B 6431  -0.242   0.482  23.213 -0.0650  1.4490 -1.0665
   54CHL1  H18C 6432  -0.245   0.418  23.375  1.0889 -0.3681 -1.2820
   54CHL1   C12 6433  -0.024   0.618  23.360  0.2067  0.1323  0.1752
   54CHL1  H12A 6434   0.011   0.593  23.258  0.6224  1.2409  0.0322
   54CHL1  H12B 6435   0.019   0.714  23.397  1.6132 -0.6845  0.7145
   54CHL1   C11 6436   0.030   0.504  23.436  0.2858  0.9266  0.0054
   54CHL1  H11A 6437  -0.006   0.414  23.381  2.0807  0.6303 -0.7497
   54CHL1  H11B 6438   0.141   0.503  23.437  0.4984 -4.2834 -0.9777
   54CHL1    C9 6439  -0.024   0.498  23.584 -0.6354 -0.3590 -0.2134
   54CHL1    H9 6440   0.029   0.583  23.632  0.6627 -0.7967 -0.8246
   54CHL1   C10 6441   0.022   0.386  23.683 -0.0752 -0.0033  0.5589
   54CHL1   C19 6442  -0.016   0.255  23.606  0.4159 -0.0048 -0.5171
   54CHL1  H19A 6443  -0.123   0.254  23.577  0.1088 -0.6022  0.5816
   54CHL1  H19B 6444   0.050   0.230  23.520  0.8627 -0.6658  0.0023
   54CHL1  H19C 6445   0.004   0.173  23.679 -0.1760 -0.3420 -0.7318
   54CHL1    C1 6446   0.169   0.392  23.706  0.3978 -0.1115 -0.0705
   54CHL1   H1A 6447   0.222   0.396  23.609  1.2707 -0.1576  0.3888
   54CHL1   H1B 6448   0.199   0.491  23.747  0.2462  0.0277 -0.2938
   54CHL1    C2 6449   0.217   0.285  23.811 -0.6933  0.0304 -0.0837
   54CHL1   H2A 6450   0.327   0.294  23.830 -1.2086  3.3467  2.4176
   54CHL1   H2B 6451   0.189   0.183  23.779 -0.3910 -0.4011  0.9587
   54CHL1   C20 6452  -0.269   0.761  23.155 -0.0441  0.4051 -0.1491
   54CHL1   H20 6453  -0.348   0.685  23.135  1.8698 -1.9222  0.6569
   54CHL1   C21 6454  -0.145   0.724  23.068 -0.3733  1.1119 -0.0728
   54CHL1  H21A 6455  -0.171   0.745  22.962  0.0915 -0.4195 -0.5062
   54CHL1  H21B 6456  -0.121   0.616  23.075 -0.7537  1.0640  0.6645
   54CHL1  H21C 6457  -0.063   0.792  23.101 -1.7381  2.0017  1.6554
   54CHL1   C22 6458  -0.336   0.889  23.103  0.1998  0.5015 -0.2363
   54CHL1  H22A 6459  -0.363   0.863  22.998 -0.4201 -1.5819  0.3797
   54CHL1  H22B 6460  -0.425   0.919  23.163  0.6434  0.9841  0.1917
   54CHL1   C23 6461  -0.243   1.011  23.091 -0.0132 -0.2687 -0.6577
   54CHL1  H23A 6462  -0.218   1.050  23.192 -1.1463 -0.3199 -0.3422
   54CHL1  H23B 6463  -0.140   0.997  23.051  1.1791  2.5600  1.1207
   54CHL1   C24 6464  -0.300   1.135  23.020  0.0738  0.0413 -0.3396
   54CHL1  H24A 6465  -0.387   1.182  23.070  1.4882  3.5263 -0.8462
   54CHL1  H24B 6466  -0.224   1.215  23.028  0.3225 -0.3223  1.1890
   54CHL1   C25 6467  -0.333   1.105  22.875 -0.8467 -0.2852 -0.7463
   54CHL1   H25 6468  -0.404   1.020  22.868  1.4408 -2.2793 -1.3473
   54CHL1   C26 6469  -0.390   1.230  22.820 -0.2782 -0.2725 -0.0273
   54CHL1  H26A 6470  -0.396   1.227  22.709  0.6191 -0.4909 -0.0732
   54CHL1  H26B 6471  -0.494   1.247  22.855 -0.2936  0.0023 -0.2023
   54CHL1  H26C 6472  -0.345   1.325  22.857 -1.1065 -0.2327  0.9035
   54CHL1   C27 6473  -0.204   1.064  22.806  0.2348 -0.0992  0.3029
   54CHL1  H27A 6474  -0.173   0.960  22.826 -0.3850 -0.3578 -0.0433
   54CHL1  H27B 6475  -0.226   1.071  22.697 -2.9101 -0.7957  0.7904
   54CHL1  H27C 6476  -0.127   1.142  22.822 -0.8570  1.1801 -0.3887
   55CHL1    C3 6477   0.496   0.687  30.448  0.5585  0.6496 -0.0887
   55CHL1    H3 6478   0.550   0.590  30.438  1.9633  1.3423  0.4527
   55CHL1    O3 6479   0.357   0.660  30.474  0.4117  0.1854  0.1025
   55CHL1   H3' 6480   0.310   0.738  30.504  1.3602 -0.0797  2.4619
   55CHL1    C4 6481   0.558   0.785  30.544 -0.5334 -0.2230 -0.0135
   55CHL1   H4A 6482   0.500   0.880  30.543  0.7309  0.7154  2.8942
   55CHL1   H4B 6483   0.542   0.749  30.649 -0.5673 -1.5090 -0.4378
   55CHL1    C5 6484   0.707   0.808  30.514  0.8584 -0.1027 -0.3023
   55CHL1    C6 6485   0.801   0.775  30.610  0.4375  0.1533 -0.3603
   55CHL1    H6 6486   0.771   0.741  30.711 -1.8847 -1.2005 -1.4270
   55CHL1    C7 6487   0.952   0.787  30.589  0.1589 -0.5554 -0.2763
   55CHL1   H7A 6488   1.000   0.822  30.683  0.8278 -0.4763 -0.6489
   55CHL1   H7B 6489   0.998   0.686  30.581 -2.6215 -2.1858  1.9845
   55CHL1    C8 6490   0.986   0.870  30.462 -0.6900  0.3831  0.1311
   55CHL1    H8 6491   0.955   0.976  30.475 -2.0379  0.1677 -1.0300
   55CHL1   C14 6492   1.135   0.837  30.431  0.0177 -0.3105 -0.0627
   55CHL1   H14 6493   1.132   0.729  30.406 -2.1269  0.0433 -1.6365
   55CHL1   C15 6494   1.241   0.841  30.538 -0.5734  0.3390  1.1457
   55CHL1  H15A 6495   1.234   0.930  30.603  1.8108  0.3742  1.4587
   55CHL1  H15B 6496   1.244   0.753  30.605  2.3330 -2.5355 -2.2655
   55CHL1   C16 6497   1.367   0.842  30.451  0.1417  0.0717  0.5056
   55CHL1  H16A 6498   1.415   0.932  30.495 -1.7312  1.0267  0.7031
   55CHL1  H16B 6499   1.424   0.748  30.471 -1.1921 -0.4891  1.9689
   55CHL1   C17 6500   1.330   0.861  30.302  0.7515 -0.3512 -0.1338
   55CHL1   H17 6501   1.318   0.758  30.262 -0.3071 -0.5732  0.7127
   55CHL1   C13 6502   1.186   0.917  30.306  0.2378  0.2125  0.0703
   55CHL1   C18 6503   1.175   1.075  30.342  0.0344  0.6404 -0.3148
   55CHL1  H18A 6504   1.217   1.094  30.443 -1.0917 -2.0987  0.7754
   55CHL1  H18B 6505   1.227   1.139  30.268 -0.9502  1.5129 -0.2844
   55CHL1  H18C 6506   1.064   1.086  30.346  0.2213  3.2749  3.6194
   55CHL1   C12 6507   1.104   0.885  30.180  0.6305  0.6365  0.3816
   55CHL1  H12A 6508   1.118   0.959  30.098  0.0315  0.0701 -0.2549
   55CHL1  H12B 6509   1.125   0.784  30.139 -1.7076  0.9590 -1.8792
   55CHL1   C11 6510   0.946   0.896  30.208 -0.0154 -0.4125  0.1652
   55CHL1  H11A 6511   0.918   1.003  30.202  0.5594 -0.2739 -0.1694
   55CHL1  H11B 6512   0.886   0.850  30.126 -0.1320  0.1643 -0.0770
   55CHL1    C9 6513   0.904   0.822  30.340  1.1463  0.0489 -0.1158
   55CHL1    H9 6514   0.915   0.713  30.324 -0.8544 -0.3168  0.6634
   55CHL1   C10 6515   0.754   0.840  30.373 -0.0776  0.0180  0.6624
   55CHL1   C19 6516   0.706   0.984  30.334 -0.4230 -0.8761  0.0476
   55CHL1  H19A 6517   0.729   1.003  30.227  1.7470 -0.7986  0.4933
   55CHL1  H19B 6518   0.599   1.014  30.334 -0.3513 -0.5711 -1.1893
   55CHL1  H19C 6519   0.756   1.063  30.394 -2.0674  1.5825 -1.6073
   55CHL1    C1 6520   0.679   0.738  30.283  0.2576  0.4745 -0.3291
   55CHL1   H1A 6521   0.710   0.769  30.181  2.6072 -2.4107 -0.6281
   55CHL1   H1B 6522   0.720   0.637  30.301 -0.7217  0.2664  0.8874
   55CHL1    C2 6523   0.524   0.731  30.302  0.0553 -0.0054 -0.3296
   55CHL1   H2A 6524   0.475   0.673  30.221  0.6463  2.4359 -2.5705
   55CHL1   H2B 6525   0.490   0.836  30.288 -0.1870  0.3722  2.4981
   55CHL1   C20 6526   1.433   0.925  30.202  0.1610  0.3946  0.5665
   55CHL1   H20 6527   1.371   0.967  30.120 -0.6409  0.7621  1.3332
   55CHL1   C21 6528   1.530   0.812  30.146  0.3348  0.1698  0.0011
   55CHL1  H21A 6529   1.592   0.781  30.232 -1.3026  0.4779  1.3493
   55CHL1  H21B 6530   1.592   0.867  30.072  0.8014  0.3435  0.5134
   55CHL1  H21C 6531   1.480   0.725  30.098  2.5283 -1.7868  1.0494
   55CHL1   C22 6532   1.515   1.045  30.258  0.6087  0.4462 -0.3876
   55CHL1  H22A 6533   1.445   1.124  30.294 -1.3789 -1.5233  0.2762
   55CHL1  H22B 6534   1.550   0.997  30.353 -1.5874  1.8834  1.2535
   55CHL1   C23 6535   1.634   1.106  30.176  0.5927 -0.2450  0.1984
   55CHL1  H23A 6536   1.684   1.182  30.240 -0.3329 -0.2800  0.9800
   55CHL1  H23B 6537   1.701   1.019  30.163 -0.5188 -1.5181  2.4420
   55CHL1   C24 6538   1.598   1.177  30.046 -0.4777 -0.1140 -0.2400
   55CHL1  H24A 6539   1.538   1.107  29.984 -0.3730  0.2138 -0.7212
   55CHL1  H24B 6540   1.533   1.262  30.077  1.8542  2.2941 -1.4886
   55CHL1   C25 6541   1.713   1.242  29.961 -0.5638 -1.1424 -0.0614
   55CHL1   H25 6542   1.780   1.156  29.942 -0.0104 -0.3401 -1.9756
   55CHL1   C26 6543   1.677   1.308  29.826  0.1605  0.3974  0.1000
   55CHL1  H26A 6544   1.619   1.231  29.771  0.7486 -1.9175  2.5032
   55CHL1  H26B 6545   1.601   1.384  29.852  0.8950  2.1149 -2.3784
   55CHL1  H26C 6546   1.761   1.348  29.765 -1.3199 -2.0404 -3.9247
   55CHL1   C27 6547   1.787   1.342  30.046 -0.2320  0.2333 -0.1585
   55CHL1  H27A 6548   1.817   1.312  30.148 -0.0645 -0.5106 -0.4229
   55CHL1  H27B 6549   1.888   1.344  29.999  0.5591 -1.6831  1.3523
   55CHL1  H27C 6550   1.752   1.448  30.046 -1.6584 -0.2203 -0.6527
   56CHL1    C3 6551   2.144   0.604  29.897  0.3058  0.2192 -0.1375
   56CHL1    H3 6552   2.189   0.579  29.798 -0.7801  0.7095 -0.7741
   56CHL1    O3 6553   2.105   0.486  29.964 -0.1069  0.8089  0.1037
   56CHL1   H3' 6554   2.184   0.432  29.961  0.5867  1.5155  2.8138
   56CHL1    C4 6555   2.239   0.688  29.986 -0.3223  0.5121 -0.3467
   56CHL1   H4A 6556   2.201   0.694  30.090 -2.4672 -0.1375 -1.0494
   56CHL1   H4B 6557   2.336   0.634  29.984 -1.9612 -2.6359 -0.9737
   56CHL1    C5 6558   2.250   0.829  29.942 -0.1856 -0.7730 -0.1446
   56CHL1    C6 6559   2.369   0.878  29.913 -0.5917 -0.2331 -0.9567
   56CHL1    H6 6560   2.457   0.816  29.936  1.0781  2.3565  0.1533
   56CHL1    C7 6561   2.406   1.019  29.868  0.3867 -0.2354  0.2629
   56CHL1   H7A 6562   2.494   1.057  29.926 -0.6108 -0.4811  2.0239
   56CHL1   H7B 6563   2.439   1.012  29.762  0.2470 -0.1819  0.2171
   56CHL1    C8 6564   2.285   1.121  29.867 -0.0977 -0.3229  0.2054
   56CHL1    H8 6565   2.274   1.150  29.974 -0.5116 -1.1374  0.3893
   56CHL1   C14 6566   2.311   1.238  29.782 -0.2085  0.3042  0.6281
   56CHL1   H14 6567   2.331   1.199  29.680 -4.3730 -1.0807  0.1311
   56CHL1   C15 6568   2.433   1.322  29.815  0.1330  0.8791  0.1270
   56CHL1  H15A 6569   2.437   1.368  29.916 -0.3225 -0.1140  0.6121
   56CHL1  H15B 6570   2.528   1.269  29.793  0.6792  1.5589  0.8132
   56CHL1   C16 6571   2.414   1.445  29.726  0.2953 -0.5948  0.2862
   56CHL1  H16A 6572   2.430   1.531  29.795 -4.3890  0.1065  0.8159
   56CHL1  H16B 6573   2.487   1.446  29.641  1.6377 -0.1480  1.4111
   56CHL1   C17 6574   2.261   1.442  29.677  0.5775  0.3032 -0.3347
   56CHL1   H17 6575   2.276   1.408  29.572 -0.1828 -1.0025 -0.0464
   56CHL1   C13 6576   2.201   1.333  29.766  0.2845  0.0375 -0.2588
   56CHL1   C18 6577   2.178   1.403  29.907  0.5589  0.2719 -0.0034
   56CHL1  H18A 6578   2.090   1.466  29.879  0.6115 -0.4043 -1.7974
   56CHL1  H18B 6579   2.156   1.333  29.990 -4.2336  1.2465 -0.1182
   56CHL1  H18C 6580   2.266   1.464  29.936  0.3038  1.0434 -0.7857
   56CHL1   C12 6581   2.068   1.262  29.723 -0.0454 -0.1445  0.1404
   56CHL1  H12A 6582   1.980   1.329  29.739  1.1947  1.1881  1.6835
   56CHL1  H12B 6583   2.072   1.224  29.619 -0.0802  0.4697 -0.0894
   56CHL1   C11 6584   2.040   1.145  29.813 -1.0209  0.5898  0.6499
   56CHL1  H11A 6585   2.018   1.174  29.918 -0.6703 -2.3978  1.6555
   56CHL1  H11B 6586   1.948   1.096  29.776 -0.0377  0.5158 -1.8394
   56CHL1    C9 6587   2.161   1.041  29.826  0.7831 -0.3743  0.4274
   56CHL1    H9 6588   2.169   0.994  29.726 -1.2619  0.0021  0.0448
   56CHL1   C10 6589   2.125   0.911  29.906  0.9107 -0.8020  0.4861
   56CHL1   C19 6590   2.051   0.955  30.041  0.1356 -0.2981  0.2476
   56CHL1  H19A 6591   2.016   0.861  30.089  0.1132  0.6735  2.2380
   56CHL1  H19B 6592   2.121   1.007  30.111 -1.2700  1.2565  0.5473
   56CHL1  H19C 6593   1.963   1.020  30.023  1.3427  1.1525 -0.6347
   56CHL1    C1 6594   2.024   0.830  29.821 -0.2212 -0.3373 -0.3870
   56CHL1   H1A 6595   1.922   0.873  29.827 -1.7095 -3.6083 -0.3483
   56CHL1   H1B 6596   2.056   0.835  29.714 -1.2718  1.3307 -0.6694
   56CHL1    C2 6597   2.013   0.685  29.871  0.0121 -0.3188 -0.3976
   56CHL1   H2A 6598   1.964   0.623  29.792  0.8107 -0.5929 -0.6886
   56CHL1   H2B 6599   1.942   0.681  29.956 -1.3072  0.2300 -1.4372
   56CHL1   C20 6600   2.207   1.587  29.684 -0.3185  0.1046  0.1174
   56CHL1   H20 6601   2.200   1.610  29.792 -2.0242  1.5175 -0.2607
   56CHL1   C21 6602   2.067   1.592  29.609 -0.2328  0.1670  0.0225
   56CHL1  H21A 6603   2.021   1.693  29.610  0.7804  0.6568  2.3473
   56CHL1  H21B 6604   1.998   1.522  29.661  0.3893 -0.5907 -0.1431
   56CHL1  H21C 6605   2.073   1.571  29.500 -0.5707  2.2273 -0.4303
   56CHL1   C22 6606   2.296   1.699  29.624  0.1287  0.5851  1.2449
   56CHL1  H22A 6607   2.398   1.700  29.669  0.3569 -1.9322  0.9346
   56CHL1  H22B 6608   2.314   1.682  29.516  0.4145  1.0235  1.2173
   56CHL1   C23 6609   2.238   1.847  29.630  0.2970  0.4070  0.0405
   56CHL1  H23A 6610   2.141   1.836  29.683  1.3288  0.0654  1.9495
   56CHL1  H23B 6611   2.302   1.921  29.685  0.7210 -0.5559  0.8775
   56CHL1   C24 6612   2.219   1.910  29.491  0.8387  0.0358 -0.3817
   56CHL1  H24A 6613   2.311   1.927  29.431 -0.6000 -0.0984 -2.7321
   56CHL1  H24B 6614   2.151   1.852  29.426 -0.7201  3.2610 -1.8844
   56CHL1   C25 6615   2.135   2.049  29.500  0.6172  0.3688 -0.5814
   56CHL1   H25 6616   2.042   2.029  29.557  0.6519 -2.1202 -1.2623
   56CHL1   C26 6617   2.219   2.161  29.562  0.3679 -0.4961  0.0598
   56CHL1  H26A 6618   2.244   2.152  29.670  2.3580  0.6570 -0.2641
   56CHL1  H26B 6619   2.316   2.162  29.510 -0.2921 -0.4015 -1.2015
   56CHL1  H26C 6620   2.160   2.253  29.541 -0.7696 -1.0582  0.6580
   56CHL1   C27 6621   2.085   2.076  29.357 -0.0875  0.0031  0.3444
   56CHL1  H27A 6622   2.036   2.174  29.340 -0.7630 -0.1147  1.4727
   56CHL1  H27B 6623   2.165   2.056  29.283 -0.2369 -1.4824  0.5438
   56CHL1  H27C 6624   2.010   1.998  29.329  0.1300  0.3184 -1.2133
   57CHL1    C3 6625   2.707   2.922  26.179 -0.0071 -0.1939  0.3322
   57CHL1    H3 6626   2.798   2.939  26.116 -2.3403  1.3901 -2.8923
   57CHL1    O3 6627   2.645   3.051  26.172 -0.7015  0.1634 -0.4328
   57CHL1   H3' 6628   2.555   3.038  26.202 -1.0074 -1.5823 -1.9555
   57CHL1    C4 6629   2.612   2.809  26.119 -0.0096  0.3559 -0.0399
   57CHL1   H4A 6630   2.511   2.819  26.163  0.1226 -0.4863  0.4681
   57CHL1   H4B 6631   2.600   2.839  26.013  3.5250 -2.4579 -1.4320
   57CHL1    C5 6632   2.673   2.673  26.131  0.2344  0.1215 -0.2018
   57CHL1    C6 6633   2.691   2.590  26.033 -0.1940 -1.0244 -0.6385
   57CHL1    H6 6634   2.664   2.621  25.931  0.6697  2.7302  0.0985
   57CHL1    C7 6635   2.748   2.448  26.043 -0.2121 -0.0408  0.5844
   57CHL1   H7A 6636   2.702   2.381  25.967  3.6876 -3.2365  0.6938
   57CHL1   H7B 6637   2.854   2.445  26.012 -0.1356  1.2981  0.6378
   57CHL1    C8 6638   2.740   2.394  26.189 -0.4870  0.1831 -0.6226
   57CHL1    H8 6639   2.633   2.374  26.213 -0.6290 -0.4725 -1.7215
   57CHL1   C14 6640   2.824   2.262  26.203 -0.0309 -0.0463 -0.2977
   57CHL1   H14 6641   2.924   2.297  26.171  0.4655 -1.1952 -0.0734
   57CHL1   C15 6642   2.795   2.148  26.097 -0.2842  0.4056 -0.9794
   57CHL1  H15A 6643   2.686   2.126  26.096  0.0676 -1.7962  0.9333
   57CHL1  H15B 6644   2.829   2.186  25.998  0.7969 -1.0148 -1.1796
   57CHL1   C16 6645   2.870   2.030  26.156  0.4156 -0.0826 -0.1672
   57CHL1  H16A 6646   2.804   1.942  26.175 -1.3301  0.6678 -2.2713
   57CHL1  H16B 6647   2.965   2.000  26.108  1.3395 -1.1013  2.1530
   57CHL1   C17 6648   2.915   2.088  26.302  0.1050  0.1899  0.9497
   57CHL1   H17 6649   3.013   2.140  26.289 -0.5714  1.7015  1.6455
   57CHL1   C13 6650   2.830   2.198  26.337 -0.1790  0.0989  0.3625
   57CHL1   C18 6651   2.686   2.153  26.374  0.4990 -1.0545 -0.9743
   57CHL1  H18A 6652   2.624   2.148  26.282  1.6598  1.0017 -1.9459
   57CHL1  H18B 6653   2.682   2.063  26.438 -0.8213 -0.6661 -0.4813
   57CHL1  H18C 6654   2.645   2.234  26.438  2.0697  0.0713 -1.3365
   57CHL1   C12 6655   2.877   2.305  26.442 -0.0892  0.3795 -0.2477
   57CHL1  H12A 6656   2.877   2.262  26.545 -2.4338 -1.3045 -0.8589
   57CHL1  H12B 6657   2.978   2.335  26.408 -0.6786  2.6502 -0.1728
   57CHL1   C11 6658   2.810   2.438  26.436  0.5480  0.2106  0.7163
   57CHL1  H11A 6659   2.708   2.424  26.478  0.1551  0.3604 -0.1574
   57CHL1  H11B 6660   2.869   2.512  26.494  2.4342  0.0489 -0.8971
   57CHL1    C9 6661   2.795   2.499  26.287  0.0056  0.2873 -0.9320
   57CHL1    H9 6662   2.893   2.531  26.245  1.7045 -3.0868  0.1304
   57CHL1   C10 6663   2.714   2.635  26.281  0.3067  0.4861  0.2262
   57CHL1   C19 6664   2.583   2.607  26.358 -0.1122 -0.2663 -0.3542
   57CHL1  H19A 6665   2.600   2.572  26.462 -0.4083 -1.9104 -0.8289
   57CHL1  H19B 6666   2.528   2.700  26.382  1.4798  0.7763 -0.5820
   57CHL1  H19C 6667   2.524   2.526  26.310 -1.0016 -1.2585  2.2417
   57CHL1    C1 6668   2.798   2.754  26.353 -0.3356  1.0956 -0.1957
   57CHL1   H1A 6669   2.791   2.730  26.462 -1.1714 -2.4246 -0.9147
   57CHL1   H1B 6670   2.904   2.751  26.319  0.2794 -0.4021  1.6493
   57CHL1    C2 6671   2.744   2.898  26.332  0.2534 -0.4525 -0.1884
   57CHL1   H2A 6672   2.818   2.978  26.354  1.2443 -1.2772 -0.4463
   57CHL1   H2B 6673   2.654   2.914  26.395  0.5720  0.8906 -0.0493
   57CHL1   C20 6674   2.937   1.976  26.399  0.2714  0.0267  0.0856
   57CHL1   H20 6675   2.849   1.912  26.418  1.7818 -1.4621  2.7436
   57CHL1   C21 6676   2.979   2.022  26.535 -0.1979 -0.0083 -0.8824
   57CHL1  H21A 6677   2.907   2.088  26.587  2.7210  1.1719  2.0929
   57CHL1  H21B 6678   3.072   2.082  26.526  0.7122 -1.4166 -1.1843
   57CHL1  H21C 6679   3.010   1.937  26.601  0.8843  0.2004 -1.0944
   57CHL1   C22 6680   3.033   1.865  26.348 -0.5718  0.4623  0.7287
   57CHL1  H22A 6681   3.034   1.785  26.425 -1.8343 -1.1297 -0.8226
   57CHL1  H22B 6682   2.991   1.809  26.261  2.0301 -1.9147  0.8585
   57CHL1   C23 6683   3.176   1.919  26.313 -0.1128 -0.3822  0.1571
   57CHL1  H23A 6684   3.174   2.003  26.240 -0.8563 -2.5848 -2.5226
   57CHL1  H23B 6685   3.229   1.959  26.402 -1.4725  0.4611  0.6014
   57CHL1   C24 6686   3.267   1.801  26.258  0.1940 -0.1549  0.0656
   57CHL1  H24A 6687   3.292   1.734  26.343 -1.4998 -3.3889 -1.7686
   57CHL1  H24B 6688   3.204   1.739  26.190  0.7904 -1.3671  0.5700
   57CHL1   C25 6689   3.383   1.851  26.184 -0.3361 -0.1557 -0.0163
   57CHL1   H25 6690   3.353   1.907  26.093  0.2378  1.5065  0.7878
   57CHL1   C26 6691   3.481   1.938  26.268  0.5487 -0.1579  0.4439
   57CHL1  H26A 6692   3.434   2.021  26.324 -1.6382 -1.0505  0.0475
   57CHL1  H26B 6693   3.534   1.875  26.344 -1.9078 -1.3045  1.3073
   57CHL1  H26C 6694   3.562   1.975  26.203  1.1105 -1.0084  0.6383
   57CHL1   C27 6695   3.450   1.731  26.112 -0.5004  0.7397  0.1705
   57CHL1  H27A 6696   3.530   1.756  26.039 -0.5389 -0.3371 -0.2550
   57CHL1  H27B 6697   3.486   1.652  26.182  1.2418  0.9064 -0.4823
   57CHL1  H27C 6698   3.369   1.674  26.062 -0.6882 -0.5387  1.8193
   58CHL1    C3 6699   2.721   0.471  29.252  0.8130 -0.0023  0.2255
   58CHL1    H3 6700   2.656   0.520  29.328 -2.6580 -0.2415 -2.3403
   58CHL1    O3 6701   2.748   0.338  29.293 -0.5304 -0.1394  0.4297
   58CHL1   H3' 6702   2.666   0.294  29.316  0.2986 -2.0293 -0.0499
   58CHL1    C4 6703   2.646   0.477  29.119 -0.2931  0.0744  0.1882
   58CHL1   H4A 6704   2.699   0.431  29.033  0.0310  0.2647  0.2873
   58CHL1   H4B 6705   2.554   0.415  29.131  0.0047 -0.2137  1.0397
   58CHL1    C5 6706   2.615   0.622  29.090  0.3423 -0.0435  0.1386
   58CHL1    C6 6707   2.489   0.663  29.077 -0.3941 -0.4648  0.0862
   58CHL1    H6 6708   2.403   0.595  29.090 -1.4269  0.8308  0.1639
   58CHL1    C7 6709   2.458   0.804  29.029 -0.3438 -0.1093  0.5469
   58CHL1   H7A 6710   2.384   0.806  28.947  2.3663 -0.2051 -2.0486
   58CHL1   H7B 6711   2.418   0.858  29.118 -0.6303 -0.2298  0.4913
   58CHL1    C8 6712   2.580   0.874  28.982 -0.0368 -0.0605  0.4965
   58CHL1    H8 6713   2.615   0.839  28.883 -2.7174 -0.5898 -0.3265
   58CHL1   C14 6714   2.547   1.024  28.978 -0.1738  0.6902 -0.3470
   58CHL1   H14 6715   2.519   1.045  29.083  0.0054 -1.9475  0.3090
   58CHL1   C15 6716   2.433   1.057  28.889 -0.1608  0.3541  0.2911
   58CHL1  H15A 6717   2.445   0.997  28.796  1.1935 -0.1703  0.7862
   58CHL1  H15B 6718   2.331   1.036  28.928 -1.4312  1.2639 -2.2906
   58CHL1   C16 6719   2.448   1.202  28.859 -0.0375 -0.4476  0.4502
   58CHL1  H16A 6720   2.464   1.224  28.751 -2.6209 -0.6923 -0.0592
   58CHL1  H16B 6721   2.374   1.277  28.894  0.9529  0.2498  1.0909
   58CHL1   C17 6722   2.590   1.245  28.918  0.2671 -1.0469  0.1198
   58CHL1   H17 6723   2.562   1.276  29.021 -1.0572  2.0239 -1.0524
   58CHL1   C13 6724   2.668   1.114  28.930 -0.2391  0.0178  0.6286
   58CHL1   C18 6725   2.714   1.075  28.787  0.0512 -0.2838  0.6052
   58CHL1  H18A 6726   2.732   0.966  28.777  0.4073 -0.0991 -0.9757
   58CHL1  H18B 6727   2.637   1.095  28.709  0.5797 -3.0296 -0.7113
   58CHL1  H18C 6728   2.808   1.134  28.778 -1.2490  1.5970 -2.3210
   58CHL1   C12 6729   2.774   1.099  29.039  0.5107 -0.1311  0.0311
   58CHL1  H12A 6730   2.860   1.167  29.025  0.5110 -0.3043 -0.8101
   58CHL1  H12B 6731   2.716   1.124  29.131 -0.8201 -2.6181 -0.0499
   58CHL1   C11 6732   2.818   0.955  29.061  0.1421  0.3062 -0.2336
   58CHL1  H11A 6733   2.871   0.918  28.970  1.7796  0.2763  0.6945
   58CHL1  H11B 6734   2.888   0.949  29.147 -0.4787 -2.2242  0.1754
   58CHL1    C9 6735   2.694   0.854  29.079 -0.6804  0.0130  0.4339
   58CHL1    H9 6736   2.652   0.884  29.177 -1.8548  2.4925 -0.7354
   58CHL1   C10 6737   2.737   0.708  29.087  0.2782  0.2250  0.0517
   58CHL1   C19 6738   2.822   0.666  28.967 -0.2504  0.1133 -0.2379
   58CHL1  H19A 6739   2.767   0.658  28.871 -0.8297  0.6733  0.0369
   58CHL1  H19B 6740   2.910   0.734  28.960 -1.6408  2.3080  1.9178
   58CHL1  H19C 6741   2.849   0.559  28.978 -0.3893 -0.6287 -4.9891
   58CHL1    C1 6742   2.827   0.683  29.207 -1.0296 -0.8261 -0.4738
   58CHL1   H1A 6743   2.927   0.729  29.192 -1.6151  0.6671  0.0280
   58CHL1   H1B 6744   2.790   0.738  29.296  1.0565  0.4300 -0.3133
   58CHL1    C2 6745   2.853   0.540  29.245 -0.9374 -0.5233 -0.3033
   58CHL1   H2A 6746   2.901   0.536  29.345 -0.9894  2.0536 -0.1208
   58CHL1   H2B 6747   2.925   0.485  29.181 -0.9412 -0.4548 -0.3670
   58CHL1   C20 6748   2.651   1.360  28.834 -0.3519 -0.1380 -0.4398
   58CHL1   H20 6749   2.667   1.323  28.730  1.6659  1.9317 -0.9482
   58CHL1   C21 6750   2.797   1.402  28.886  0.2522  0.0658 -0.2679
   58CHL1  H21A 6751   2.833   1.478  28.812  0.0652 -1.3784 -1.9004
   58CHL1  H21B 6752   2.871   1.322  28.864  0.3314 -0.3723  1.4470
   58CHL1  H21C 6753   2.800   1.449  28.987 -1.5042 -0.0305 -0.1520
   58CHL1   C22 6754   2.561   1.491  28.821 -0.2502 -0.6532  0.3922
   58CHL1  H22A 6755   2.620   1.566  28.763 -2.1746  1.6345  1.2201
   58CHL1  H22B 6756   2.471   1.469  28.761 -0.1752 -0.9154  0.3759
   58CHL1   C23 6757   2.516   1.546  28.953 -1.1404  0.4478 -0.4592
   58CHL1  H23A 6758   2.446   1.476  29.003 -0.2262 -0.3393 -0.2459
   58CHL1  H23B 6759   2.600   1.569  29.023  0.0506  1.8385 -2.2434
   58CHL1   C24 6760   2.448   1.683  28.934  0.1117  0.2139 -0.2671
   58CHL1  H24A 6761   2.497   1.735  28.850  1.0201 -2.1231 -1.2452
   58CHL1  H24B 6762   2.340   1.667  28.913  0.1297 -0.0086 -0.1860
   58CHL1   C25 6763   2.457   1.778  29.050  0.0128  0.3576 -0.5628
   58CHL1   H25 6764   2.387   1.862  29.034 -0.8991  0.1809  2.1121
   58CHL1   C26 6765   2.394   1.722  29.180  0.2858  0.6576  0.4867
   58CHL1  H26A 6766   2.438   1.622  29.199 -1.5141  0.0099  1.5214
   58CHL1  H26B 6767   2.406   1.795  29.263  3.3333  1.6182 -0.6922
   58CHL1  H26C 6768   2.285   1.712  29.159  0.1535 -0.4863  1.5373
   58CHL1   C27 6769   2.598   1.835  29.081 -0.2528  0.1303  0.1864
   58CHL1  H27A 6770   2.666   1.836  28.993  0.8322  1.4995  1.0130
   58CHL1  H27B 6771   2.581   1.931  29.134  0.1609 -0.3321  1.1831
   58CHL1  H27C 6772   2.644   1.771  29.160 -3.4442 -1.8493  0.6215
   59CHL1    C3 6773   0.285   1.246  30.882  0.2132 -0.8528 -0.2660
   59CHL1    H3 6774   0.258   1.350  30.855 -0.5179 -0.7513  0.7979
   59CHL1    O3 6775   0.166   1.212  30.941 -0.4722  0.2366  0.3470
   59CHL1   H3' 6776   0.184   1.125  30.978  5.5937 -0.4613 -3.0731
   59CHL1    C4 6777   0.325   1.154  30.760  0.1495  0.5583  0.3905
   59CHL1   H4A 6778   0.343   1.055  30.806 -0.2123  1.4173  2.5048
   59CHL1   H4B 6779   0.239   1.140  30.691  1.5420 -2.1452 -0.9573
   59CHL1    C5 6780   0.454   1.211  30.709 -0.3979  0.0627  0.2998
   59CHL1    C6 6781   0.459   1.243  30.582  0.2586  0.1765  0.2964
   59CHL1    H6 6782   0.367   1.227  30.524 -0.1877  0.1590  0.9933
   59CHL1    C7 6783   0.578   1.298  30.516  0.5770  0.0761 -0.3467
   59CHL1   H7A 6784   0.595   1.235  30.426  2.4258 -0.9492  0.6673
   59CHL1   H7B 6785   0.556   1.406  30.499  1.4837 -0.0711 -2.9325
   59CHL1    C8 6786   0.709   1.300  30.603  0.1754  0.1781 -0.1250
   59CHL1    H8 6787   0.754   1.199  30.609  1.7062  0.6516 -2.3148
   59CHL1   C14 6788   0.809   1.396  30.540  0.0020  0.1398 -0.8702
   59CHL1   H14 6789   0.749   1.489  30.545  0.6936  0.5321  1.5173
   59CHL1   C15 6790   0.848   1.387  30.388  0.1382  0.1575  0.6591
   59CHL1  H15A 6791   0.897   1.293  30.355  0.1297  0.6007 -0.6665
   59CHL1  H15B 6792   0.759   1.411  30.326  0.6499  1.7270  0.4847
   59CHL1   C16 6793   0.959   1.494  30.378  0.8658  0.4819  0.4393
   59CHL1  H16A 6794   1.038   1.469  30.303 -0.4504  1.3399 -1.3094
   59CHL1  H16B 6795   0.918   1.589  30.338  1.3243  0.6086  0.2692
   59CHL1   C17 6796   1.007   1.521  30.518 -0.0577 -0.0414  0.4998
   59CHL1   H17 6797   0.967   1.622  30.542 -1.8882 -0.6727  0.2481
   59CHL1   C13 6798   0.938   1.418  30.619  0.2969 -0.7945 -0.2332
   59CHL1   C18 6799   1.006   1.283  30.626 -0.7552  0.0925  0.3874
   59CHL1  H18A 6800   0.952   1.215  30.696 -1.4809 -0.5419 -0.7571
   59CHL1  H18B 6801   1.019   1.230  30.530  2.4920  0.0336  0.7489
   59CHL1  H18C 6802   1.108   1.297  30.669  0.0445 -0.4445 -1.2788
   59CHL1   C12 6803   0.899   1.470  30.759  0.4053 -0.1029  0.3797
   59CHL1  H12A 6804   0.995   1.476  30.814 -0.3627  1.3708  1.6394
   59CHL1  H12B 6805   0.849   1.569  30.752 -2.0146 -0.9825  3.0183
   59CHL1   C11 6806   0.797   1.377  30.830  0.1573  0.3001 -0.1192
   59CHL1  H11A 6807   0.851   1.288  30.867  0.2806  1.0307  1.5936
   59CHL1  H11B 6808   0.761   1.432  30.920 -0.1743  1.0977 -0.7245
   59CHL1    C9 6809   0.668   1.338  30.752  0.2433 -0.3200  0.3356
   59CHL1    H9 6810   0.615   1.435  30.742 -1.0912 -0.6774  3.1191
   59CHL1   C10 6811   0.569   1.238  30.809 -0.3335  0.0164 -0.8080
   59CHL1   C19 6812   0.632   1.105  30.855 -0.2877 -0.3172 -0.3357
   59CHL1  H19A 6813   0.570   1.062  30.936  1.3619  0.0124  1.1724
   59CHL1  H19B 6814   0.649   1.025  30.781 -1.1978  0.1052 -1.0122
   59CHL1  H19C 6815   0.723   1.132  30.913 -0.8324  0.4702  0.1757
   59CHL1    C1 6816   0.515   1.302  30.942 -0.7580  0.6867  0.4970
   59CHL1   H1A 6817   0.581   1.310  31.031  0.6418 -1.7073 -0.2461
   59CHL1   H1B 6818   0.499   1.410  30.918  0.1610  0.3786 -1.7307
   59CHL1    C2 6819   0.387   1.237  30.993 -0.8716 -0.7875  0.0465
   59CHL1   H2A 6820   0.348   1.296  31.079 -0.1238  1.7723 -1.2798
   59CHL1   H2B 6821   0.398   1.139  31.043 -1.0006  0.9794  3.9557
   59CHL1   C20 6822   1.160   1.533  30.522  0.3133 -0.0387  0.0721
   59CHL1   H20 6823   1.192   1.429  30.500 -0.5486 -0.4386  0.6601
   59CHL1   C21 6824   1.199   1.561  30.666  0.2560  0.2263 -0.3363
   59CHL1  H21A 6825   1.303   1.601  30.664  0.7793 -1.0887 -1.1357
   59CHL1  H21B 6826   1.204   1.471  30.731 -1.8263 -1.0939 -1.8915
   59CHL1  H21C 6827   1.136   1.638  30.715  0.6098 -0.7158  1.7147
   59CHL1   C22 6828   1.219   1.635  30.422  0.8406 -0.2564 -0.0782
   59CHL1  H22A 6829   1.177   1.607  30.323 -0.2271  0.9034  0.0286
   59CHL1  H22B 6830   1.183   1.734  30.456 -0.5612 -1.3469  1.8010
   59CHL1   C23 6831   1.369   1.636  30.427  1.0670 -0.2929 -0.7229
   59CHL1  H23A 6832   1.405   1.680  30.522  4.2077 -0.2817 -1.7858
   59CHL1  H23B 6833   1.413   1.534  30.424  1.3261 -0.1866 -0.6229
   59CHL1   C24 6834   1.427   1.730  30.319  0.0695 -0.3110 -0.2845
   59CHL1  H24A 6835   1.384   1.831  30.340 -0.1114 -0.2029 -1.1187
   59CHL1  H24B 6836   1.535   1.748  30.338  0.2818  0.2376 -1.8509
   59CHL1   C25 6837   1.402   1.698  30.170 -0.0887  0.1883  0.3197
   59CHL1   H25 6838   1.292   1.700  30.159 -0.1384 -2.7134 -0.5904
   59CHL1   C26 6839   1.477   1.793  30.073  0.6018  0.1815 -0.2105
   59CHL1  H26A 6840   1.580   1.763  30.044  0.4181  0.5789 -1.3267
   59CHL1  H26B 6841   1.421   1.800  29.977  0.9966  1.2860 -0.3782
   59CHL1  H26C 6842   1.460   1.889  30.127 -0.3791 -0.3384  0.4305
   59CHL1   C27 6843   1.441   1.550  30.129 -0.4622 -0.7411  1.1477
   59CHL1  H27A 6844   1.550   1.540  30.146 -0.3755  0.2885  1.2463
   59CHL1  H27B 6845   1.386   1.477  30.192 -2.0500 -2.0408 -1.5168
   59CHL1  H27C 6846   1.418   1.530  30.022 -0.6333  2.8464  0.3729
   60CHL1    C3 6847   0.190   0.565  28.760  0.4675 -0.3354 -0.1131
   60CHL1    H3 6848   0.177   0.553  28.650 -0.5746 -2.0011  0.1577
   60CHL1    O3 6849   0.216   0.437  28.811  0.2888  0.5379 -0.0557
   60CHL1   H3' 6850   0.228   0.449  28.906 -0.7055  2.1437 -0.1114
   60CHL1    C4 6851   0.312   0.657  28.781  0.0383 -0.5355 -0.1024
   60CHL1   H4A 6852   0.343   0.656  28.888 -1.3435 -1.5958  0.3103
   60CHL1   H4B 6853   0.405   0.612  28.739  1.8154 -0.5163  3.4269
   60CHL1    C5 6854   0.279   0.793  28.737  0.2744 -0.5266  0.2412
   60CHL1    C6 6855   0.357   0.850  28.646 -0.5829 -0.6851  0.3635
   60CHL1    H6 6856   0.437   0.791  28.598 -1.2211  0.6501 -2.5844
   60CHL1    C7 6857   0.352   0.996  28.601  0.0704  0.6029  0.4740
   60CHL1   H7A 6858   0.451   1.048  28.597  0.5899 -0.2059  2.0151
   60CHL1   H7B 6859   0.325   0.991  28.494 -4.2109 -2.1742  1.4341
   60CHL1    C8 6860   0.246   1.077  28.681  0.5299 -0.3202  0.3788
   60CHL1    H8 6861   0.296   1.102  28.778 -1.4293 -0.9975  1.6096
   60CHL1   C14 6862   0.202   1.205  28.610  0.2997 -0.5955 -0.3067
   60CHL1   H14 6863   0.143   1.167  28.524 -1.4539  0.6044  0.3102
   60CHL1   C15 6864   0.309   1.288  28.536  0.4998 -0.9371 -0.1143
   60CHL1  H15A 6865   0.386   1.307  28.614 -1.3178  1.1906  1.2743
   60CHL1  H15B 6866   0.340   1.239  28.442  0.4936 -1.9994  0.4237
   60CHL1   C16 6867   0.237   1.429  28.524 -0.0426  0.6532  0.1023
   60CHL1  H16A 6868   0.291   1.509  28.578  1.5063 -0.0346 -0.3745
   60CHL1  H16B 6869   0.229   1.459  28.417 -1.2382 -1.5576 -0.4986
   60CHL1   C17 6870   0.091   1.410  28.581  0.5367  0.0668  0.7132
   60CHL1   H17 6871   0.029   1.363  28.503 -0.4000  1.2388  0.7254
   60CHL1   C13 6872   0.115   1.300  28.691  0.2459 -0.3297 -0.0855
   60CHL1   C18 6873   0.190   1.364  28.810 -0.1603 -0.3649 -1.1174
   60CHL1  H18A 6874   0.246   1.289  28.870 -1.7803 -1.4360 -0.8951
   60CHL1  H18B 6875   0.265   1.435  28.770  1.1092 -0.8296  0.3513
   60CHL1  H18C 6876   0.124   1.426  28.874  2.4572  1.2519  0.1897
   60CHL1   C12 6877  -0.002   1.225  28.741  0.3870  0.1799 -0.1308
   60CHL1  H12A 6878  -0.060   1.290  28.810  1.5078  0.1818  0.8374
   60CHL1  H12B 6879  -0.061   1.204  28.649  0.3080  0.3655 -0.1213
   60CHL1   C11 6880   0.030   1.088  28.806 -0.1085 -0.4601  0.3751
   60CHL1  H11A 6881   0.074   1.109  28.905  0.7153  0.1881 -0.1126
   60CHL1  H11B 6882  -0.063   1.033  28.828 -0.5946  0.4867  0.7279
   60CHL1    C9 6883   0.125   0.993  28.721 -0.4208  0.1402  0.3999
   60CHL1    H9 6884   0.067   0.980  28.627 -1.0635  1.7190  0.5437
   60CHL1   C10 6885   0.163   0.864  28.794 -0.2581 -0.0049 -0.3653
   60CHL1   C19 6886   0.202   0.882  28.947 -0.2847 -0.8492 -0.3971
   60CHL1  H19A 6887   0.228   0.790  29.004 -1.6473 -1.5768 -0.9146
   60CHL1  H19B 6888   0.293   0.946  28.942 -1.1170  0.2821 -2.6139
   60CHL1  H19C 6889   0.119   0.932  29.001 -1.4575 -0.7435 -2.2369
   60CHL1    C1 6890   0.037   0.767  28.781 -0.1612 -0.6091 -0.0263
   60CHL1   H1A 6891  -0.041   0.816  28.845  0.3247 -1.2822  1.1023
   60CHL1   H1B 6892   0.015   0.754  28.673  4.1528  1.0888 -1.2978
   60CHL1    C2 6893   0.065   0.619  28.827  0.9426  0.5933 -0.4784
   60CHL1   H2A 6894  -0.029   0.561  28.814  0.2462  1.7208 -0.6980
   60CHL1   H2B 6895   0.071   0.631  28.937 -0.2499  1.2095 -0.4618
   60CHL1   C20 6896   0.012   1.541  28.621 -0.3033  0.8105  0.3881
   60CHL1   H20 6897   0.055   1.575  28.718  0.4822  1.1132 -0.0590
   60CHL1   C21 6898  -0.138   1.505  28.636 -0.1605 -0.4218  0.3230
   60CHL1  H21A 6899  -0.152   1.474  28.742 -2.5260 -0.5374  0.0273
   60CHL1  H21B 6900  -0.170   1.426  28.565  1.1669  0.0365 -0.8320
   60CHL1  H21C 6901  -0.201   1.592  28.607 -0.4173 -0.3688  1.0196
   60CHL1   C22 6902   0.032   1.663  28.521  0.1873  0.8322  0.9264
   60CHL1  H22A 6903   0.142   1.681  28.524  0.8920 -1.1179 -3.8648
   60CHL1  H22B 6904   0.017   1.627  28.417  1.4374  0.0100  1.0086
   60CHL1   C23 6905  -0.058   1.781  28.559 -0.0394  0.2268 -0.1487
   60CHL1  H23A 6906  -0.165   1.770  28.532 -0.4152  0.6852  1.0898
   60CHL1  H23B 6907  -0.043   1.801  28.667  2.7367 -0.8758 -0.2469
   60CHL1   C24 6908  -0.016   1.910  28.497 -0.0958  0.0589 -0.3168
   60CHL1  H24A 6909   0.095   1.906  28.502 -0.1277 -3.6526  0.5295
   60CHL1  H24B 6910  -0.055   1.917  28.394  0.6937  1.9570 -0.5265
   60CHL1   C25 6911  -0.069   2.031  28.578  0.7443 -0.1071  0.4590
   60CHL1   H25 6912  -0.024   2.020  28.678  1.5793  3.4654  0.6066
   60CHL1   C26 6913  -0.029   2.171  28.526  0.4803  0.9683  0.0539
   60CHL1  H26A 6914   0.082   2.170  28.523  0.5457 -1.5040  0.8891
   60CHL1  H26B 6915  -0.071   2.186  28.424  0.3807  1.2913  0.1418
   60CHL1  H26C 6916  -0.073   2.251  28.589 -0.2909 -0.9836  2.1639
   60CHL1   C27 6917  -0.224   2.023  28.595 -0.2058 -0.5504  0.2381
   60CHL1  H27A 6918  -0.257   2.116  28.646  3.2939  1.3262 -0.5890
   60CHL1  H27B 6919  -0.263   2.025  28.491 -0.2748 -1.4538  0.2383
   60CHL1  H27C 6920  -0.259   1.930  28.645  0.7561 -0.1205  1.7607
   61CHL1    C3 6921   0.215   0.696  26.457 -0.1264  0.4260  0.7310
   61CHL1    H3 6922   0.274   0.698  26.363  0.9346  1.3899  1.3992
   61CHL1    O3 6923   0.157   0.568  26.451 -0.2828 -0.5817 -0.0497
   61CHL1   H3' 6924   0.090   0.563  26.520  1.2166 -1.5098  1.4093
   61CHL1    C4 6925   0.306   0.705  26.576 -0.0929  0.4285  0.3387
   61CHL1   H4A 6926   0.244   0.685  26.666 -0.6778 -1.5197 -0.4324
   61CHL1   H4B 6927   0.385   0.627  26.568  0.6541  1.0856  1.1791
   61CHL1    C5 6928   0.370   0.841  26.589 -0.0234 -0.3827  0.9525
   61CHL1    C6 6929   0.503   0.848  26.602 -0.2169 -0.3579 -0.4265
   61CHL1    H6 6930   0.551   0.750  26.612  0.3239  0.1082  2.1437
   61CHL1    C7 6931   0.576   0.982  26.599 -0.3608  0.3590 -0.0349
   61CHL1   H7A 6932   0.641   0.983  26.689  0.8872  0.4152 -0.9138
   61CHL1   H7B 6933   0.634   0.981  26.504 -1.1108  1.2297 -0.5157
   61CHL1    C8 6934   0.491   1.109  26.613 -0.1258  0.3882  0.0233
   61CHL1    H8 6935   0.447   1.115  26.715 -1.1372 -0.5089 -0.3418
   61CHL1   C14 6936   0.569   1.235  26.564  0.0277  0.3647  0.5157
   61CHL1   H14 6937   0.593   1.202  26.460  2.3443 -0.3893  1.2227
   61CHL1   C15 6938   0.712   1.270  26.619  1.2411 -0.1365  0.3812
   61CHL1  H15A 6939   0.702   1.282  26.729  0.2941 -1.9383  0.5301
   61CHL1  H15B 6940   0.791   1.195  26.595  1.9791  0.7267  0.0440
   61CHL1   C16 6941   0.741   1.406  26.557 -0.1446 -0.0851 -0.0863
   61CHL1  H16A 6942   0.783   1.467  26.640 -0.6579 -2.7134  2.2699
   61CHL1  H16B 6943   0.818   1.394  26.478 -1.2971  0.3301 -1.3144
   61CHL1   C17 6944   0.598   1.464  26.507 -0.7053  0.4313 -0.1460
   61CHL1   H17 6945   0.615   1.442  26.400  0.6619  0.9616 -0.0631
   61CHL1   C13 6946   0.488   1.368  26.552  0.4122 -0.0449 -0.3144
   61CHL1   C18 6947   0.448   1.416  26.692 -0.1465 -1.0041 -0.8530
   61CHL1  H18A 6948   0.378   1.502  26.693 -1.2581 -1.8604  1.0213
   61CHL1  H18B 6949   0.393   1.341  26.753 -0.2904  0.7588  1.3349
   61CHL1  H18C 6950   0.535   1.442  26.756 -0.2204  1.3402 -1.6019
   61CHL1   C12 6951   0.354   1.347  26.469 -0.4007 -0.2942 -0.6973
   61CHL1  H12A 6952   0.284   1.432  26.481  2.4155  2.1895 -0.7378
   61CHL1  H12B 6953   0.374   1.332  26.361 -2.4454 -0.5983 -1.0689
   61CHL1   C11 6954   0.273   1.225  26.527 -0.3140  0.6782  0.2570
   61CHL1  H11A 6955   0.235   1.242  26.630 -0.3086 -0.6807  0.5116
   61CHL1  H11B 6956   0.194   1.207  26.452  0.1203 -2.3310  0.3839
   61CHL1    C9 6957   0.362   1.091  26.534 -0.4688  0.7828  0.6124
   61CHL1    H9 6958   0.397   1.069  26.431  1.1094 -4.2442  1.9242
   61CHL1   C10 6959   0.277   0.964  26.563  1.3080  0.1062  0.6957
   61CHL1   C19 6960   0.191   0.983  26.696 -0.0073 -0.1251  0.1038
   61CHL1  H19A 6961   0.253   0.989  26.788 -0.7300  3.7410  0.4943
   61CHL1  H19B 6962   0.127   1.074  26.694  0.7351  0.4441  1.2650
   61CHL1  H19C 6963   0.114   0.904  26.710 -0.7739  0.6153  0.1272
   61CHL1    C1 6964   0.180   0.940  26.438 -0.7177  0.0804 -0.1729
   61CHL1   H1A 6965   0.114   1.028  26.425 -1.2637 -0.5082 -1.7173
   61CHL1   H1B 6966   0.242   0.948  26.346  2.1457  1.2155  1.7377
   61CHL1    C2 6967   0.109   0.807  26.446 -0.0336  0.3613  0.4885
   61CHL1   H2A 6968   0.053   0.789  26.352 -2.5645  2.0031  1.5742
   61CHL1   H2B 6969   0.049   0.805  26.540  1.2319 -2.5651  1.3630
   61CHL1   C20 6970   0.582   1.615  26.525  0.8199  0.0604  0.7253
   61CHL1   H20 6971   0.569   1.630  26.634 -0.0196  2.4817  0.3480
   61CHL1   C21 6972   0.459   1.668  26.459  0.2696 -0.2504  0.1065
   61CHL1  H21A 6973   0.369   1.630  26.512  0.2945 -0.2023  0.1845
   61CHL1  H21B 6974   0.450   1.635  26.354 -0.5372 -1.4139  0.5226
   61CHL1  H21C 6975   0.463   1.779  26.459  4.0825 -0.2412  1.9356
   61CHL1   C22 6976   0.703   1.700  26.486 -0.2744 -0.4166  0.4928
   61CHL1  H22A 6977   0.683   1.809  26.498  1.7755  0.1290 -0.4688
   61CHL1  H22B 6978   0.797   1.683  26.542  1.6027  2.7294 -1.3492
   61CHL1   C23 6979   0.747   1.699  26.333 -0.1858 -0.4728 -0.1124
   61CHL1  H23A 6980   0.789   1.599  26.309 -1.4641 -1.7750  2.6981
   61CHL1  H23B 6981   0.655   1.724  26.276 -0.1720 -0.8649 -0.3072
   61CHL1   C24 6982   0.848   1.801  26.293 -0.2721  0.3425 -0.5355
   61CHL1  H24A 6983   0.801   1.901  26.310  0.4769  0.5874  0.1988
   61CHL1  H24B 6984   0.946   1.804  26.346 -1.1902  1.8847  1.2156
   61CHL1   C25 6985   0.886   1.813  26.144  0.4112  0.3576 -0.3250
   61CHL1   H25 6986   0.794   1.778  26.092 -0.6441  0.1616  1.5619
   61CHL1   C26 6987   0.927   1.954  26.105 -0.6409 -0.2325 -0.0230
   61CHL1  H26A 6988   1.017   1.992  26.159 -0.4149  2.6250 -2.1522
   61CHL1  H26B 6989   0.954   1.961  25.997  1.3018 -0.6185  0.3889
   61CHL1  H26C 6990   0.847   2.026  26.132 -0.2265  0.1331  0.2621
   61CHL1   C27 6991   0.986   1.702  26.105  0.1634  0.3096 -0.3922
   61CHL1  H27A 6992   1.090   1.730  26.134  0.0958  1.0940 -0.8685
   61CHL1  H27B 6993   0.952   1.609  26.154 -0.6408  1.3966  1.2360
   61CHL1  H27C 6994   0.990   1.689  25.995 -0.3768  0.2952 -0.4125
   62CHL1    C3 6995   2.926   3.163  26.744 -0.1245 -0.7649 -0.2470
   62CHL1    H3 6996   2.824   3.119  26.752  0.2303 -1.6770 -0.6280
   62CHL1    O3 6997   2.928   3.308  26.750 -0.9519 -0.0180 -0.3912
   62CHL1   H3' 6998   2.933   3.315  26.846  3.4225  0.3847 -0.4590
   62CHL1    C4 6999   3.021   3.126  26.858 -0.5893  0.5712  0.0877
   62CHL1   H4A 7000   3.117   3.179  26.837 -0.3389 -0.6572 -2.3238
   62CHL1   H4B 7001   2.977   3.156  26.955  0.7814  0.1066  0.8860
   62CHL1    C5 7002   3.033   2.973  26.862 -1.4207  0.9379 -0.1716
   62CHL1    C6 7003   2.997   2.898  26.968 -0.0605  0.0461  0.5500
   62CHL1    H6 7004   2.949   2.938  27.059 -2.1281 -0.1032 -0.4339
   62CHL1    C7 7005   3.003   2.752  26.969  0.0878 -0.4979 -0.9852
   62CHL1   H7A 7006   3.035   2.729  27.073 -1.1941 -0.2382 -0.5183
   62CHL1   H7B 7007   2.902   2.708  26.955 -0.1105 -0.0295 -1.0351
   62CHL1    C8 7008   3.107   2.700  26.869  0.8442 -0.4638 -0.6986
   62CHL1    H8 7009   3.209   2.729  26.901  1.1488 -0.3774 -1.7210
   62CHL1   C14 7010   3.098   2.552  26.863 -0.4104 -0.4902 -0.1139
   62CHL1   H14 7011   2.999   2.530  26.818 -0.2642  0.8203 -1.1268
   62CHL1   C15 7012   3.106   2.471  26.996 -0.0893 -0.5235  0.0269
   62CHL1  H15A 7013   3.172   2.516  27.073 -2.4413 -0.4594  2.1705
   62CHL1  H15B 7014   3.002   2.486  27.033 -0.4289 -2.5255 -0.0110
   62CHL1   C16 7015   3.153   2.329  26.960 -0.0239 -0.1685  0.3056
   62CHL1  H16A 7016   3.248   2.305  27.012 -1.1171  0.9576  2.9862
   62CHL1  H16B 7017   3.074   2.258  26.994 -1.5221 -0.1160 -2.7015
   62CHL1   C17 7018   3.185   2.337  26.807 -0.0250  0.8566 -0.1416
   62CHL1   H17 7019   3.088   2.313  26.759 -2.2842  1.3716  3.7411
   62CHL1   C13 7020   3.202   2.490  26.772 -0.2415  0.5476  0.0837
   62CHL1   C18 7021   3.345   2.527  26.805  0.1755 -0.2738  0.2200
   62CHL1  H18A 7022   3.422   2.476  26.743 -0.1520  0.1522 -0.5503
   62CHL1  H18B 7023   3.365   2.632  26.775  2.1569 -0.5013  0.6234
   62CHL1  H18C 7024   3.366   2.517  26.913 -3.0043 -0.3388  0.9216
   62CHL1   C12 7025   3.166   2.529  26.625 -1.0934 -0.8551  0.4571
   62CHL1  H12A 7026   3.245   2.490  26.557 -0.1459  0.5314  0.7219
   62CHL1  H12B 7027   3.074   2.485  26.581 -0.4738 -2.2512  0.5023
   62CHL1   C11 7028   3.163   2.682  26.615 -1.0549  0.8035 -0.1897
   62CHL1  H11A 7029   3.271   2.707  26.620 -0.8381 -0.0770 -0.2412
   62CHL1  H11B 7030   3.129   2.716  26.515  1.2845  0.4338 -1.1678
   62CHL1    C9 7031   3.082   2.754  26.731  0.3147  0.0992 -0.2349
   62CHL1    H9 7032   2.974   2.735  26.710  0.2679 -0.2447  0.2806
   62CHL1   C10 7033   3.094   2.911  26.733  0.3704 -0.2599  0.1137
   62CHL1   C19 7034   3.241   2.952  26.717  1.1240 -0.2368 -0.1167
   62CHL1  H19A 7035   3.293   2.900  26.801 -0.7432 -1.5144  0.3146
   62CHL1  H19B 7036   3.287   2.933  26.618 -1.7009 -0.8174 -1.4211
   62CHL1  H19C 7037   3.249   3.062  26.732 -0.1078 -0.3258  1.5281
   62CHL1    C1 7038   3.002   2.972  26.620 -0.2887  0.6631  0.0136
   62CHL1   H1A 7039   3.036   2.940  26.519  0.2445 -0.7295  0.6129
   62CHL1   H1B 7040   2.904   2.920  26.624 -0.2723  0.7304  2.9008
   62CHL1    C2 7041   2.982   3.121  26.615 -0.2198 -0.4749  0.1371
   62CHL1   H2A 7042   2.920   3.153  26.528 -1.0982  0.2331  0.9967
   62CHL1   H2B 7043   3.082   3.168  26.609  0.0227 -0.9908  0.1158
   62CHL1   C20 7044   3.292   2.233  26.770 -1.0850 -0.7274  0.0381
   62CHL1   H20 7045   3.385   2.269  26.818 -2.5170  1.3253  1.4224
   62CHL1   C21 7046   3.320   2.241  26.617  0.4704 -0.6075 -0.5488
   62CHL1  H21A 7047   3.232   2.214  26.556 -0.1149  1.2592 -0.5712
   62CHL1  H21B 7048   3.391   2.156  26.602  0.2663 -1.7789  3.6222
   62CHL1  H21C 7049   3.369   2.337  26.589 -1.3626  0.7786  0.7727
   62CHL1   C22 7050   3.253   2.086  26.809 -0.5997  0.2089  0.2858
   62CHL1  H22A 7051   3.191   2.082  26.901  0.2594  1.1802  0.9277
   62CHL1  H22B 7052   3.188   2.056  26.725 -1.7950  1.1209  0.8713
   62CHL1   C23 7053   3.363   1.983  26.807  0.0533  0.2517 -0.0253
   62CHL1  H23A 7054   3.406   1.977  26.704 -1.3572 -0.2233 -0.6065
   62CHL1  H23B 7055   3.443   1.995  26.883  0.6529 -1.3979 -0.3484
   62CHL1   C24 7056   3.323   1.837  26.844 -0.3144  0.2694  0.2587
   62CHL1  H24A 7057   3.284   1.841  26.948 -0.8373  1.5647  0.0314
   62CHL1  H24B 7058   3.248   1.799  26.771 -0.0993 -2.4563  1.3482
   62CHL1   C25 7059   3.447   1.742  26.822  0.3413  0.3818 -0.8843
   62CHL1   H25 7060   3.491   1.757  26.721  1.4580  1.2868 -0.2970
   62CHL1   C26 7061   3.562   1.765  26.927  0.8387 -0.2865  0.4383
   62CHL1  H26A 7062   3.583   1.874  26.931 -1.3990  0.2793 -0.8827
   62CHL1  H26B 7063   3.537   1.729  27.029  0.1937  0.5302  0.5801
   62CHL1  H26C 7064   3.652   1.706  26.899 -0.9070 -1.8261 -2.4793
   62CHL1   C27 7065   3.403   1.596  26.818 -0.2186 -0.2886 -0.0296
   62CHL1  H27A 7066   3.369   1.550  26.723 -2.1909 -0.3131  0.6507
   62CHL1  H27B 7067   3.484   1.535  26.865 -1.9347 -0.8273  2.4084
   62CHL1  H27C 7068   3.317   1.588  26.888  1.7739 -0.3242  2.5876
   63CHL1    C3 7069   1.733   0.380  24.246  0.2705 -0.1327  0.6437
   63CHL1    H3 7070   1.658   0.456  24.278  2.2366  2.6241 -0.8939
   63CHL1    O3 7071   1.659   0.260  24.213 -0.0377 -0.1532  0.5973
   63CHL1   H3' 7072   1.725   0.190  24.219  0.2320  0.1409  1.1910
   63CHL1    C4 7073   1.808   0.436  24.116 -0.2744 -0.6411  0.1088
   63CHL1   H4A 7074   1.888   0.368  24.078  0.6040  0.8158 -0.7087
   63CHL1   H4B 7075   1.741   0.450  24.029  1.3173  2.1812 -0.8041
   63CHL1    C5 7076   1.866   0.574  24.153 -0.1422 -0.1711  0.7023
   63CHL1    C6 7077   1.841   0.679  24.074 -0.5266  1.2639  0.2593
   63CHL1    H6 7078   1.788   0.664  23.978  1.1188  0.8515 -0.6206
   63CHL1    C7 7079   1.895   0.816  24.093  0.1684 -0.3751 -0.0546
   63CHL1   H7A 7080   1.932   0.865  24.001  0.8496 -1.4746 -0.3938
   63CHL1   H7B 7081   1.812   0.883  24.125  0.2435 -0.1352 -0.3606
   63CHL1    C8 7082   2.001   0.821  24.209  0.0910  0.3942  0.6053
   63CHL1    H8 7083   2.097   0.790  24.163 -0.9551  0.2921 -1.6677
   63CHL1   C14 7084   2.006   0.965  24.259 -0.7791  0.3188 -0.2588
   63CHL1   H14 7085   1.906   0.990  24.300 -0.9753 -1.1434  0.2032
   63CHL1   C15 7086   2.033   1.080  24.160 -0.6171 -0.5636  0.0108
   63CHL1  H15A 7087   2.128   1.056  24.109 -1.1543 -0.2067 -1.1919
   63CHL1  H15B 7088   1.954   1.105  24.086 -1.4345 -1.9529  0.3720
   63CHL1   C16 7089   2.055   1.191  24.263 -0.3588 -0.6833  0.5118
   63CHL1  H16A 7090   2.137   1.250  24.217  0.2810 -0.4070  1.9573
   63CHL1  H16B 7091   1.964   1.254  24.260  0.4786  0.6721 -3.5791
   63CHL1   C17 7092   2.081   1.140  24.405  0.0027 -0.4789 -0.4700
   63CHL1   H17 7093   1.983   1.153  24.455  0.0937 -0.1775 -0.3699
   63CHL1   C13 7094   2.099   0.992  24.378  0.4074  0.2317 -0.9686
   63CHL1   C18 7095   2.246   0.973  24.331 -0.0840  0.5272 -0.9375
   63CHL1  H18A 7096   2.268   1.040  24.245 -0.8061 -1.4942 -2.7812
   63CHL1  H18B 7097   2.323   0.989  24.409 -2.2810  1.3116  1.2312
   63CHL1  H18C 7098   2.266   0.868  24.301  3.5152  0.7428  0.3318
   63CHL1   C12 7099   2.060   0.896  24.493 -0.5350 -0.4171 -0.0438
   63CHL1  H12A 7100   2.136   0.919  24.571 -0.1724  0.2449 -0.5765
   63CHL1  H12B 7101   1.962   0.923  24.538 -0.0693  1.3181 -0.0041
   63CHL1   C11 7102   2.055   0.750  24.449 -0.4865  0.5704 -0.2991
   63CHL1  H11A 7103   2.162   0.726  24.427 -0.7400 -0.9693  0.0662
   63CHL1  H11B 7104   2.032   0.686  24.536 -0.8049 -0.2499 -0.9740
   63CHL1    C9 7105   1.966   0.725  24.322 -0.1957 -0.2663 -0.0307
   63CHL1    H9 7106   1.865   0.753  24.359  1.1065  0.9011  2.9474
   63CHL1   C10 7107   1.946   0.581  24.280 -0.5922 -0.0501 -0.7073
   63CHL1   C19 7108   2.088   0.523  24.244  0.0102 -0.2685 -0.2862
   63CHL1  H19A 7109   2.129   0.570  24.152  1.1740 -2.8157 -1.1799
   63CHL1  H19B 7110   2.169   0.531  24.320  2.5929 -0.7551 -2.8143
   63CHL1  H19C 7111   2.084   0.413  24.228  1.4122 -0.5459  1.0094
   63CHL1    C1 7112   1.881   0.505  24.402  0.5523 -0.5732 -0.3084
   63CHL1   H1A 7113   1.948   0.512  24.489  0.0362  1.1635 -0.0134
   63CHL1   H1B 7114   1.793   0.569  24.425 -0.5072 -0.5290 -3.8455
   63CHL1    C2 7115   1.829   0.366  24.365 -0.1596  0.0327 -0.1108
   63CHL1   H2A 7116   1.773   0.328  24.454 -0.5535 -0.0529 -0.3946
   63CHL1   H2B 7117   1.915   0.297  24.353 -0.3827 -0.4073  0.7087
   63CHL1   C20 7118   2.189   1.221  24.482 -0.6140 -0.7279  0.1364
   63CHL1   H20 7119   2.283   1.211  24.424  0.1464  0.4984  1.1196
   63CHL1   C21 7120   2.206   1.189  24.636 -0.3641  0.6973 -0.0223
   63CHL1  H21A 7121   2.232   1.082  24.651 -1.5513  0.5622  1.3807
   63CHL1  H21B 7122   2.114   1.205  24.697  0.1996 -1.9850  1.7244
   63CHL1  H21C 7123   2.286   1.251  24.681 -0.9821  0.1762  1.8997
   63CHL1   C22 7124   2.164   1.375  24.469  0.6966 -0.1138  0.2963
   63CHL1  H22A 7125   2.239   1.426  24.532  0.7637  1.6201 -1.1156
   63CHL1  H22B 7126   2.189   1.399  24.364  0.2503 -3.1351 -0.5986
   63CHL1   C23 7127   2.026   1.423  24.503 -0.5676 -0.2668 -0.3577
   63CHL1  H23A 7128   1.949   1.378  24.437  0.0272  1.3399 -2.2288
   63CHL1  H23B 7129   2.005   1.396  24.609 -0.8485  4.3461  0.9934
   63CHL1   C24 7130   2.029   1.577  24.488  0.6117  0.1792 -0.6333
   63CHL1  H24A 7131   2.093   1.630  24.561 -1.5336  1.3148  0.5147
   63CHL1  H24B 7132   2.062   1.600  24.384  1.1060  1.7593 -0.1627
   63CHL1   C25 7133   1.898   1.643  24.522 -0.3597  0.1234  0.7522
   63CHL1   H25 7134   1.808   1.593  24.479 -1.2336  1.7066  0.6418
   63CHL1   C26 7135   1.869   1.657  24.678  0.0425 -0.1501 -0.4609
   63CHL1  H26A 7136   1.779   1.722  24.691  0.7053  0.6335  0.3379
   63CHL1  H26B 7137   1.849   1.558  24.725 -0.2018 -0.7408 -1.7801
   63CHL1  H26C 7138   1.955   1.701  24.732 -0.5217  1.2104 -0.6330
   63CHL1   C27 7139   1.893   1.786  24.467 -0.1423 -0.5702  0.3355
   63CHL1  H27A 7140   1.943   1.785  24.367  1.2519  0.0975  0.9899
   63CHL1  H27B 7141   1.790   1.826  24.457 -0.5836 -1.6820  0.2410
   63CHL1  H27C 7142   1.954   1.847  24.537  0.0096 -1.8211  1.3326
   64CHL1    C3 7143   2.087   3.368  24.678  0.0442  0.4444  0.7676
   64CHL1    H3 7144   2.157   3.452  24.658  1.2624 -0.5475  0.8038
   64CHL1    O3 7145   1.980   3.412  24.760 -0.0418  0.2451  0.1106
   64CHL1   H3' 7146   1.982   3.508  24.755  0.7797  0.1640 -2.8889
   64CHL1    C4 7147   2.031   3.334  24.539  0.0110  0.0432  0.5256
   64CHL1   H4A 7148   1.945   3.269  24.564  0.1452  0.0415  1.0010
   64CHL1   H4B 7149   1.989   3.430  24.502 -1.0996 -0.7029 -0.2093
   64CHL1    C5 7150   2.129   3.267  24.442  0.6694  0.1120 -0.7645
   64CHL1    C6 7151   2.138   3.307  24.315 -0.1464  0.2870  0.3183
   64CHL1    H6 7152   2.076   3.388  24.273 -0.9334 -2.0057 -3.3819
   64CHL1    C7 7153   2.231   3.244  24.214  0.1208  0.2494  0.1936
   64CHL1   H7A 7154   2.167   3.222  24.125 -3.2144 -0.5543  2.5871
   64CHL1   H7B 7155   2.317   3.312  24.195  2.0233 -1.3904  2.3872
   64CHL1    C8 7156   2.273   3.103  24.266  1.1029  0.1575 -0.2582
   64CHL1    H8 7157   2.187   3.036  24.249  1.6416 -1.0001  1.3661
   64CHL1   C14 7158   2.391   3.056  24.173 -0.3315  0.0487 -0.6347
   64CHL1   H14 7159   2.478   3.123  24.193 -0.1657 -0.8550  1.9685
   64CHL1   C15 7160   2.371   3.054  24.020  0.4982  0.0069  0.0468
   64CHL1  H15A 7161   2.273   3.003  24.007 -1.1675  2.3040  2.6461
   64CHL1  H15B 7162   2.381   3.151  23.967 -2.1516  0.2200 -0.1906
   64CHL1   C16 7163   2.486   2.963  23.967  0.3087  0.2862  0.4321
   64CHL1  H16A 7164   2.446   2.871  23.919  0.2623  0.5807 -0.1012
   64CHL1  H16B 7165   2.550   3.003  23.885  1.9666 -1.1447  0.9686
   64CHL1   C17 7166   2.572   2.920  24.090 -0.2805  0.3426 -0.8827
   64CHL1   H17 7167   2.644   3.003  24.107  0.7385 -0.4326 -1.2967
   64CHL1   C13 7168   2.462   2.926  24.210  0.5075 -0.1381  0.6042
   64CHL1   C18 7169   2.366   2.805  24.186 -0.4808  0.4407 -0.2182
   64CHL1  H18A 7170   2.357   2.784  24.078  1.4674 -1.3614 -0.0870
   64CHL1  H18B 7171   2.416   2.712  24.221  1.5478  0.4271 -2.8842
   64CHL1  H18C 7172   2.265   2.813  24.233  0.6392  1.5278  2.1613
   64CHL1   C12 7173   2.515   2.933  24.353 -0.4188  0.0091 -0.7101
   64CHL1  H12A 7174   2.567   2.840  24.383 -1.9594 -1.0193 -1.1342
   64CHL1  H12B 7175   2.590   3.016  24.356  1.0215 -1.2852  0.6442
   64CHL1   C11 7176   2.405   2.972  24.457 -0.3007  0.7580  0.1075
   64CHL1  H11A 7177   2.340   2.882  24.472  0.1492  0.1745 -1.2632
   64CHL1  H11B 7178   2.464   2.992  24.549 -2.3230  1.9626  1.2217
   64CHL1    C9 7179   2.327   3.105  24.416 -0.5561 -0.5972 -0.0699
   64CHL1    H9 7180   2.406   3.183  24.412  0.2333 -1.4237 -2.5609
   64CHL1   C10 7181   2.216   3.151  24.504  0.4786  0.0961 -0.3132
   64CHL1   C19 7182   2.114   3.034  24.527  0.0700  0.1273 -1.0065
   64CHL1  H19A 7183   2.124   2.988  24.627  0.4286 -0.8665 -1.4848
   64CHL1  H19B 7184   2.007   3.062  24.526 -0.1120 -0.4106  0.7276
   64CHL1  H19C 7185   2.130   2.949  24.457  0.4119  0.8921 -1.8901
   64CHL1    C1 7186   2.263   3.191  24.648 -0.5884  0.0039 -0.5088
   64CHL1   H1A 7187   2.315   3.112  24.707  0.0739  2.1846  2.0439
   64CHL1   H1B 7188   2.346   3.265  24.645  0.4904 -1.0320  1.6077
   64CHL1    C2 7189   2.155   3.244  24.750  0.7157 -0.1965 -0.0620
   64CHL1   H2A 7190   2.202   3.275  24.845 -1.4373  0.5162  0.8469
   64CHL1   H2B 7191   2.073   3.175  24.780  1.1311 -0.3479  0.7530
   64CHL1   C20 7192   2.650   2.789  24.067  0.4903 -0.1103  0.7239
   64CHL1   H20 7193   2.577   2.706  24.060 -0.0930  0.4749 -0.4796
   64CHL1   C21 7194   2.751   2.752  24.178  0.2643  0.6293 -0.4871
   64CHL1  H21A 7195   2.821   2.670  24.150  1.1208  1.3099 -0.3986
   64CHL1  H21B 7196   2.696   2.719  24.268  1.6394  1.2992  0.6306
   64CHL1  H21C 7197   2.814   2.838  24.211  0.9308  0.2715 -0.7992
   64CHL1   C22 7198   2.725   2.774  23.926 -0.5541 -0.1762 -0.4957
   64CHL1  H22A 7199   2.654   2.816  23.851  0.0011  0.6700 -0.5605
   64CHL1  H22B 7200   2.816   2.837  23.933 -0.6676 -0.1197  0.5989
   64CHL1   C23 7201   2.769   2.627  23.889 -0.0811  0.3458 -0.0219
   64CHL1  H23A 7202   2.827   2.590  23.976 -1.8019  1.8068  1.8593
   64CHL1  H23B 7203   2.681   2.559  23.883  0.8160 -0.8742  0.2974
   64CHL1   C24 7204   2.851   2.617  23.760  0.1938 -0.0597 -0.0890
   64CHL1  H24A 7205   2.798   2.683  23.688  0.3425  1.5929  1.2683
   64CHL1  H24B 7206   2.950   2.667  23.766  0.7932 -1.0055 -1.5250
   64CHL1   C25 7207   2.862   2.475  23.705 -0.0432  0.1215 -0.0374
   64CHL1   H25 7208   2.759   2.431  23.710 -0.5534  1.2375 -0.4119
   64CHL1   C26 7209   2.901   2.463  23.556  0.8561 -0.2188 -0.6514
   64CHL1  H26A 7210   2.839   2.509  23.477  0.4640  0.5789  0.1074
   64CHL1  H26B 7211   3.005   2.502  23.551  1.5838 -1.6823  1.4583
   64CHL1  H26C 7212   2.912   2.357  23.525 -0.7293 -0.8381  0.7433
   64CHL1   C27 7213   2.944   2.388  23.797 -0.1735 -0.3391 -0.4046
   64CHL1  H27A 7214   2.944   2.286  23.754 -1.5739 -0.7323  0.4898
   64CHL1  H27B 7215   3.046   2.431  23.813 -0.6774  0.4353  0.8899
   64CHL1  H27C 7216   2.894   2.373  23.895 -2.4336 -0.2770 -1.4875
   65CHL1    C3 7217   1.123   3.324  28.700 -0.3999  0.2551  0.1229
   65CHL1    H3 7218   1.171   3.292  28.795  0.5028  2.2259  0.3892
   65CHL1    O3 7219   1.131   3.468  28.688  0.3912 -0.0593 -0.8199
   65CHL1   H3' 7220   1.087   3.508  28.764 -0.9446 -0.3308 -1.4090
   65CHL1    C4 7221   1.191   3.252  28.584 -0.2774  0.3807  0.2102
   65CHL1   H4A 7222   1.144   3.264  28.484  1.4559 -1.9830 -0.9954
   65CHL1   H4B 7223   1.288   3.305  28.576 -0.0906 -0.1863 -1.5572
   65CHL1    C5 7224   1.202   3.101  28.610  0.7223 -0.4870 -0.0618
   65CHL1    C6 7225   1.322   3.042  28.634 -0.1469 -0.5459  0.2241
   65CHL1    H6 7226   1.411   3.106  28.622 -0.2077 -0.6016 -0.6238
   65CHL1    C7 7227   1.337   2.896  28.665  0.0733 -0.0789 -0.4573
   65CHL1   H7A 7228   1.410   2.860  28.590  0.7606  2.1793 -0.9455
   65CHL1   H7B 7229   1.369   2.866  28.767 -0.4248 -1.3421 -0.6510
   65CHL1    C8 7230   1.205   2.811  28.640  0.4071 -0.2506  0.0938
   65CHL1    H8 7231   1.190   2.818  28.530  0.2224 -0.2019  0.1237
   65CHL1   C14 7232   1.206   2.669  28.695 -0.4590 -0.5104  0.3244
   65CHL1   H14 7233   1.210   2.683  28.805  0.0988 -0.1350  0.2602
   65CHL1   C15 7234   1.332   2.584  28.668  0.7269 -0.2502 -0.3634
   65CHL1  H15A 7235   1.333   2.570  28.557  2.1572  1.3482 -0.5927
   65CHL1  H15B 7236   1.435   2.620  28.687 -0.0825  2.2788 -0.3361
   65CHL1   C16 7237   1.290   2.451  28.725  0.5314 -0.7011 -0.5621
   65CHL1  H16A 7238   1.313   2.366  28.657  1.3530  1.0427 -2.5776
   65CHL1  H16B 7239   1.342   2.432  28.821 -2.5337 -0.1762  1.3543
   65CHL1   C17 7240   1.131   2.450  28.748  0.2056 -0.0555 -0.2627
   65CHL1   H17 7241   1.121   2.479  28.855 -1.7894 -1.8246  0.0898
   65CHL1   C13 7242   1.088   2.579  28.672  0.7134  0.3362 -0.1697
   65CHL1   C18 7243   1.063   2.544  28.520  0.3030 -0.1007 -0.2037
   65CHL1  H18A 7244   1.146   2.487  28.472  1.0409  0.0931  0.8298
   65CHL1  H18B 7245   0.969   2.490  28.497  0.6393 -0.4621 -0.7902
   65CHL1  H18C 7246   1.064   2.640  28.464  1.9043 -0.0383 -0.1130
   65CHL1   C12 7247   0.959   2.649  28.729 -1.2081 -0.6008 -0.7252
   65CHL1  H12A 7248   0.861   2.601  28.714 -1.8105 -0.2416  1.6185
   65CHL1  H12B 7249   0.969   2.646  28.840 -0.4184  0.7756 -0.7202
   65CHL1   C11 7250   0.959   2.794  28.683  0.4040  0.2626 -0.0818
   65CHL1  H11A 7251   0.939   2.784  28.574 -0.8556  2.3585 -0.0896
   65CHL1  H11B 7252   0.874   2.841  28.736 -0.3663  0.3506 -1.3693
   65CHL1    C9 7253   1.084   2.884  28.698 -0.3008  0.3496  0.8650
   65CHL1    H9 7254   1.107   2.884  28.807  0.3711  0.3286  0.7277
   65CHL1   C10 7255   1.071   3.030  28.642  0.2536  0.2870  0.3636
   65CHL1   C19 7256   0.989   3.024  28.499 -0.1832 -0.3858 -0.8729
   65CHL1  H19A 7257   1.034   2.945  28.435  0.2963 -0.8934  0.0624
   65CHL1  H19B 7258   0.885   2.989  28.518 -0.5211  0.7553 -0.5286
   65CHL1  H19C 7259   0.979   3.125  28.454 -1.2568  0.3517  0.9180
   65CHL1    C1 7260   0.980   3.125  28.738  0.4227  0.4917 -0.1734
   65CHL1   H1A 7261   0.876   3.086  28.740  0.6871 -0.1921  0.5003
   65CHL1   H1B 7262   1.014   3.101  28.840 -0.4930 -0.9373 -0.1703
   65CHL1    C2 7263   0.978   3.274  28.715  0.4780 -0.3639 -0.1781
   65CHL1   H2A 7264   0.930   3.332  28.797  1.6114  1.2080 -0.5659
   65CHL1   H2B 7265   0.932   3.286  28.615  0.0197 -2.0786 -0.2064
   65CHL1   C20 7266   1.066   2.312  28.733 -0.3413 -0.2197  0.3722
   65CHL1   H20 7267   1.070   2.301  28.622 -0.0009  2.2118  0.0863
   65CHL1   C21 7268   0.917   2.322  28.780 -0.0780  0.4274  0.2004
   65CHL1  H21A 7269   0.876   2.401  28.713  0.7724  0.9189  0.2471
   65CHL1  H21B 7270   0.914   2.354  28.886  0.1777  0.7469  0.1123
   65CHL1  H21C 7271   0.857   2.231  28.761  1.5486 -0.5456 -0.4418
   65CHL1   C22 7272   1.136   2.193  28.796 -0.7235 -0.2851  0.0808
   65CHL1  H22A 7273   1.247   2.195  28.792 -0.5895 -0.6605  2.2042
   65CHL1  H22B 7274   1.117   2.179  28.905  0.6378 -6.2642 -0.1398
   65CHL1   C23 7275   1.080   2.063  28.738 -0.6074  0.6128  0.4169
   65CHL1  H23A 7276   0.971   2.067  28.757 -0.3628  1.8908  1.7679
   65CHL1  H23B 7277   1.095   2.069  28.628 -1.1896 -3.3930 -0.0209
   65CHL1   C24 7278   1.137   1.936  28.802 -0.4476 -0.3815 -0.0561
   65CHL1  H24A 7279   1.243   1.952  28.830 -0.3799 -1.8509  0.5713
   65CHL1  H24B 7280   1.095   1.919  28.903  2.7479 -0.3050  1.3765
   65CHL1   C25 7281   1.121   1.803  28.716  0.7083  0.0404  0.4993
   65CHL1   H25 7282   1.141   1.840  28.613 -2.9452  0.4336 -0.2047
   65CHL1   C26 7283   1.208   1.695  28.771 -0.6733  0.2034 -0.4456
   65CHL1  H26A 7284   1.199   1.684  28.882  0.8709  0.5359 -0.2546
   65CHL1  H26B 7285   1.193   1.596  28.722 -0.9432 -0.3109  0.6280
   65CHL1  H26C 7286   1.311   1.730  28.748 -0.1143 -0.5216  0.8217
   65CHL1   C27 7287   0.978   1.753  28.699  0.1156 -0.5445  0.0737
   65CHL1  H27A 7288   0.978   1.666  28.630 -1.9874 -0.6516  0.1219
   65CHL1  H27B 7289   0.934   1.740  28.800 -0.4085 -1.6499 -0.2818
   65CHL1  H27C 7290   0.912   1.829  28.651  0.1368  0.5380  1.6636
   66CHL1    C3 7291   2.478   3.563  24.591 -0.6365  0.1813  0.1275
   66CHL1    H3 7292   2.430   3.473  24.633  2.7816 -0.6244  2.7671
   66CHL1    O3 7293   2.469   3.662  24.691 -0.2629 -0.1848 -0.1975
   66CHL1   H3' 7294   2.443   3.747  24.655 -0.8063  0.5831  1.8544
   66CHL1    C4 7295   2.623   3.536  24.552 -0.4495 -0.0648 -0.4502
   66CHL1   H4A 7296   2.679   3.631  24.569 -2.8613  1.8084 -2.2472
   66CHL1   H4B 7297   2.659   3.468  24.632  0.2351 -1.7353 -2.1273
   66CHL1    C5 7298   2.659   3.481  24.416  0.5528 -0.4718  0.9079
   66CHL1    C6 7299   2.748   3.381  24.403  0.1054 -0.6199 -0.5258
   66CHL1    H6 7300   2.791   3.339  24.495 -1.0356 -0.4099  0.1129
   66CHL1    C7 7301   2.782   3.318  24.277  0.0715 -0.4393  0.9582
   66CHL1   H7A 7302   2.892   3.308  24.264  0.0535  0.3572  0.1113
   66CHL1   H7B 7303   2.737   3.217  24.270 -1.6149  0.3046  0.3530
   66CHL1    C8 7304   2.743   3.401  24.153 -0.1035 -0.5155  0.8415
   66CHL1    H8 7305   2.813   3.485  24.138  0.0816 -0.6400  1.0081
   66CHL1   C14 7306   2.740   3.307  24.027 -0.1646 -0.4101  1.1333
   66CHL1   H14 7307   2.661   3.235  24.055 -1.1291 -0.1977 -0.8726
   66CHL1   C15 7308   2.861   3.216  23.984 -0.1077 -0.1058  0.2597
   66CHL1  H15A 7309   2.942   3.292  23.977 -1.1890  1.1672  1.0571
   66CHL1  H15B 7310   2.896   3.133  24.049 -0.3289  0.6416  1.3628
   66CHL1   C16 7311   2.823   3.173  23.843 -0.3459  0.2857 -0.1483
   66CHL1  H16A 7312   2.906   3.211  23.778  0.9698  1.2280  1.9587
   66CHL1  H16B 7313   2.804   3.065  23.830  1.6433  0.0221 -1.4365
   66CHL1   C17 7314   2.695   3.257  23.802  0.6799  0.0628  0.2649
   66CHL1   H17 7315   2.606   3.205  23.842  1.8190 -2.2305 -0.0076
   66CHL1   C13 7316   2.687   3.374  23.903 -0.0034 -0.8415  0.3840
   66CHL1   C18 7317   2.790   3.474  23.863 -0.3842  0.4043 -0.0955
   66CHL1  H18A 7318   2.802   3.555  23.938  0.6886 -0.8314  1.1123
   66CHL1  H18B 7319   2.890   3.434  23.837 -0.6232 -0.7789  0.7564
   66CHL1  H18C 7320   2.762   3.541  23.778  2.2710  2.4631  0.5093
   66CHL1   C12 7321   2.553   3.435  23.926  0.1562 -0.0107  0.1289
   66CHL1  H12A 7322   2.500   3.487  23.843  1.8898  0.3747 -0.7646
   66CHL1  H12B 7323   2.478   3.354  23.941  0.6834 -0.1752  2.1829
   66CHL1   C11 7324   2.547   3.527  24.043 -0.5860  0.3309 -0.2736
   66CHL1  H11A 7325   2.606   3.618  24.020 -1.3154  0.7394 -0.5767
   66CHL1  H11B 7326   2.443   3.559  24.065 -0.6277 -1.2214  2.0907
   66CHL1    C9 7327   2.597   3.458  24.168 -0.0482  0.0484  0.2367
   66CHL1    H9 7328   2.531   3.370  24.182 -1.2233  0.7227 -0.8294
   66CHL1   C10 7329   2.584   3.541  24.297 -0.4668  0.3591  0.3072
   66CHL1   C19 7330   2.644   3.683  24.265 -0.5037  0.0192 -0.2782
   66CHL1  H19A 7331   2.564   3.729  24.202  0.0937  0.7696 -0.4999
   66CHL1  H19B 7332   2.646   3.738  24.362 -0.0821  2.0252 -1.3554
   66CHL1  H19C 7333   2.740   3.683  24.210 -0.2725 -1.3673  0.0936
   66CHL1    C1 7334   2.435   3.546  24.339  0.1975  0.4596  0.4069
   66CHL1   H1A 7335   2.366   3.571  24.256 -2.3440 -0.8951  1.9764
   66CHL1   H1B 7336   2.402   3.440  24.347  1.2508 -0.0019 -0.9176
   66CHL1    C2 7337   2.409   3.615  24.467  0.7612 -0.0464  0.0210
   66CHL1   H2A 7338   2.298   3.618  24.481  0.4704 -2.1874 -1.3826
   66CHL1   H2B 7339   2.418   3.724  24.450 -1.2479 -0.0194 -1.2087
   66CHL1   C20 7340   2.679   3.287  23.650 -0.9867 -0.3077 -0.2663
   66CHL1   H20 7341   2.778   3.319  23.610 -1.3422 -0.4843 -1.2989
   66CHL1   C21 7342   2.581   3.395  23.606  0.7803  0.6837  0.9023
   66CHL1  H21A 7343   2.481   3.367  23.644  0.5495  0.5766  0.2297
   66CHL1  H21B 7344   2.575   3.406  23.495  2.6892 -2.7445  0.3100
   66CHL1  H21C 7345   2.603   3.494  23.651  2.4523  1.1032 -0.6797
   66CHL1   C22 7346   2.652   3.154  23.574 -0.6303  0.6546 -0.3465
   66CHL1  H22A 7347   2.738   3.087  23.593 -0.1889  1.4889  0.6943
   66CHL1  H22B 7348   2.564   3.106  23.622 -0.1885  1.5415  1.4355
   66CHL1   C23 7349   2.639   3.160  23.422  0.4473 -0.4907  0.0284
   66CHL1  H23A 7350   2.629   3.055  23.388  1.7899 -0.1654 -1.5180
   66CHL1  H23B 7351   2.550   3.223  23.400  2.0392  1.2357 -1.9044
   66CHL1   C24 7352   2.766   3.218  23.350 -0.3785  0.0253  0.4875
   66CHL1  H24A 7353   2.799   3.318  23.386  0.5332  0.3107 -1.0207
   66CHL1  H24B 7354   2.855   3.156  23.374  0.3808  0.3169 -1.3631
   66CHL1   C25 7355   2.760   3.220  23.190  0.1350  0.2509 -0.3409
   66CHL1   H25 7356   2.666   3.274  23.165  2.1090  2.9950 -2.5402
   66CHL1   C26 7357   2.874   3.306  23.128 -0.3261 -0.2544  1.0895
   66CHL1  H26A 7358   2.971   3.267  23.167  0.8314  0.6145 -0.7693
   66CHL1  H26B 7359   2.869   3.307  23.017 -0.0521  1.3553  1.0581
   66CHL1  H26C 7360   2.863   3.407  23.174 -0.4788 -0.3315  1.2219
   66CHL1   C27 7361   2.775   3.091  23.124 -0.3254  0.0595 -0.3032
   66CHL1  H27A 7362   2.773   3.111  23.015 -0.3601  1.3780 -0.0775
   66CHL1  H27B 7363   2.863   3.032  23.157 -0.1811  0.9801  1.0148
   66CHL1  H27C 7364   2.692   3.020  23.144  0.2566 -1.2582 -2.2374
   67CHL1    C3 7365   0.505   0.864  26.108  0.3069  0.6160  0.3099
   67CHL1    H3 7366   0.420   0.883  26.177 -0.1124  1.2810 -0.3780
   67CHL1    O3 7367   0.558   0.737  26.131 -0.5824 -0.1937  0.1463
   67CHL1   H3' 7368   0.642   0.735  26.084 -1.2909 -0.1758 -1.1495
   67CHL1    C4 7369   0.478   0.899  25.964 -0.5174  0.0880 -0.3025
   67CHL1   H4A 7370   0.576   0.892  25.913 -1.6022 -1.2609 -2.3310
   67CHL1   H4B 7371   0.421   0.823  25.907  0.8896  1.4520 -3.7652
   67CHL1    C5 7372   0.431   1.040  25.946  0.4099 -0.2047 -0.0563
   67CHL1    C6 7373   0.317   1.057  25.868  0.0229 -0.3633 -0.1243
   67CHL1    H6 7374   0.261   0.975  25.821  1.0620 -0.6004 -0.9957
   67CHL1    C7 7375   0.266   1.195  25.850  0.1504  0.0178 -0.3354
   67CHL1   H7A 7376   0.237   1.228  25.748 -0.4181 -0.2395 -0.2624
   67CHL1   H7B 7377   0.176   1.196  25.914 -1.1866  1.5761 -2.1106
   67CHL1    C8 7378   0.366   1.310  25.895 -0.0341  0.0120 -0.2661
   67CHL1    H8 7379   0.441   1.326  25.815 -0.7850 -0.7561 -1.1562
   67CHL1   C14 7380   0.285   1.433  25.903 -0.2574 -0.5198 -0.4021
   67CHL1   H14 7381   0.206   1.415  25.979  0.4479  1.8747  1.0090
   67CHL1   C15 7382   0.198   1.474  25.784 -0.1049  1.6434 -0.4983
   67CHL1  H15A 7383   0.255   1.469  25.689  2.4446  0.6726  0.9896
   67CHL1  H15B 7384   0.101   1.422  25.769 -0.0375  1.1156  0.7991
   67CHL1   C16 7385   0.159   1.615  25.815  0.5675  0.7653 -0.0445
   67CHL1  H16A 7386   0.173   1.669  25.719  0.7109  0.6188 -0.1062
   67CHL1  H16B 7387   0.050   1.623  25.834  0.8207  4.3590  0.6375
   67CHL1   C17 7388   0.244   1.671  25.937 -0.3435  0.0131 -0.4600
   67CHL1   H17 7389   0.180   1.655  26.026 -0.7047  1.8153 -0.3707
   67CHL1   C13 7390   0.354   1.563  25.941 -0.0324 -0.1208  0.5465
   67CHL1   C18 7391   0.462   1.599  25.836  0.6525 -0.2497  0.2117
   67CHL1  H18A 7392   0.419   1.626  25.737  0.5727  3.9279  1.1831
   67CHL1  H18B 7393   0.502   1.699  25.864 -0.9773  0.5284 -0.1610
   67CHL1  H18C 7394   0.542   1.522  25.832 -1.7666 -2.9801  1.1595
   67CHL1   C12 7395   0.417   1.540  26.075  0.5711 -0.2750  0.0983
   67CHL1  H12A 7396   0.483   1.627  26.093  0.4475  0.5898 -3.1527
   67CHL1  H12B 7397   0.341   1.537  26.157  3.9099  0.9283  3.5367
   67CHL1   C11 7398   0.501   1.404  26.084  0.6195 -0.0053  0.6933
   67CHL1  H11A 7399   0.592   1.424  26.024  1.2186 -3.0956  0.3775
   67CHL1  H11B 7400   0.530   1.368  26.185 -2.1100 -3.0282  0.5659
   67CHL1    C9 7401   0.426   1.284  26.025 -0.2016  0.2158 -0.0049
   67CHL1    H9 7402   0.339   1.270  26.093 -0.2446  0.4259 -0.0159
   67CHL1   C10 7403   0.504   1.152  26.022 -0.4085 -0.6508 -1.2016
   67CHL1   C19 7404   0.637   1.164  25.939  0.0424  0.6116  0.2648
   67CHL1  H19A 7405   0.717   1.227  25.983  2.1918  0.7380 -3.4407
   67CHL1  H19B 7406   0.688   1.066  25.926  0.3764  0.8934 -0.6507
   67CHL1  H19C 7407   0.610   1.204  25.839  0.2799 -0.1306 -0.1015
   67CHL1    C1 7408   0.547   1.099  26.165  1.3712  0.2692 -0.0939
   67CHL1   H1A 7409   0.626   1.169  26.199  2.0780  0.1000 -1.3170
   67CHL1   H1B 7410   0.462   1.119  26.234  0.4976  2.1063 -1.5720
   67CHL1    C2 7411   0.603   0.960  26.174  0.3765 -0.6466  0.1415
   67CHL1   H2A 7412   0.608   0.945  26.284 -0.1081  0.2039  0.2840
   67CHL1   H2B 7413   0.707   0.947  26.138  0.1137 -3.5018  0.1284
   67CHL1   C20 7414   0.283   1.822  25.922  0.6390 -0.0341 -1.0552
   67CHL1   H20 7415   0.335   1.838  25.826 -0.6747  2.5571 -1.4107
   67CHL1   C21 7416   0.365   1.863  26.042  0.3410  0.1700 -0.2669
   67CHL1  H21A 7417   0.355   1.973  26.052  2.4099  0.2143  2.5852
   67CHL1  H21B 7418   0.473   1.839  26.033  0.4172  0.7081 -0.8512
   67CHL1  H21C 7419   0.326   1.819  26.137  0.8826  0.8633  0.2890
   67CHL1   C22 7420   0.165   1.923  25.911 -0.4779  0.3527 -0.1954
   67CHL1  H22A 7421   0.204   2.024  25.886 -1.3369  0.3451 -1.7270
   67CHL1  H22B 7422   0.108   1.891  25.821 -0.6911 -0.5840  0.2514
   67CHL1   C23 7423   0.060   1.927  26.027 -0.4453  0.3611 -0.7005
   67CHL1  H23A 7424   0.037   1.820  26.045  0.1421  0.6506  2.1198
   67CHL1  H23B 7425   0.118   1.979  26.105  0.0750 -1.1301 -0.0429
   67CHL1   C24 7426  -0.076   1.991  25.982  0.3094 -0.0135 -0.1431
   67CHL1  H24A 7427  -0.046   2.083  25.926  3.1059 -0.2258  0.8190
   67CHL1  H24B 7428  -0.118   1.925  25.904 -0.1115  0.8588 -0.6749
   67CHL1   C25 7429  -0.180   2.022  26.088 -0.0352  0.9444  0.2775
   67CHL1   H25 7430  -0.255   2.089  26.041  2.1936  2.8538 -0.7634
   67CHL1   C26 7431  -0.250   1.893  26.139 -0.2980  0.0767  1.1457
   67CHL1  H26A 7432  -0.323   1.912  26.222 -1.7403 -0.1144 -0.0383
   67CHL1  H26B 7433  -0.305   1.839  26.059  1.5992  0.5200 -0.5355
   67CHL1  H26C 7434  -0.171   1.826  26.179 -0.2991  0.0208  1.0553
   67CHL1   C27 7435  -0.131   2.105  26.205 -0.0485 -0.3278 -0.4488
   67CHL1  H27A 7436  -0.069   2.040  26.271  0.2111  0.5312  0.1752
   67CHL1  H27B 7437  -0.057   2.181  26.172  1.8603 -3.0530 -3.0085
   67CHL1  H27C 7438  -0.213   2.152  26.262  0.3658  0.6456 -0.6405
   68CHL1    C3 7439   3.882   0.672  26.660  0.7916 -0.5598 -0.6515
   68CHL1    H3 7440   3.991   0.653  26.675  0.6102 -1.2226 -0.1161
   68CHL1    O3 7441   3.835   0.553  26.603  0.4954  0.5666  0.4117
   68CHL1   H3' 7442   3.828   0.558  26.508 -2.5920 -2.2525  0.2809
   68CHL1    C4 7443   3.814   0.688  26.795 -0.1043 -0.4681 -0.5475
   68CHL1   H4A 7444   3.704   0.684  26.780 -0.4491  0.8916  1.2602
   68CHL1   H4B 7445   3.841   0.607  26.867  0.6121  0.3509  0.1264
   68CHL1    C5 7446   3.854   0.829  26.858 -0.1751  0.1945 -0.2599
   68CHL1    C6 7447   3.908   0.824  26.980  0.1506  0.2312 -0.0864
   68CHL1    H6 7448   3.919   0.735  27.044 -3.8680  0.2527  0.9406
   68CHL1    C7 7449   3.956   0.952  27.044  0.1187 -0.8001  0.2652
   68CHL1   H7A 7450   3.929   0.966  27.151  3.1816  2.2514  0.8003
   68CHL1   H7B 7451   4.067   0.951  27.042  0.1320 -2.2590 -1.6672
   68CHL1    C8 7452   3.912   1.087  26.975 -0.4065 -0.1637 -0.7756
   68CHL1    H8 7453   3.808   1.118  26.999 -0.2105  2.2713 -2.6420
   68CHL1   C14 7454   4.007   1.190  27.016  0.1376 -0.1833 -0.3913
   68CHL1   H14 7455   4.104   1.156  26.974  1.5695  1.0006  1.7192
   68CHL1   C15 7456   4.039   1.207  27.167 -0.0080  0.3115  0.4521
   68CHL1  H15A 7457   3.943   1.207  27.223  0.4325  1.3801  1.2530
   68CHL1  H15B 7458   4.117   1.142  27.213  2.5932  2.7907 -0.1239
   68CHL1   C16 7459   4.112   1.335  27.181 -0.2246 -0.3250 -0.2713
   68CHL1  H16A 7460   4.058   1.407  27.247 -0.8845 -0.6397 -0.4569
   68CHL1  H16B 7461   4.219   1.326  27.208 -0.5941 -0.8556  1.0957
   68CHL1   C17 7462   4.110   1.389  27.032 -0.5354 -0.0542  0.2049
   68CHL1   H17 7463   4.202   1.359  26.977 -0.3290 -0.6458  0.8589
   68CHL1   C13 7464   3.986   1.329  26.957 -0.6704 -0.3067  0.0736
   68CHL1   C18 7465   3.858   1.387  27.013 -0.0199  0.3040 -0.4677
   68CHL1  H18A 7466   3.850   1.381  27.124 -0.3820  1.3739 -0.4269
   68CHL1  H18B 7467   3.845   1.491  26.977  0.8070  1.0031  1.1270
   68CHL1  H18C 7468   3.767   1.337  26.974 -0.6432  1.7715 -0.9465
   68CHL1   C12 7469   3.986   1.311  26.801 -0.3893 -0.4993 -0.4382
   68CHL1  H12A 7470   3.958   1.410  26.760  1.8951  0.1844 -0.5068
   68CHL1  H12B 7471   4.083   1.272  26.763  1.3856  1.0619  2.2177
   68CHL1   C11 7472   3.880   1.203  26.757 -0.3805  0.3015 -0.6381
   68CHL1  H11A 7473   3.777   1.234  26.785  0.4125  2.6280 -0.0618
   68CHL1  H11B 7474   3.887   1.200  26.647  0.8069 -0.6136 -0.5601
   68CHL1    C9 7475   3.914   1.070  26.822 -0.4395  0.5131  0.5246
   68CHL1    H9 7476   4.021   1.045  26.802  0.1424  3.3375 -0.3242
   68CHL1   C10 7477   3.831   0.945  26.769 -0.5233 -0.2235 -0.6651
   68CHL1   C19 7478   3.676   0.976  26.771 -0.4033  0.2659 -0.0792
   68CHL1  H19A 7479   3.620   0.884  26.743  0.8295 -0.3275 -0.6745
   68CHL1  H19B 7480   3.647   1.010  26.872  1.4476 -2.0936  1.3471
   68CHL1  H19C 7481   3.664   1.046  26.685  1.8619  0.2221 -0.4980
   68CHL1    C1 7482   3.885   0.922  26.625  0.2051 -0.1897  0.3470
   68CHL1   H1A 7483   3.837   1.005  26.570 -3.4191 -1.5216  1.2228
   68CHL1   H1B 7484   3.995   0.941  26.621  0.2406 -0.0792  1.5423
   68CHL1    C2 7485   3.857   0.787  26.559  0.2262 -1.0283 -0.8044
   68CHL1   H2A 7486   3.912   0.772  26.464  0.1737 -0.4274 -0.9351
   68CHL1   H2B 7487   3.750   0.796  26.532  0.2109  0.4731 -0.3349
   68CHL1   C20 7488   4.124   1.543  27.035  0.1778  0.4244  0.0067
   68CHL1   H20 7489   4.037   1.587  27.089  1.6848  0.3841  2.6975
   68CHL1   C21 7490   4.107   1.607  26.893  0.3512  0.2556 -0.1813
   68CHL1  H21A 7491   4.163   1.702  26.878 -1.0864  1.2634  0.6020
   68CHL1  H21B 7492   3.999   1.630  26.882  0.3000  0.5352  0.7526
   68CHL1  H21C 7493   4.141   1.540  26.811  2.1788  2.7253 -1.5513
   68CHL1   C22 7494   4.257   1.604  27.099  0.2484  0.0171 -0.2328
   68CHL1  H22A 7495   4.237   1.713  27.099  0.4233  0.0867  1.7415
   68CHL1  H22B 7496   4.254   1.585  27.208  1.1086  2.4604  0.2752
   68CHL1   C23 7497   4.383   1.561  27.029 -0.2690 -0.3282  0.2104
   68CHL1  H23A 7498   4.400   1.453  27.048  0.5515 -0.4904 -1.2437
   68CHL1  H23B 7499   4.377   1.568  26.918 -3.7170 -2.6559  0.1024
   68CHL1   C24 7500   4.515   1.639  27.071  0.0722 -0.2029 -0.5383
   68CHL1  H24A 7501   4.502   1.644  27.182 -0.3710 -0.0986 -0.5914
   68CHL1  H24B 7502   4.596   1.572  27.035 -0.1865 -0.1905 -1.1443
   68CHL1   C25 7503   4.536   1.764  26.987 -0.1750 -0.2263  0.2293
   68CHL1   H25 7504   4.441   1.818  26.974  0.8000  0.8529 -3.7589
   68CHL1   C26 7505   4.636   1.864  27.054  0.6223 -0.0708 -0.5217
   68CHL1  H26A 7506   4.605   1.874  27.160 -2.1148  1.3722 -1.3807
   68CHL1  H26B 7507   4.741   1.829  27.041  0.3094 -0.5513 -1.8776
   68CHL1  H26C 7508   4.629   1.969  27.020 -0.3905  0.0420  0.0128
   68CHL1   C27 7509   4.588   1.742  26.843 -0.7637 -0.3605  0.1771
   68CHL1  H27A 7510   4.509   1.683  26.791 -1.7920  2.5558 -1.8301
   68CHL1  H27B 7511   4.593   1.834  26.781  0.0531  0.3100  1.2205
   68CHL1  H27C 7512   4.691   1.701  26.842 -0.6184  0.0001 -0.8132
   69CHL1    C3 7513   1.351   0.718  21.668 -1.1138  0.9656  0.2763
   69CHL1    H3 7514   1.300   0.633  21.619 -0.4192  0.2360  0.8036
   69CHL1    O3 7515   1.291   0.819  21.597  0.5368 -0.0785 -0.1782
   69CHL1   H3' 7516   1.357   0.884  21.571  1.5969 -0.4912  1.3557
   69CHL1    C4 7517   1.316   0.713  21.823  0.1092  0.0660  0.6499
   69CHL1   H4A 7518   1.333   0.813  21.868  1.6283  0.5986 -0.9920
   69CHL1   H4B 7519   1.208   0.688  21.819  0.5759 -2.0387 -0.0520
   69CHL1    C5 7520   1.399   0.606  21.888 -0.6829  0.2496 -0.4431
   69CHL1    C6 7521   1.341   0.515  21.968 -0.7850 -0.1748 -0.1059
   69CHL1    H6 7522   1.231   0.523  21.974 -0.6585  3.7816 -0.3240
   69CHL1    C7 7523   1.421   0.414  22.047 -0.3302  0.0866  0.6236
   69CHL1   H7A 7524   1.377   0.411  22.149 -2.3758 -0.1738 -0.2163
   69CHL1   H7B 7525   1.415   0.317  21.993  2.2910  1.1477 -1.8795
   69CHL1    C8 7526   1.579   0.432  22.042  0.4216  0.6158  0.2237
   69CHL1    H8 7527   1.581   0.515  22.117 -0.7770  1.4578 -0.6309
   69CHL1   C14 7528   1.649   0.306  22.099 -0.3566  0.3926  0.1580
   69CHL1   H14 7529   1.623   0.225  22.027  0.2271 -2.5505  3.0289
   69CHL1   C15 7530   1.624   0.235  22.241  0.2594 -0.4677 -0.5134
   69CHL1  H15A 7531   1.619   0.313  22.319 -0.2015 -1.7216  0.7472
   69CHL1  H15B 7532   1.529   0.178  22.236 -2.3177  3.3629  0.7476
   69CHL1   C16 7533   1.750   0.144  22.257 -0.9109 -0.8386  0.2776
   69CHL1  H16A 7534   1.804   0.170  22.350 -1.4825  0.9318  0.1432
   69CHL1  H16B 7535   1.736   0.034  22.263 -1.3877 -0.7660  0.5024
   69CHL1   C17 7536   1.848   0.178  22.138  0.6145  0.4558  0.2678
   69CHL1   H17 7537   1.809   0.106  22.063 -1.1813  2.1929 -0.5597
   69CHL1   C13 7538   1.802   0.321  22.089  0.0162  0.0146 -0.4784
   69CHL1   C18 7539   1.852   0.424  22.189  0.0681 -0.9133 -0.3806
   69CHL1  H18A 7540   1.959   0.445  22.166 -0.3979 -0.6769 -2.5465
   69CHL1  H18B 7541   1.797   0.520  22.192  0.1916 -0.8012 -1.2648
   69CHL1  H18C 7542   1.854   0.393  22.295 -0.0121 -3.2730 -1.0153
   69CHL1   C12 7543   1.850   0.365  21.951 -0.0291  0.0200  0.2728
   69CHL1  H12A 7544   1.961   0.370  21.941 -0.2127  1.9581 -1.4968
   69CHL1  H12B 7545   1.807   0.288  21.883 -0.1944 -0.1935  0.6223
   69CHL1   C11 7546   1.786   0.493  21.909  0.2229  0.5388  0.1481
   69CHL1  H11A 7547   1.823   0.574  21.974  2.1364 -2.1168  2.6466
   69CHL1  H11B 7548   1.817   0.517  21.805  0.7711 -0.4395  0.0731
   69CHL1    C9 7549   1.626   0.487  21.910 -0.9236  0.5474  0.2351
   69CHL1    H9 7550   1.607   0.411  21.831  4.2579 -0.5783 -0.3208
   69CHL1   C10 7551   1.546   0.613  21.861 -0.7456  0.6939 -0.2498
   69CHL1   C19 7552   1.604   0.729  21.928  0.1500 -0.6681  0.3773
   69CHL1  H19A 7553   1.714   0.744  21.915  0.1440 -2.5653 -2.9819
   69CHL1  H19B 7554   1.553   0.825  21.903 -0.2546 -0.7485  0.8858
   69CHL1  H19C 7555   1.602   0.726  22.039  0.6482 -0.6111  0.3938
   69CHL1    C1 7556   1.569   0.607  21.709  0.8533 -0.4344 -0.1136
   69CHL1   H1A 7557   1.677   0.611  21.686  0.6239 -0.4780 -1.2586
   69CHL1   H1B 7558   1.522   0.522  21.655 -0.8577  1.6310 -2.0965
   69CHL1    C2 7559   1.503   0.727  21.647 -0.7008  1.0239  0.4485
   69CHL1   H2A 7560   1.541   0.723  21.542  0.9317 -0.9648  1.0557
   69CHL1   H2B 7561   1.543   0.825  21.681 -0.7913  1.0818  0.3902
   69CHL1   C20 7562   2.000   0.149  22.140 -0.5471 -0.2340 -0.1925
   69CHL1   H20 7563   2.058   0.243  22.155 -3.4940  2.0602 -2.0513
   69CHL1   C21 7564   2.052   0.102  22.003 -0.1534  0.2733  0.8089
   69CHL1  H21A 7565   2.009   0.170  21.927  0.6849 -1.0470 -0.8985
   69CHL1  H21B 7566   2.020  -0.002  21.980 -0.6352 -0.0188  2.6285
   69CHL1  H21C 7567   2.162   0.113  21.993 -0.4800  2.2532 -1.3808
   69CHL1   C22 7568   2.047   0.056  22.262  0.1473  0.0802  0.7404
   69CHL1  H22A 7569   2.050   0.117  22.354  0.8391 -0.3264  1.0010
   69CHL1  H22B 7570   1.964  -0.018  22.272 -0.3601  0.6908  1.0993
   69CHL1   C23 7571   2.182  -0.012  22.234  0.3312  0.4247  0.2930
   69CHL1  H23A 7572   2.174  -0.093  22.159  1.2510  2.0019 -1.6085
   69CHL1  H23B 7573   2.251   0.071  22.207 -0.3746  0.5956 -1.0665
   69CHL1   C24 7574   2.258  -0.069  22.362  1.6530  0.1892 -0.1839
   69CHL1  H24A 7575   2.366  -0.084  22.342  1.8905  2.3007 -0.8061
   69CHL1  H24B 7576   2.262   0.018  22.432  2.0405 -0.8701  1.1546
   69CHL1   C25 7577   2.191  -0.180  22.443  0.0697 -0.9566 -0.3440
   69CHL1   H25 7578   2.099  -0.136  22.487  0.3389 -0.3250 -0.4093
   69CHL1   C26 7579   2.148  -0.291  22.348  0.1435  0.4933  0.5253
   69CHL1  H26A 7580   2.236  -0.320  22.286 -1.4144 -0.5227 -1.3239
   69CHL1  H26B 7581   2.108  -0.386  22.390  0.1935  0.4891  0.5629
   69CHL1  H26C 7582   2.083  -0.253  22.266  1.2564 -1.6985 -1.5109
   69CHL1   C27 7583   2.288  -0.230  22.562  0.5747  0.6472  0.4092
   69CHL1  H27A 7584   2.376  -0.276  22.512  0.1992 -0.2446  0.5527
   69CHL1  H27B 7585   2.335  -0.139  22.604 -0.0726  1.4646 -0.6062
   69CHL1  H27C 7586   2.244  -0.299  22.637 -0.0115  0.4669 -0.0948
   70CHL1    C3 7587   2.057   2.609  17.899  0.0713 -0.1086 -0.3628
   70CHL1    H3 7588   2.094   2.580  18.000 -0.8736 -1.7958 -0.4705
   70CHL1    O3 7589   2.007   2.496  17.834 -0.3893 -0.3909 -0.0419
   70CHL1   H3' 7590   1.974   2.440  17.905  1.3095 -0.8391  0.4278
   70CHL1    C4 7591   1.947   2.721  17.919 -0.2940  0.0462  0.3098
   70CHL1   H4A 7592   1.892   2.757  17.829  2.2993  2.5141 -0.4376
   70CHL1   H4B 7593   1.873   2.671  17.986 -1.1497  0.1246 -0.5485
   70CHL1    C5 7594   1.993   2.844  17.986  0.1506  0.1541 -0.5772
   70CHL1    C6 7595   1.944   2.897  18.099 -0.0337  0.0334  0.8701
   70CHL1    H6 7596   1.858   2.844  18.143  0.1319 -2.3031 -1.3387
   70CHL1    C7 7597   1.990   3.018  18.159 -0.1458 -0.6056 -0.7735
   70CHL1   H7A 7598   1.907   3.082  18.196  0.4093 -0.0840 -0.4352
   70CHL1   H7B 7599   2.056   3.005  18.247 -1.5466 -1.4613  0.2088
   70CHL1    C8 7600   2.074   3.111  18.056  0.0521  1.0563 -0.2707
   70CHL1    H8 7601   2.013   3.158  17.976 -0.9888  0.0297 -0.1077
   70CHL1   C14 7602   2.140   3.217  18.133  0.3230  0.1246 -0.4890
   70CHL1   H14 7603   2.205   3.160  18.204  0.0956 -1.1519 -1.2658
   70CHL1   C15 7604   2.053   3.305  18.217 -0.0321  0.0604 -0.3537
   70CHL1  H15A 7605   1.966   3.343  18.159  0.5446  1.5602 -0.2767
   70CHL1  H15B 7606   2.022   3.251  18.310  2.3826  2.6480  2.1656
   70CHL1   C16 7607   2.144   3.427  18.248 -0.0610  0.5019 -0.5153
   70CHL1  H16A 7608   2.102   3.519  18.204  0.8181  1.2765  0.2189
   70CHL1  H16B 7609   2.158   3.435  18.358 -1.6426 -1.4605 -0.1076
   70CHL1   C17 7610   2.282   3.400  18.170  0.0929 -0.4904  0.5653
   70CHL1   H17 7611   2.346   3.344  18.241 -0.4757 -2.0358 -0.0871
   70CHL1   C13 7612   2.246   3.305  18.055  0.0565 -0.5982 -0.4745
   70CHL1   C18 7613   2.184   3.386  17.939  0.0619 -0.3317  0.1395
   70CHL1  H18A 7614   2.258   3.424  17.865  0.7113  0.8879  1.3726
   70CHL1  H18B 7615   2.101   3.328  17.894  0.4444 -0.8872  0.1394
   70CHL1  H18C 7616   2.133   3.481  17.965  2.3614  0.7774  0.9044
   70CHL1   C12 7617   2.348   3.209  18.004 -0.3207 -0.8812 -0.1894
   70CHL1  H12A 7618   2.426   3.263  17.947  1.2412 -1.6979  1.0838
   70CHL1  H12B 7619   2.404   3.168  18.090 -1.3859 -1.2371  0.3580
   70CHL1   C11 7620   2.285   3.101  17.918  0.0892 -0.1098 -0.0164
   70CHL1  H11A 7621   2.229   3.148  17.835 -0.6932 -0.7163  0.1489
   70CHL1  H11B 7622   2.361   3.030  17.880  0.4193  0.5499 -0.6063
   70CHL1    C9 7623   2.177   3.020  17.988  0.1923  0.1542 -0.3171
   70CHL1    H9 7624   2.238   2.982  18.073 -0.3615 -1.1688 -0.4850
   70CHL1   C10 7625   2.110   2.903  17.908 -0.2109 -0.0029 -0.0166
   70CHL1   C19 7626   2.063   2.960  17.776  0.1656 -0.1534  0.2833
   70CHL1  H19A 7627   2.004   2.892  17.711  0.1407 -0.5624  0.7238
   70CHL1  H19B 7628   1.997   3.049  17.788 -1.7116 -0.9536 -2.9546
   70CHL1  H19C 7629   2.152   2.978  17.712  0.1580  0.0706  0.3342
   70CHL1    C1 7630   2.225   2.797  17.879  0.2857  0.4789 -0.2979
   70CHL1   H1A 7631   2.293   2.843  17.805  1.6355  3.8231  2.7208
   70CHL1   H1B 7632   2.279   2.771  17.972 -1.1688  0.3038  0.5326
   70CHL1    C2 7633   2.172   2.665  17.815 -0.4116 -0.0857 -0.2340
   70CHL1   H2A 7634   2.259   2.596  17.812 -1.4270 -1.6257  2.4643
   70CHL1   H2B 7635   2.151   2.675  17.706  0.4566 -5.1652 -1.1113
   70CHL1   C20 7636   2.364   3.525  18.144  0.1644 -0.0189  0.2190
   70CHL1   H20 7637   2.301   3.592  18.082  2.0493  1.3327 -0.3359
   70CHL1   C21 7638   2.486   3.491  18.053 -0.6262  0.0591 -0.6195
   70CHL1  H21A 7639   2.562   3.572  18.066 -1.8093  1.1406 -0.2543
   70CHL1  H21B 7640   2.452   3.486  17.947 -0.0866 -2.6905 -0.7385
   70CHL1  H21C 7641   2.532   3.395  18.084  0.3472  0.2899 -1.2771
   70CHL1   C22 7642   2.393   3.604  18.272  0.4744  0.3490 -1.0196
   70CHL1  H22A 7643   2.309   3.639  18.336  2.6030 -0.3911  2.3947
   70CHL1  H22B 7644   2.443   3.531  18.338 -2.2357 -0.0135  0.7965
   70CHL1   C23 7645   2.481   3.725  18.244 -0.0455  0.2365 -0.2388
   70CHL1  H23A 7646   2.576   3.701  18.193  0.4366 -1.0728  1.2280
   70CHL1  H23B 7647   2.425   3.794  18.177 -1.7023  1.0566  1.8407
   70CHL1   C24 7648   2.510   3.808  18.368  0.5398 -0.2289 -0.6842
   70CHL1  H24A 7649   2.419   3.848  18.417  0.9389  1.2685 -1.1060
   70CHL1  H24B 7650   2.550   3.742  18.448 -1.4515  0.6009  1.1047
   70CHL1   C25 7651   2.602   3.927  18.344  0.5982 -0.0159 -0.1980
   70CHL1   H25 7652   2.700   3.890  18.307  0.6085 -0.3825  0.1850
   70CHL1   C26 7653   2.550   4.024  18.239  0.0718  0.3075 -0.1733
   70CHL1  H26A 7654   2.533   3.973  18.142  2.9337  0.0870 -0.6427
   70CHL1  H26B 7655   2.455   4.065  18.281  0.3436 -1.0255  1.9148
   70CHL1  H26C 7656   2.624   4.104  18.217  0.8162  0.1205  1.4645
   70CHL1   C27 7657   2.628   3.988  18.484  0.0989 -0.0775 -0.1256
   70CHL1  H27A 7658   2.536   4.032  18.529  0.6525 -1.0825  2.1382
   70CHL1  H27B 7659   2.658   3.921  18.567 -1.2991  2.1993  2.3588
   70CHL1  H27C 7660   2.700   4.071  18.469 -0.3850  0.5901  1.1136
   71CHL1    C3 7661   1.243   1.345  22.131 -1.0477  0.4071  0.5619
   71CHL1    H3 7662   1.350   1.351  22.162 -0.1607 -2.3624 -1.6434
   71CHL1    O3 7663   1.223   1.458  22.045 -0.5169  0.2415 -0.9597
   71CHL1   H3' 7664   1.157   1.420  21.987  0.7802 -1.9544 -1.1095
   71CHL1    C4 7665   1.221   1.216  22.045  0.0255  0.7367  0.3820
   71CHL1   H4A 7666   1.117   1.222  22.006  0.4906 -0.6235 -1.1893
   71CHL1   H4B 7667   1.289   1.218  21.957 -0.5005 -0.8851 -0.0945
   71CHL1    C5 7668   1.241   1.099  22.137 -1.2811 -0.0035  0.1022
   71CHL1    C6 7669   1.330   0.998  22.105 -0.1582 -0.3599  0.1342
   71CHL1    H6 7670   1.388   0.998  22.011 -0.5131 -0.7669 -0.0879
   71CHL1    C7 7671   1.348   0.870  22.186  0.8765  0.3223  0.5401
   71CHL1   H7A 7672   1.352   0.778  22.124 -1.9625  0.6984 -0.3659
   71CHL1   H7B 7673   1.440   0.884  22.246  1.0929  1.3983 -0.0096
   71CHL1    C8 7674   1.229   0.854  22.288  0.5438  0.3021 -1.3543
   71CHL1    H8 7675   1.141   0.826  22.227  0.5836 -2.5355 -0.2626
   71CHL1   C14 7676   1.267   0.750  22.386 -0.9668 -0.6544  0.4338
   71CHL1   H14 7677   1.351   0.785  22.449 -0.6858 -1.6172  0.6173
   71CHL1   C15 7678   1.316   0.619  22.340 -0.3206  0.1219  0.5566
   71CHL1  H15A 7679   1.253   0.593  22.253 -1.7410 -0.1752  1.6351
   71CHL1  H15B 7680   1.425   0.634  22.323 -0.4660 -0.2473 -0.8141
   71CHL1   C16 7681   1.286   0.523  22.456 -0.1585  0.6954 -0.9656
   71CHL1  H16A 7682   1.215   0.443  22.423 -0.3852 -0.8946  2.8425
   71CHL1  H16B 7683   1.374   0.472  22.501 -1.2476 -3.0197 -2.5817
   71CHL1   C17 7684   1.226   0.601  22.565  0.2175  0.4326 -0.0441
   71CHL1   H17 7685   1.303   0.652  22.627 -1.9517  0.7035  2.5727
   71CHL1   C13 7686   1.168   0.723  22.495 -0.1581  0.2774 -0.2330
   71CHL1   C18 7687   1.044   0.660  22.429  0.0300 -0.5863 -0.1437
   71CHL1  H18A 7688   0.998   0.734  22.360 -2.6436 -1.2660  0.7973
   71CHL1  H18B 7689   1.061   0.572  22.365  1.7019  0.6282 -1.4651
   71CHL1  H18C 7690   0.964   0.645  22.505  1.0600  0.0721  1.1299
   71CHL1   C12 7691   1.136   0.852  22.573  0.5777 -0.4582  0.7055
   71CHL1  H12A 7692   1.041   0.841  22.630 -0.1980  0.4438 -0.3748
   71CHL1  H12B 7693   1.223   0.891  22.630  2.6699 -0.3779 -2.2995
   71CHL1   C11 7694   1.092   0.965  22.480  0.2699 -0.2476  0.2823
   71CHL1  H11A 7695   0.993   0.934  22.441  0.0210  0.8808 -0.0092
   71CHL1  H11B 7696   1.070   1.053  22.543 -0.6007 -0.2857  0.0444
   71CHL1    C9 7697   1.198   0.985  22.359  0.6522 -0.1015 -0.0665
   71CHL1    H9 7698   1.295   1.017  22.402  1.1424  0.0077 -1.2000
   71CHL1   C10 7699   1.157   1.096  22.264  0.2369 -0.5006  0.1894
   71CHL1   C19 7700   1.008   1.082  22.226  0.2685 -0.5509  0.0387
   71CHL1  H19A 7701   0.972   0.986  22.184 -1.6872  0.7101 -1.3599
   71CHL1  H19B 7702   0.957   1.098  22.324  1.0430 -1.5123  0.6249
   71CHL1  H19C 7703   0.975   1.168  22.164  1.8694 -1.4905 -2.2630
   71CHL1    C1 7704   1.179   1.230  22.339 -0.1917  1.0818  0.1878
   71CHL1   H1A 7705   1.100   1.248  22.414 -1.6398  2.2035 -1.5192
   71CHL1   H1B 7706   1.281   1.237  22.382 -0.4922  0.4991  1.0106
   71CHL1    C2 7707   1.159   1.355  22.254 -0.3263  0.2705  0.1387
   71CHL1   H2A 7708   1.199   1.437  22.318  3.2725 -0.4936 -0.8761
   71CHL1   H2B 7709   1.054   1.366  22.220 -0.6753  0.6316  1.2619
   71CHL1   C20 7710   1.147   0.509  22.663  0.0439  0.4376  0.0936
   71CHL1   H20 7711   1.062   0.466  22.605  0.6862 -0.4369 -0.2246
   71CHL1   C21 7712   1.106   0.601  22.774 -0.0534  1.0658 -0.1937
   71CHL1  H21A 7713   1.052   0.534  22.845 -1.5025  1.8395 -0.5074
   71CHL1  H21B 7714   1.032   0.676  22.738  0.1284  0.8124 -1.1204
   71CHL1  H21C 7715   1.195   0.646  22.823  1.1957 -1.1257 -0.3107
   71CHL1   C22 7716   1.214   0.377  22.710  0.1318  0.0302  0.7548
   71CHL1  H22A 7717   1.263   0.330  22.623 -0.2599  0.3628  0.3460
   71CHL1  H22B 7718   1.290   0.407  22.785 -0.6972 -0.7958  1.9605
   71CHL1   C23 7719   1.127   0.275  22.778  0.0867 -0.6007  0.1161
   71CHL1  H23A 7720   1.092   0.310  22.878 -2.8762 -0.5987 -0.8378
   71CHL1  H23B 7721   1.034   0.261  22.718  1.2928 -0.2234 -1.9397
   71CHL1   C24 7722   1.201   0.141  22.801 -0.1072 -0.1729 -0.1034
   71CHL1  H24A 7723   1.228   0.087  22.708  3.4021 -0.8161  1.1165
   71CHL1  H24B 7724   1.301   0.165  22.845  0.6723 -0.9836 -1.3617
   71CHL1   C25 7725   1.134   0.038  22.896  0.3690 -0.4496  0.2009
   71CHL1   H25 7726   1.035   0.026  22.848  0.9448 -1.7581 -0.7295
   71CHL1   C26 7727   1.200  -0.101  22.891  0.1758 -0.0857 -0.8353
   71CHL1  H26A 7728   1.187  -0.141  22.788 -0.7637  0.1804 -0.8363
   71CHL1  H26B 7729   1.307  -0.087  22.914  0.4741  0.6575 -2.5322
   71CHL1  H26C 7730   1.157  -0.171  22.966  2.3650 -0.0022  0.5582
   71CHL1   C27 7731   1.118   0.095  23.040 -0.4092 -0.5498 -0.0296
   71CHL1  H27A 7732   1.209   0.142  23.083 -0.1629 -1.7420  0.7835
   71CHL1  H27B 7733   1.046   0.179  23.041 -1.4464 -1.3970 -0.8404
   71CHL1  H27C 7734   1.082   0.013  23.105 -0.1191 -2.2030 -1.8802
   72CHL1    C3 7735   2.075   0.612  16.701  0.4565  0.1738  0.4706
   72CHL1    H3 7736   1.991   0.540  16.701  0.7685 -0.3274  3.1988
   72CHL1    O3 7737   2.056   0.720  16.604  0.0651 -0.1865  0.2674
   72CHL1   H3' 7738   2.139   0.768  16.597 -0.8115  1.4851  0.9051
   72CHL1    C4 7739   2.086   0.674  16.840 -0.3824 -0.1170  0.1022
   72CHL1   H4A 7740   2.152   0.763  16.830 -0.1696 -0.2777  0.0615
   72CHL1   H4B 7741   1.988   0.720  16.864 -0.4311  0.7014 -1.5312
   72CHL1    C5 7742   2.130   0.571  16.939 -0.5333  0.2876 -0.0036
   72CHL1    C6 7743   2.058   0.552  17.050 -0.1720  0.1117  0.1465
   72CHL1    H6 7744   1.975   0.621  17.072 -0.8320 -0.9111  0.9935
   72CHL1    C7 7745   2.097   0.457  17.164 -0.0925  0.0781  0.5508
   72CHL1   H7A 7746   2.096   0.506  17.264  1.4876 -2.5042  1.9407
   72CHL1   H7B 7747   2.034   0.365  17.156  0.1881 -0.1083  0.4900
   72CHL1    C8 7748   2.240   0.405  17.160 -0.8627 -0.3052  0.7616
   72CHL1    H8 7749   2.314   0.481  17.193 -1.0275 -0.4514  1.4856
   72CHL1   C14 7750   2.269   0.279  17.239 -0.1940 -0.3012 -0.0932
   72CHL1   H14 7751   2.208   0.199  17.192 -0.6855 -0.2480  0.4328
   72CHL1   C15 7752   2.204   0.264  17.378  0.4349 -0.5141 -0.6855
   72CHL1  H15A 7753   2.222   0.363  17.425 -1.0343 -0.2374 -0.6593
   72CHL1  H15B 7754   2.093   0.257  17.375  0.3004  0.8861  0.2501
   72CHL1   C16 7755   2.281   0.148  17.438  0.7713  0.0860 -0.4223
   72CHL1  H16A 7756   2.337   0.179  17.529  2.7486 -0.7557 -1.2799
   72CHL1  H16B 7757   2.229   0.055  17.466  2.1962  0.4928  4.5098
   72CHL1   C17 7758   2.392   0.107  17.333 -0.8240  0.6978 -0.2128
   72CHL1   H17 7759   2.349   0.021  17.278 -1.0498 -0.2428  1.3859
   72CHL1   C13 7760   2.410   0.228  17.236 -0.8375 -0.1212  0.0582
   72CHL1   C18 7761   2.507   0.330  17.302 -0.7750  0.6800  0.3111
   72CHL1  H18A 7762   2.606   0.280  17.310 -0.7339  0.5365 -0.8848
   72CHL1  H18B 7763   2.540   0.409  17.231 -1.8913  1.7857  0.9786
   72CHL1  H18C 7764   2.474   0.381  17.395  1.2330  1.1466  0.8213
   72CHL1   C12 7765   2.445   0.185  17.096 -0.1817 -0.2500 -0.1428
   72CHL1  H12A 7766   2.553   0.157  17.098  0.0449  0.2605 -2.3784
   72CHL1  H12B 7767   2.389   0.093  17.067 -0.2931 -0.1840 -0.1366
   72CHL1   C11 7768   2.424   0.304  17.004 -0.2411 -0.5820  0.1870
   72CHL1  H11A 7769   2.514   0.368  17.019 -0.1228 -0.5927 -0.4415
   72CHL1  H11B 7770   2.438   0.267  16.900  3.7318  1.8733 -0.3800
   72CHL1    C9 7771   2.285   0.376  17.011  0.0672 -0.8673  0.1561
   72CHL1    H9 7772   2.221   0.290  16.981 -1.1563 -0.2675  0.9907
   72CHL1   C10 7773   2.261   0.494  16.909  1.5208 -0.2234  0.3775
   72CHL1   C19 7774   2.377   0.595  16.924 -0.0312 -0.5132  0.1501
   72CHL1  H19A 7775   2.367   0.691  16.869 -1.0064 -0.7277 -0.0604
   72CHL1  H19B 7776   2.381   0.631  17.029  0.1054 -1.8070  0.6070
   72CHL1  H19C 7777   2.472   0.552  16.885  1.0249  1.5538  0.2839
   72CHL1    C1 7778   2.242   0.438  16.766  0.0514  0.4720 -0.3869
   72CHL1   H1A 7779   2.337   0.388  16.738 -0.5025 -1.5235  1.0632
   72CHL1   H1B 7780   2.165   0.360  16.782 -1.2548  1.1957 -2.6700
   72CHL1    C2 7781   2.202   0.541  16.666 -0.9540  0.2055  0.2323
   72CHL1   H2A 7782   2.185   0.486  16.571 -2.4523  0.9068  0.0532
   72CHL1   H2B 7783   2.289   0.608  16.653  0.8039 -2.0716 -0.2376
   72CHL1   C20 7784   2.525   0.048  17.395 -0.0547 -0.1742 -0.1794
   72CHL1   H20 7785   2.583   0.123  17.452 -0.2822 -0.7434  0.8290
   72CHL1   C21 7786   2.611  -0.016  17.282 -0.0428  0.2010 -0.2019
   72CHL1  H21A 7787   2.551  -0.070  17.205 -1.1907  2.2977 -0.8787
   72CHL1  H21B 7788   2.677  -0.089  17.333 -1.5686  0.2252  1.9349
   72CHL1  H21C 7789   2.683   0.058  17.241  0.7959 -1.4410 -1.8309
   72CHL1   C22 7790   2.502  -0.064  17.506 -0.1648  0.1720 -0.2064
   72CHL1  H22A 7791   2.422  -0.027  17.573  0.2011  1.6151 -0.5229
   72CHL1  H22B 7792   2.464  -0.155  17.456  0.0656  0.5175 -1.0253
   72CHL1   C23 7793   2.624  -0.084  17.605  0.1433  0.0344 -0.2278
   72CHL1  H23A 7794   2.711  -0.128  17.551  1.3940  4.0891 -1.9157
   72CHL1  H23B 7795   2.654   0.014  17.647 -2.1298  0.2793  0.9486
   72CHL1   C24 7796   2.602  -0.183  17.721 -0.6007  0.2884 -0.1170
   72CHL1  H24A 7797   2.523  -0.138  17.784 -0.4522  0.5174 -0.0917
   72CHL1  H24B 7798   2.569  -0.282  17.683  0.2750 -0.1819  0.3079
   72CHL1   C25 7799   2.722  -0.203  17.819  0.3592  0.0845 -0.7087
   72CHL1   H25 7800   2.817  -0.226  17.767  1.4085 -0.1506  1.2329
   72CHL1   C26 7801   2.730  -0.075  17.907 -0.2383  0.1267 -0.4935
   72CHL1  H26A 7802   2.738   0.011  17.837 -0.4371  1.1084  0.6578
   72CHL1  H26B 7803   2.633  -0.058  17.959  0.5017  0.5355  0.7957
   72CHL1  H26C 7804   2.813  -0.070  17.981 -1.6241  0.3709  1.1086
   72CHL1   C27 7805   2.695  -0.324  17.914 -0.3375  0.2217  0.2761
   72CHL1  H27A 7806   2.780  -0.334  17.985 -0.3793  0.4863  0.3648
   72CHL1  H27B 7807   2.608  -0.296  17.977  0.2190 -0.1471  1.2374
   72CHL1  H27C 7808   2.671  -0.420  17.864 -0.9057 -0.6406  2.1133
   73CHL1    C3 7809   0.768   0.565  28.569 -0.1120 -1.6659  0.3880
   73CHL1    H3 7810   0.724   0.578  28.468  0.3621 -3.6499 -0.1274
   73CHL1    O3 7811   0.717   0.449  28.624  0.0712  0.5594  0.6131
   73CHL1   H3' 7812   0.743   0.461  28.716  0.7386  0.1112  0.4911
   73CHL1    C4 7813   0.921   0.549  28.543  0.3253  0.5823  0.4098
   73CHL1   H4A 7814   0.952   0.500  28.638  0.8952 -0.4426 -0.2975
   73CHL1   H4B 7815   0.951   0.478  28.463  1.6415 -0.6710  1.9489
   73CHL1    C5 7816   1.003   0.669  28.501 -0.2642  0.6494  0.6049
   73CHL1    C6 7817   1.088   0.681  28.398 -0.2734  0.0643 -0.0153
   73CHL1    H6 7818   1.109   0.591  28.337  0.6114  1.4211 -1.7995
   73CHL1    C7 7819   1.176   0.798  28.379 -0.1256 -0.8774  0.4034
   73CHL1   H7A 7820   1.282   0.767  28.390 -0.5010 -1.4745  3.0449
   73CHL1   H7B 7821   1.157   0.841  28.278  1.5992  1.6304  1.0559
   73CHL1    C8 7822   1.161   0.916  28.484  0.2211 -0.9971  0.7339
   73CHL1    H8 7823   1.224   0.891  28.572 -0.3384  0.6777  1.6637
   73CHL1   C14 7824   1.207   1.051  28.423  0.7930 -0.5506  0.2764
   73CHL1   H14 7825   1.152   1.076  28.330 -1.7508  2.9754  2.4662
   73CHL1   C15 7826   1.359   1.062  28.383  0.1857 -0.1036  0.7224
   73CHL1  H15A 7827   1.425   1.009  28.456  0.8458 -2.6929 -1.5582
   73CHL1  H15B 7828   1.384   1.004  28.291 -1.2852 -1.4129  1.1068
   73CHL1   C16 7829   1.386   1.213  28.383  0.7747 -0.0815  0.4442
   73CHL1  H16A 7830   1.471   1.230  28.452  3.0423 -1.5366 -1.8536
   73CHL1  H16B 7831   1.410   1.233  28.277  1.5838  1.9251  0.9645
   73CHL1   C17 7832   1.254   1.280  28.433  0.0779 -0.4708 -0.0035
   73CHL1   H17 7833   1.197   1.299  28.339  0.9115  1.2946 -0.1794
   73CHL1   C13 7834   1.185   1.167  28.519  0.0727  0.2057  0.5727
   73CHL1   C18 7835   1.264   1.156  28.655 -0.2081  0.5468  0.7621
   73CHL1  H18A 7836   1.261   1.058  28.706  0.9937  0.0388 -0.0858
   73CHL1  H18B 7837   1.372   1.169  28.631 -0.4575 -0.1775 -0.8653
   73CHL1  H18C 7838   1.234   1.239  28.722  0.5541  1.5116 -0.0499
   73CHL1   C12 7839   1.034   1.183  28.547 -0.4096 -0.1795  0.2278
   73CHL1  H12A 7840   1.015   1.270  28.614 -0.1488 -1.3869  1.9252
   73CHL1  H12B 7841   0.982   1.200  28.450 -1.4550  0.5518  0.8946
   73CHL1   C11 7842   0.977   1.055  28.608  0.3227  0.4986 -0.7917
   73CHL1  H11A 7843   1.026   1.039  28.707 -1.1929 -0.6159 -0.1892
   73CHL1  H11B 7844   0.871   1.070  28.636  0.6806  3.6811 -0.8167
   73CHL1    C9 7845   1.012   0.925  28.529 -0.6534  0.1527 -0.5128
   73CHL1    H9 7846   0.941   0.936  28.444 -1.9604  1.5340  0.7017
   73CHL1   C10 7847   0.962   0.794  28.590  0.4616 -0.0468 -0.7773
   73CHL1   C19 7848   1.012   0.777  28.739 -0.4161 -0.1937  0.2093
   73CHL1  H19A 7849   1.008   0.668  28.761  3.3338 -0.8232 -1.5365
   73CHL1  H19B 7850   1.117   0.809  28.757  0.7326 -1.5363 -3.3161
   73CHL1  H19C 7851   0.945   0.843  28.798  0.2320  0.9097 -0.2670
   73CHL1    C1 7852   0.804   0.796  28.595  0.2482  0.7928 -0.3600
   73CHL1   H1A 7853   0.766   0.887  28.647 -0.9461  1.0311 -1.6145
   73CHL1   H1B 7854   0.770   0.795  28.490 -1.8503 -0.3687  0.2731
   73CHL1    C2 7855   0.745   0.683  28.664  0.1707 -0.2599 -0.5495
   73CHL1   H2A 7856   0.636   0.701  28.679 -0.0461 -1.2247 -0.8521
   73CHL1   H2B 7857   0.793   0.651  28.758  0.0005 -0.9624 -0.6958
   73CHL1   C20 7858   1.262   1.425  28.475  0.5665 -0.2675 -0.4273
   73CHL1   H20 7859   1.271   1.431  28.586  2.7009 -0.2372 -0.5608
   73CHL1   C21 7860   1.126   1.495  28.448  0.2135  0.3303 -0.1761
   73CHL1  H21A 7861   1.101   1.481  28.341  1.9555 -0.4296 -0.5061
   73CHL1  H21B 7862   1.116   1.604  28.468 -2.7143  0.4137 -1.5480
   73CHL1  H21C 7863   1.058   1.449  28.523  0.3671  0.8108  0.2625
   73CHL1   C22 7864   1.384   1.497  28.411  0.3003 -0.1552 -0.1755
   73CHL1  H22A 7865   1.477   1.439  28.427 -0.3386 -0.8138  1.3232
   73CHL1  H22B 7866   1.364   1.514  28.303 -1.7809  0.9281  0.3100
   73CHL1   C23 7867   1.427   1.635  28.476  0.4844  0.7156  0.0768
   73CHL1  H23A 7868   1.339   1.701  28.463 -0.3206 -0.4217 -0.4442
   73CHL1  H23B 7869   1.441   1.628  28.585 -1.0800 -0.3700  0.2527
   73CHL1   C24 7870   1.546   1.700  28.407  0.4286 -0.2207 -0.0488
   73CHL1  H24A 7871   1.645   1.659  28.433  1.3377  2.2254  0.6098
   73CHL1  H24B 7872   1.528   1.691  28.297  1.1740  0.2350 -0.2065
   73CHL1   C25 7873   1.566   1.846  28.439 -0.0514 -0.4569 -0.7843
   73CHL1   H25 7874   1.467   1.896  28.439  0.9127  1.6697 -3.1673
   73CHL1   C26 7875   1.621   1.878  28.585 -0.8507  0.4774 -0.1156
   73CHL1  H26A 7876   1.548   1.848  28.663  0.9110 -0.3638  1.2806
   73CHL1  H26B 7877   1.720   1.831  28.603 -1.1113  0.2713  0.8327
   73CHL1  H26C 7878   1.636   1.988  28.592  3.3190  0.0177  1.2507
   73CHL1   C27 7879   1.659   1.908  28.335 -0.2545  0.0936 -0.1174
   73CHL1  H27A 7880   1.748   1.844  28.315  1.0719  1.4378  1.2228
   73CHL1  H27B 7881   1.608   1.916  28.237  0.3985 -3.1393 -0.8353
   73CHL1  H27C 7882   1.690   2.011  28.362 -1.6550  0.9350 -1.5397
   74CHL1    C3 7883   0.019   1.300  22.106  0.4582  0.0777  0.2162
   74CHL1    H3 7884   0.088   1.254  22.032 -1.2013 -0.8998 -0.8064
   74CHL1    O3 7885  -0.026   1.428  22.060  0.3825  0.1980 -0.0114
   74CHL1   H3' 7886  -0.073   1.416  21.978  0.7134 -0.2000 -0.1449
   74CHL1    C4 7887  -0.103   1.212  22.120 -0.4376  0.3656 -0.2953
   74CHL1   H4A 7888  -0.175   1.264  22.187  1.2760  2.5618 -0.0063
   74CHL1   H4B 7889  -0.150   1.213  22.019 -1.9794 -0.6597  0.3833
   74CHL1    C5 7890  -0.056   1.075  22.162  0.1068  0.3977 -0.1613
   74CHL1    C6 7891  -0.086   0.963  22.095 -0.0720 -0.6861 -0.3213
   74CHL1    H6 7892  -0.127   0.976  21.994  4.4690  1.4374 -2.1590
   74CHL1    C7 7893  -0.084   0.822  22.154  0.0310  0.1708  0.6870
   74CHL1   H7A 7894  -0.174   0.762  22.130  0.9711 -0.6487 -1.0298
   74CHL1   H7B 7895   0.004   0.770  22.111 -1.0645 -0.9339 -0.2829
   74CHL1    C8 7896  -0.058   0.824  22.308 -0.5954  0.3458  0.5714
   74CHL1    H8 7897  -0.148   0.855  22.366 -1.0855 -1.6169  0.9318
   74CHL1   C14 7898  -0.010   0.684  22.350  0.3357 -0.8899 -1.0077
   74CHL1   H14 7899   0.081   0.672  22.287  0.5315 -0.1604 -0.8800
   74CHL1   C15 7900  -0.101   0.569  22.322 -0.3307  0.5416 -0.2103
   74CHL1  H15A 7901  -0.204   0.574  22.362 -0.5891 -1.8935 -0.3999
   74CHL1  H15B 7902  -0.122   0.554  22.214  1.1490 -0.1630 -0.4253
   74CHL1   C16 7903  -0.041   0.461  22.411  0.1815  0.4750  0.1385
   74CHL1  H16A 7904  -0.124   0.419  22.471  0.5289 -1.0554 -0.4018
   74CHL1  H16B 7905   0.008   0.382  22.350  0.1963  0.2469  0.4444
   74CHL1   C17 7906   0.065   0.522  22.495  0.1019 -0.5196 -0.4504
   74CHL1   H17 7907   0.154   0.519  22.428 -0.1174  1.5052 -0.8888
   74CHL1   C13 7908   0.032   0.669  22.496 -0.2063  0.6167 -0.2293
   74CHL1   C18 7909  -0.084   0.688  22.601  0.0279 -0.3072 -0.0297
   74CHL1  H18A 7910  -0.130   0.788  22.583 -1.8486 -1.4492 -2.0984
   74CHL1  H18B 7911  -0.171   0.618  22.597 -1.1018  1.0879 -1.3783
   74CHL1  H18C 7912  -0.049   0.688  22.706  1.7277  2.3949 -0.5012
   74CHL1   C12 7913   0.148   0.768  22.518  0.2021  0.3916  0.0344
   74CHL1  H12A 7914   0.181   0.759  22.624 -0.7159  1.1691  0.4030
   74CHL1  H12B 7915   0.238   0.749  22.456  1.1781  1.7421  0.9680
   74CHL1   C11 7916   0.103   0.912  22.493 -0.1982  0.4489  0.7063
   74CHL1  H11A 7917   0.029   0.945  22.569  0.8115  1.3650  1.3160
   74CHL1  H11B 7918   0.193   0.973  22.514 -1.2507  1.7715  1.4873
   74CHL1    C9 7919   0.048   0.929  22.339 -0.4940 -0.3838  0.3940
   74CHL1    H9 7920   0.139   0.905  22.280  0.0461  1.5464  0.3558
   74CHL1   C10 7921   0.002   1.075  22.302  0.1771  0.9038  0.1860
   74CHL1   C19 7922  -0.099   1.115  22.417 -0.0531  0.2925  0.3363
   74CHL1  H19A 7923  -0.188   1.170  22.380  0.8103  0.2943 -1.9325
   74CHL1  H19B 7924  -0.135   1.025  22.471  0.3130  0.3469  0.6752
   74CHL1  H19C 7925  -0.037   1.170  22.491  1.7155  0.4044 -1.1583
   74CHL1    C1 7926   0.119   1.178  22.301 -0.2203 -0.3878 -0.0376
   74CHL1   H1A 7927   0.149   1.200  22.406 -0.1828 -0.5032 -0.0226
   74CHL1   H1B 7928   0.201   1.132  22.243  2.8568  1.3132  2.6330
   74CHL1    C2 7929   0.084   1.320  22.246 -0.7462  1.2516  0.0946
   74CHL1   H2A 7930   0.178   1.372  22.216 -0.1617 -1.5489 -3.8346
   74CHL1   H2B 7931   0.021   1.384  22.311 -0.9124  0.1545  1.0432
   74CHL1   C20 7932   0.097   0.452  22.632 -1.1532  0.4344  0.0069
   74CHL1   H20 7933   0.090   0.538  22.702  3.6273  1.1030 -0.0334
   74CHL1   C21 7934   0.255   0.429  22.638  0.4741 -0.4252  0.1736
   74CHL1  H21A 7935   0.282   0.330  22.597  3.3100  0.2301  0.3012
   74CHL1  H21B 7936   0.289   0.450  22.741 -0.9835  1.4440  0.3446
   74CHL1  H21C 7937   0.302   0.510  22.577 -2.4890  0.7177 -0.8007
   74CHL1   C22 7938   0.014   0.330  22.676  0.0942 -0.4903  0.3000
   74CHL1  H22A 7939  -0.092   0.361  22.660  0.4423  1.0739  0.8559
   74CHL1  H22B 7940   0.032   0.248  22.603 -0.4222 -0.0377 -0.3436
   74CHL1   C23 7941   0.043   0.273  22.814  0.2052  0.7506 -0.4673
   74CHL1  H23A 7942   0.153   0.257  22.812 -0.0282 -1.0176 -1.5869
   74CHL1  H23B 7943   0.025   0.349  22.892 -3.0693 -0.9933  0.6763
   74CHL1   C24 7944  -0.038   0.146  22.843 -0.0199 -0.0629 -0.2722
   74CHL1  H24A 7945  -0.041   0.094  22.744 -0.2981 -1.6904  0.5642
   74CHL1  H24B 7946   0.013   0.084  22.919  1.2204 -0.9602 -1.7622
   74CHL1   C25 7947  -0.182   0.184  22.892  0.0881 -0.2156 -0.3315
   74CHL1   H25 7948  -0.231   0.243  22.811  1.1801 -1.1425 -1.7164
   74CHL1   C26 7949  -0.273   0.059  22.913  0.3054  0.2339  0.4515
   74CHL1  H26A 7950  -0.300   0.018  22.814  1.6090  0.3054  0.0551
   74CHL1  H26B 7951  -0.226  -0.020  22.975 -0.0945 -2.3738 -2.3659
   74CHL1  H26C 7952  -0.363   0.090  22.971  0.9352 -1.0443  2.1998
   74CHL1   C27 7953  -0.189   0.278  23.010  0.0938  0.3325  0.1001
   74CHL1  H27A 7954  -0.132   0.223  23.088 -0.9231 -3.3836 -1.5503
   74CHL1  H27B 7955  -0.142   0.376  22.985 -0.9019  0.7745 -0.0965
   74CHL1  H27C 7956  -0.294   0.293  23.045  0.6215  3.5856  0.6277
   75CHL1    C3 7957   1.763   1.489  22.843  0.5636 -0.3563  0.6428
   75CHL1    H3 7958   1.657   1.490  22.809  0.4921 -0.6043  0.8548
   75CHL1    O3 7959   1.826   1.596  22.777 -0.0609 -0.3700 -0.0235
   75CHL1   H3' 7960   1.917   1.597  22.807 -0.5842  2.8191  1.8878
   75CHL1    C4 7961   1.783   1.504  22.990 -0.1344  0.0043  0.3343
   75CHL1   H4A 7962   1.893   1.505  23.003  0.1705  1.4508 -1.7106
   75CHL1   H4B 7963   1.737   1.602  23.016  0.6055  0.2371  0.7819
   75CHL1    C5 7964   1.724   1.388  23.077  0.4612 -0.5848 -0.3853
   75CHL1    C6 7965   1.631   1.421  23.171 -0.1607 -0.4196  0.4241
   75CHL1    H6 7966   1.601   1.525  23.189 -1.9747 -0.9590  0.7244
   75CHL1    C7 7967   1.556   1.318  23.240  0.4124 -0.6018  0.3242
   75CHL1   H7A 7968   1.548   1.354  23.345  3.7473 -1.3755  0.9694
   75CHL1   H7B 7969   1.461   1.299  23.186  1.4186 -2.7322 -0.8303
   75CHL1    C8 7970   1.636   1.184  23.246  0.4099 -0.1141  0.2121
   75CHL1    H8 7971   1.724   1.204  23.310 -1.8271  0.6633  3.2941
   75CHL1   C14 7972   1.552   1.071  23.298  0.5866  1.1349 -0.9247
   75CHL1   H14 7973   1.467   1.069  23.226 -1.2140  0.3946  1.1178
   75CHL1   C15 7974   1.480   1.088  23.428 -0.1173  0.3357 -0.6016
   75CHL1  H15A 7975   1.537   1.124  23.517 -2.4680  1.8926  0.3873
   75CHL1  H15B 7976   1.405   1.168  23.410 -0.5396 -0.1497 -1.0195
   75CHL1   C16 7977   1.416   0.949  23.449  0.0083  0.5710 -0.2274
   75CHL1  H16A 7978   1.420   0.921  23.556 -1.0620  0.2093 -0.2713
   75CHL1  H16B 7979   1.308   0.957  23.427  0.4519  0.6230 -2.6161
   75CHL1   C17 7980   1.490   0.851  23.350 -0.5522 -0.1741  0.2701
   75CHL1   H17 7981   1.416   0.829  23.269  0.6982 -2.7985 -0.2920
   75CHL1   C13 7982   1.615   0.928  23.302 -0.0733 -0.7621 -0.3368
   75CHL1   C18 7983   1.726   0.924  23.409 -0.4077  0.3414 -0.5559
   75CHL1  H18A 7984   1.781   0.828  23.402  0.2445  0.6404  0.3203
   75CHL1  H18B 7985   1.799   1.006  23.390  0.9575 -0.7494 -0.1096
   75CHL1  H18C 7986   1.682   0.947  23.508 -2.1659  0.1096 -1.2283
   75CHL1   C12 7987   1.665   0.892  23.159 -0.0305  0.2830  0.6665
   75CHL1  H12A 7988   1.715   0.793  23.149  0.9596  0.9662 -1.9370
   75CHL1  H12B 7989   1.573   0.883  23.098  1.6177  0.4400 -1.9787
   75CHL1   C11 7990   1.757   1.000  23.111 -0.2102  0.6224  0.3391
   75CHL1  H11A 7991   1.837   1.013  23.187 -0.7700 -1.0997  1.2769
   75CHL1  H11B 7992   1.792   0.981  23.008 -0.2160 -2.1604  0.7754
   75CHL1    C9 7993   1.683   1.144  23.107  0.0723 -0.7957  0.0423
   75CHL1    H9 7994   1.594   1.139  23.040 -0.5679  1.7442  0.6245
   75CHL1   C10 7995   1.769   1.251  23.029  0.8896  0.2641 -0.3993
   75CHL1   C19 7996   1.915   1.235  23.076  0.3920  0.4211  0.1682
   75CHL1  H19A 7997   1.922   1.222  23.186  1.5283 -0.1668  0.0448
   75CHL1  H19B 7998   1.964   1.145  23.031 -0.8330  0.2659 -0.9371
   75CHL1  H19C 7999   1.976   1.322  23.044  1.6845 -0.4062  0.3088
   75CHL1    C1 8000   1.756   1.245  22.874  0.0964  0.1944 -0.4712
   75CHL1   H1A 8001   1.823   1.160  22.849 -2.4131 -2.2874  0.7710
   75CHL1   H1B 8002   1.652   1.220  22.843 -0.3083 -1.8158  2.1746
   75CHL1    C2 8003   1.824   1.357  22.791  0.8818 -0.7344  0.3049
   75CHL1   H2A 8004   1.793   1.338  22.686  0.7174  2.0448 -0.2143
   75CHL1   H2B 8005   1.935   1.358  22.797  1.2075  0.7888 -3.4730
   75CHL1   C20 8006   1.516   0.718  23.424 -0.5476  0.3610  0.4715
   75CHL1   H20 8007   1.583   0.743  23.509 -1.5899  1.1310  1.0863
   75CHL1   C21 8008   1.585   0.616  23.335 -0.3589 -0.0355  0.0497
   75CHL1  H21A 8009   1.613   0.528  23.397 -0.4447 -1.0312 -1.2883
   75CHL1  H21B 8010   1.684   0.654  23.300  0.2391 -1.3851  0.2091
   75CHL1  H21C 8011   1.526   0.584  23.246 -0.0385  0.5885 -0.3964
   75CHL1   C22 8012   1.390   0.647  23.479  0.0723  0.3181  0.5478
   75CHL1  H22A 8013   1.316   0.725  23.506  0.9275  0.7968  1.5904
   75CHL1  H22B 8014   1.332   0.596  23.398 -0.2748 -0.4136  1.2313
   75CHL1   C23 8015   1.412   0.538  23.586  0.0461 -0.2014 -0.0973
   75CHL1  H23A 8016   1.491   0.465  23.558 -1.0958 -0.8026 -1.8965
   75CHL1  H23B 8017   1.446   0.585  23.681 -2.5597  1.4600  0.1174
   75CHL1   C24 8018   1.277   0.468  23.621  0.5714  0.2311 -0.4221
   75CHL1  H24A 8019   1.224   0.550  23.674  1.6553  0.5578  0.1895
   75CHL1  H24B 8020   1.225   0.441  23.526  0.6984  1.0220 -0.7271
   75CHL1   C25 8021   1.281   0.350  23.719  0.0426  0.0855 -0.2249
   75CHL1   H25 8022   1.178   0.309  23.728 -1.1274  2.1325 -2.9864
   75CHL1   C26 8023   1.356   0.229  23.659 -0.3830  0.1402 -0.1574
   75CHL1  H26A 8024   1.297   0.234  23.565  0.3234 -0.6131 -0.6546
   75CHL1  H26B 8025   1.462   0.254  23.634 -0.5485  0.1872 -0.8371
   75CHL1  H26C 8026   1.328   0.136  23.712 -1.5216  0.6215  0.1230
   75CHL1   C27 8027   1.345   0.375  23.858  0.3407  0.2795  0.7666
   75CHL1  H27A 8028   1.342   0.273  23.903 -1.0690  0.8209  1.9836
   75CHL1  H27B 8029   1.445   0.422  23.858  0.4485  0.0585  1.3923
   75CHL1  H27C 8030   1.272   0.444  23.906 -2.2730 -1.2943 -0.6607
   76CHL1    C3 8031   2.035   2.720  19.102  0.1491  0.5001  0.7076
   76CHL1    H3 8032   1.956   2.761  19.169 -0.9018 -1.1151  0.5189
   76CHL1    O3 8033   1.984   2.598  19.039 -0.1766 -0.0441 -0.0080
   76CHL1   H3' 8034   2.058   2.576  18.982 -1.1611  1.4253 -2.0017
   76CHL1    C4 8035   2.073   2.821  18.993 -0.9286 -0.2031  0.1345
   76CHL1   H4A 8036   2.145   2.784  18.917 -2.4741  0.2632 -1.6468
   76CHL1   H4B 8037   1.976   2.847  18.944 -0.5500 -2.8367 -2.2969
   76CHL1    C5 8038   2.146   2.942  19.057  0.2202  0.4638  0.1162
   76CHL1    C6 8039   2.111   3.065  19.033  0.2280 -0.1105  0.0631
   76CHL1    H6 8040   2.020   3.084  18.974 -1.2283 -4.0279  0.7386
   76CHL1    C7 8041   2.194   3.187  19.068 -0.7923 -0.6578 -0.1979
   76CHL1   H7A 8042   2.222   3.236  18.973  2.9219 -3.3946 -0.7122
   76CHL1   H7B 8043   2.132   3.259  19.126  0.9840  0.6086  0.1792
   76CHL1    C8 8044   2.329   3.156  19.142 -0.6056 -0.1894  0.6521
   76CHL1    H8 8045   2.407   3.134  19.066  2.4932 -0.3348  3.6429
   76CHL1   C14 8046   2.381   3.283  19.220 -0.2765  0.3018 -0.2845
   76CHL1   H14 8047   2.312   3.292  19.307 -0.9388  1.3962 -0.8998
   76CHL1   C15 8048   2.392   3.421  19.147  0.4778 -0.6704  0.2438
   76CHL1  H15A 8049   2.424   3.413  19.041  1.7065 -1.3083  0.6452
   76CHL1  H15B 8050   2.290   3.465  19.146  1.3381  1.6086 -3.3403
   76CHL1   C16 8051   2.495   3.504  19.224 -0.2444 -0.0961  0.9566
   76CHL1  H16A 8052   2.579   3.528  19.156  2.0120 -1.9539  2.8928
   76CHL1  H16B 8053   2.460   3.606  19.249 -0.0637  0.8047 -2.1081
   76CHL1   C17 8054   2.549   3.405  19.331 -0.2992  0.1086 -0.2851
   76CHL1   H17 8055   2.488   3.419  19.423  0.8938  1.1984  0.3641
   76CHL1   C13 8056   2.519   3.259  19.281  0.7000  0.2061  0.3394
   76CHL1   C18 8057   2.621   3.230  19.165 -0.0387  0.4393  0.4362
   76CHL1  H18A 8058   2.721   3.208  19.207  0.5969 -3.5861 -2.5386
   76CHL1  H18B 8059   2.598   3.132  19.119  0.9753 -0.3374  1.5484
   76CHL1  H18C 8060   2.627   3.308  19.085  0.0505 -0.5377 -0.5295
   76CHL1   C12 8061   2.509   3.144  19.373  0.0616  0.4768 -0.5396
   76CHL1  H12A 8062   2.613   3.110  19.388 -1.0543 -2.2629  1.9241
   76CHL1  H12B 8063   2.459   3.157  19.471  2.8357 -1.2337  1.2479
   76CHL1   C11 8064   2.446   3.012  19.313  0.3468  0.4756 -0.1101
   76CHL1  H11A 8065   2.525   2.964  19.251  0.2020  0.8870 -0.6184
   76CHL1  H11B 8066   2.417   2.951  19.401 -1.5288  1.2220 -0.1781
   76CHL1    C9 8067   2.318   3.034  19.231  0.4548  0.9253 -0.2263
   76CHL1    H9 8068   2.243   3.066  19.305 -0.5120 -1.1344 -0.2318
   76CHL1   C10 8069   2.269   2.910  19.150 -0.2794 -1.3292 -0.9125
   76CHL1   C19 8070   2.383   2.848  19.064 -0.1768 -0.8866  0.0624
   76CHL1  H19A 8071   2.344   2.759  19.009 -3.1419  0.2088  0.1940
   76CHL1  H19B 8072   2.441   2.921  19.005  0.2614 -0.0720  1.4430
   76CHL1  H19C 8073   2.451   2.804  19.140 -1.6906 -1.2565  1.2659
   76CHL1    C1 8074   2.219   2.805  19.249 -0.0203  0.4003 -0.3780
   76CHL1   H1A 8075   2.310   2.762  19.296  1.1810  0.4138 -2.5569
   76CHL1   H1B 8076   2.151   2.849  19.325  0.6800 -0.9942  1.1009
   76CHL1    C2 8077   2.152   2.679  19.189 -0.6247 -0.6865  0.5095
   76CHL1   H2A 8078   2.114   2.616  19.273 -1.4599 -1.7192 -0.6180
   76CHL1   H2B 8079   2.230   2.615  19.143 -1.2531 -2.1912  1.4501
   76CHL1   C20 8080   2.699   3.438  19.366  0.0964 -0.7300  0.2604
   76CHL1   H20 8081   2.769   3.425  19.281  0.1727 -1.6433  0.4541
   76CHL1   C21 8082   2.731   3.360  19.491 -0.3705  0.7375  0.0484
   76CHL1  H21A 8083   2.819   3.398  19.547 -0.1183 -1.0712  0.9762
   76CHL1  H21B 8084   2.768   3.260  19.460 -2.7468  0.1523 -1.1508
   76CHL1  H21C 8085   2.649   3.347  19.565 -1.0057 -1.7213 -0.9748
   76CHL1   C22 8086   2.706   3.591  19.399  1.1104 -0.2374  0.3424
   76CHL1  H22A 8087   2.683   3.664  19.319  1.1825  1.1894  1.5921
   76CHL1  H22B 8088   2.620   3.608  19.467  2.5263  1.0043  1.8828
   76CHL1   C23 8089   2.831   3.650  19.469  0.0582  0.2953 -0.0059
   76CHL1  H23A 8090   2.828   3.761  19.464  2.8289  0.3607 -2.2149
   76CHL1  H23B 8091   2.828   3.609  19.572  4.4827 -1.5533 -0.3897
   76CHL1   C24 8092   2.963   3.605  19.406 -0.1632 -0.2253  0.6444
   76CHL1  H24A 8093   2.974   3.495  19.403 -0.1572 -0.2064 -0.0468
   76CHL1  H24B 8094   2.976   3.652  19.306  1.2842  0.9680  1.3515
   76CHL1   C25 8095   3.075   3.645  19.503 -0.0382  0.1832  0.1352
   76CHL1   H25 8096   3.042   3.732  19.563 -0.4102  0.7545 -0.8816
   76CHL1   C26 8097   3.124   3.540  19.604 -0.1739 -0.1894 -0.3685
   76CHL1  H26A 8098   3.149   3.444  19.553 -0.2031  0.3921 -1.4872
   76CHL1  H26B 8099   3.205   3.583  19.666  1.1249 -2.6183 -0.2468
   76CHL1  H26C 8100   3.044   3.512  19.676  1.7675 -0.2918  1.8534
   76CHL1   C27 8101   3.195   3.704  19.421 -0.4617 -0.0238  0.0830
   76CHL1  H27A 8102   3.165   3.792  19.360  2.4280  0.5009 -0.6979
   76CHL1  H27B 8103   3.274   3.723  19.496 -0.3558 -2.0294  0.5383
   76CHL1  H27C 8104   3.220   3.628  19.343  1.8727  0.7280  0.0475
   77CHL1    C3 8105   1.393   1.792  22.370  0.1135  0.0990 -0.3989
   77CHL1    H3 8106   1.383   1.723  22.284 -4.2614 -0.0794  0.0475
   77CHL1    O3 8107   1.430   1.912  22.305  0.1947 -0.1265 -0.2261
   77CHL1   H3' 8108   1.525   1.923  22.298  0.2596 -0.7960 -0.5124
   77CHL1    C4 8109   1.261   1.804  22.447 -0.3387  0.0351 -0.1122
   77CHL1   H4A 8110   1.264   1.889  22.519 -1.4398 -0.3391  0.3926
   77CHL1   H4B 8111   1.171   1.831  22.388 -1.6603 -1.5931  1.0548
   77CHL1    C5 8112   1.228   1.679  22.533 -0.7556 -0.1287  0.5041
   77CHL1    C6 8113   1.098   1.629  22.528  0.6724 -0.1629  0.4458
   77CHL1    H6 8114   1.018   1.672  22.467 -0.6818 -1.6997  1.0616
   77CHL1    C7 8115   1.047   1.513  22.606 -0.3691 -0.6239  0.4629
   77CHL1   H7A 8116   0.953   1.542  22.657 -0.4593  0.1012 -0.1005
   77CHL1   H7B 8117   1.033   1.434  22.529  0.1910  0.2277 -0.5431
   77CHL1    C8 8118   1.152   1.473  22.717  0.2837  0.5249  1.0552
   77CHL1    H8 8119   1.141   1.550  22.797  0.4654  0.7009  0.9118
   77CHL1   C14 8120   1.119   1.333  22.767  0.7052 -0.3338 -0.3626
   77CHL1   H14 8121   1.133   1.270  22.677 -0.0119 -0.7630 -0.1868
   77CHL1   C15 8122   0.975   1.302  22.820  0.1577  0.0280  0.2228
   77CHL1  H15A 8123   0.943   1.378  22.893  0.4686  0.0497  0.3393
   77CHL1  H15B 8124   0.906   1.286  22.734 -0.0034 -2.2137  0.7015
   77CHL1   C16 8125   0.990   1.165  22.877  0.5086  0.1879  0.1753
   77CHL1  H16A 8126   0.950   1.169  22.980  0.4037  2.0854  0.1119
   77CHL1  H16B 8127   0.939   1.087  22.817  0.4057  0.2897  0.1289
   77CHL1   C17 8128   1.145   1.120  22.879  0.1274 -0.4593  0.4773
   77CHL1   H17 8129   1.162   1.052  22.792 -0.2393 -2.3643  1.8447
   77CHL1   C13 8130   1.221   1.260  22.861  1.0720  0.3336  0.1223
   77CHL1   C18 8131   1.231   1.335  22.996 -0.0475  0.2325 -0.4303
   77CHL1  H18A 8132   1.263   1.439  22.972  0.4577  0.1045 -0.3289
   77CHL1  H18B 8133   1.128   1.342  23.038 -0.3977  0.2720 -1.2744
   77CHL1  H18C 8134   1.294   1.296  23.079 -1.6525 -1.1016  0.2326
   77CHL1   C12 8135   1.352   1.251  22.791 -0.0286 -0.3474 -0.5190
   77CHL1  H12A 8136   1.435   1.225  22.861 -1.4448  2.8313  2.6804
   77CHL1  H12B 8137   1.342   1.189  22.700 -1.1804 -0.1843 -0.5160
   77CHL1   C11 8138   1.398   1.388  22.749  0.5419 -0.4439  0.0078
   77CHL1  H11A 8139   1.407   1.451  22.841 -0.3074 -1.0101  0.5021
   77CHL1  H11B 8140   1.494   1.379  22.695  0.3604 -1.7950 -0.1295
   77CHL1    C9 8141   1.297   1.470  22.655  0.5903  0.2051 -0.4622
   77CHL1    H9 8142   1.288   1.410  22.562 -1.4012 -0.3740  0.0410
   77CHL1   C10 8143   1.345   1.616  22.613  0.4630 -0.0489 -0.2191
   77CHL1   C19 8144   1.372   1.700  22.741 -0.5670  0.3393  0.2653
   77CHL1  H19A 8145   1.289   1.701  22.815 -1.0203  0.1151 -0.2356
   77CHL1  H19B 8146   1.471   1.670  22.782  0.3369  1.5997 -0.8677
   77CHL1  H19C 8147   1.390   1.807  22.717  0.3592  0.3838  1.0591
   77CHL1    C1 8148   1.470   1.600  22.515  0.2920 -0.4192  0.4734
   77CHL1   H1A 8149   1.548   1.558  22.582 -0.2841 -3.0766 -0.3734
   77CHL1   H1B 8150   1.468   1.520  22.437 -0.6379 -1.0911  1.1672
   77CHL1    C2 8151   1.510   1.737  22.459  0.2282 -0.8634 -0.8536
   77CHL1   H2A 8152   1.600   1.730  22.395 -1.0687 -1.1335 -2.7463
   77CHL1   H2B 8153   1.522   1.813  22.539  0.1510 -1.7471  0.0227
   77CHL1   C20 8154   1.178   1.036  23.001 -0.0439  0.2601 -0.6488
   77CHL1   H20 8155   1.171   1.100  23.092 -1.1303 -0.6699 -0.0532
   77CHL1   C21 8156   1.318   0.994  22.986  0.0897  1.0759  0.4909
   77CHL1  H21A 8157   1.385   1.079  23.011  1.1273 -0.3545  2.9630
   77CHL1  H21B 8158   1.348   0.964  22.883  2.0533  5.4079 -0.3863
   77CHL1  H21C 8159   1.345   0.909  23.053 -0.7171  1.2830  1.0889
   77CHL1   C22 8160   1.078   0.921  23.019 -0.1335  0.0811 -0.8695
   77CHL1  H22A 8161   0.978   0.951  23.058  0.4217  0.9800 -0.0808
   77CHL1  H22B 8162   1.079   0.867  22.922 -0.3267 -2.2239  0.3310
   77CHL1   C23 8163   1.124   0.802  23.111 -0.1889  0.9136 -0.0593
   77CHL1  H23A 8164   1.214   0.747  23.074  0.3970  3.1757 -2.2516
   77CHL1  H23B 8165   1.157   0.846  23.207  0.0657 -1.5215  1.0411
   77CHL1   C24 8166   1.017   0.693  23.146 -0.3374 -0.3063 -0.0604
   77CHL1  H24A 8167   0.930   0.749  23.187 -0.6133 -1.2219  0.6379
   77CHL1  H24B 8168   0.964   0.657  23.056 -0.4537  0.7524 -0.4253
   77CHL1   C25 8169   1.062   0.596  23.251  0.4324 -0.8424 -0.2506
   77CHL1   H25 8170   1.119   0.639  23.336 -0.3789  0.5529 -0.3688
   77CHL1   C26 8171   0.945   0.532  23.322 -0.1364  0.4513  0.7605
   77CHL1  H26A 8172   0.863   0.602  23.352  0.3151  0.8191  1.1382
   77CHL1  H26B 8173   0.910   0.453  23.252  3.4082  1.4409 -2.4483
   77CHL1  H26C 8174   0.979   0.488  23.418  1.3888 -4.0937 -1.5716
   77CHL1   C27 8175   1.148   0.484  23.191 -0.2052 -0.2685  0.3225
   77CHL1  H27A 8176   1.101   0.436  23.103  1.6997 -0.5881 -0.5880
   77CHL1  H27B 8177   1.247   0.528  23.166 -0.2699 -0.2132  0.1645
   77CHL1  H27C 8178   1.175   0.407  23.267  2.3961 -0.3618 -0.6012
   78CHL1    C3 8179   2.868   2.098  23.173 -0.4644  0.5619 -0.1301
   78CHL1    H3 8180   2.850   2.207  23.173  0.8596  0.8111  1.4543
   78CHL1    O3 8181   2.751   2.023  23.148 -0.1938  0.1149 -0.1044
   78CHL1   H3' 8182   2.745   2.035  23.053  2.7016  0.1792 -0.3826
   78CHL1    C4 8183   2.961   2.070  23.055  0.2654  0.4222  1.0619
   78CHL1   H4A 8184   2.953   1.965  23.020  1.0780  0.9123 -0.7491
   78CHL1   H4B 8185   2.923   2.131  22.970  0.3715 -0.3248  0.4650
   78CHL1    C5 8186   3.107   2.102  23.075  0.6699  0.3963  0.2363
   78CHL1    C6 8187   3.176   2.180  22.989  0.0654  0.3207 -1.0141
   78CHL1    H6 8188   3.125   2.205  22.894 -0.0718 -1.6136 -1.5092
   78CHL1    C7 8189   3.322   2.205  23.001  0.3645 -0.4360  0.5792
   78CHL1   H7A 8190   3.374   2.203  22.903 -0.0097 -1.7376  0.3810
   78CHL1   H7B 8191   3.331   2.311  23.033 -2.0118  0.7836 -2.3143
   78CHL1    C8 8192   3.392   2.113  23.103 -0.0917 -0.0806  0.3043
   78CHL1    H8 8193   3.405   2.016  23.050 -1.5933  0.3997 -1.0188
   78CHL1   C14 8194   3.523   2.175  23.145 -0.2928 -0.2169  0.1568
   78CHL1   H14 8195   3.501   2.274  23.188  0.6812 -0.2390  0.7362
   78CHL1   C15 8196   3.627   2.200  23.035  0.0366  0.1044  0.3589
   78CHL1  H15A 8197   3.636   2.118  22.960  0.2337 -0.8175  1.3611
   78CHL1  H15B 8198   3.603   2.291  22.975  0.2391 -0.4704 -0.6302
   78CHL1   C16 8199   3.763   2.215  23.111 -0.6738  0.0025  0.4884
   78CHL1  H16A 8200   3.839   2.157  23.054  1.2745  2.2268  0.6916
   78CHL1  H16B 8201   3.801   2.319  23.103  0.1138 -0.3156 -0.1154
   78CHL1   C17 8202   3.731   2.173  23.257 -0.4295 -0.4236 -0.6094
   78CHL1   H17 8203   3.698   2.268  23.305 -0.6622  0.7759 -2.9920
   78CHL1   C13 8204   3.601   2.097  23.256 -0.0950 -0.2759 -0.4033
   78CHL1   C18 8205   3.648   1.956  23.206  0.1909 -0.1483  1.0143
   78CHL1  H18A 8206   3.716   1.973  23.119 -2.1512  0.9779 -0.6968
   78CHL1  H18B 8207   3.700   1.899  23.286  1.6508  2.6121  2.2129
   78CHL1  H18C 8208   3.564   1.893  23.171  0.8517  0.7828 -2.6473
   78CHL1   C12 8209   3.520   2.097  23.383  0.1894  0.1429 -0.4792
   78CHL1  H12A 8210   3.571   2.036  23.460  0.3895  0.4315 -0.3831
   78CHL1  H12B 8211   3.501   2.199  23.424 -1.3849  0.2419 -1.3588
   78CHL1   C11 8212   3.384   2.040  23.346 -0.0343  0.2492 -0.3500
   78CHL1  H11A 8213   3.408   1.932  23.334 -1.4583 -0.1714  0.2987
   78CHL1  H11B 8214   3.323   2.050  23.438  2.2376 -2.9510  1.6962
   78CHL1    C9 8215   3.309   2.102  23.227  0.0227  0.1599  0.6056
   78CHL1    H9 8216   3.292   2.207  23.258 -1.5378 -0.0641  0.5800
   78CHL1   C10 8217   3.162   2.047  23.207  0.0270 -0.0645  0.0555
   78CHL1   C19 8218   3.175   1.890  23.202 -0.6063 -0.7944  0.5066
   78CHL1  H19A 8219   3.203   1.856  23.304  2.7009 -0.6909 -0.2547
   78CHL1  H19B 8220   3.084   1.838  23.163  0.6827 -3.3095  0.6803
   78CHL1  H19C 8221   3.264   1.853  23.149 -2.3169 -2.2240 -1.5253
   78CHL1    C1 8222   3.069   2.083  23.327 -0.3506 -0.2750  0.1699
   78CHL1   H1A 8223   3.106   2.030  23.418  0.2523 -1.3773 -0.7020
   78CHL1   H1B 8224   3.082   2.193  23.339 -0.4038 -0.2349 -0.1428
   78CHL1    C2 8225   2.922   2.053  23.306  0.1047 -0.0170 -0.7123
   78CHL1   H2A 8226   2.862   2.111  23.381 -0.2638  0.2452 -1.2027
   78CHL1   H2B 8227   2.889   1.949  23.330  1.3826 -0.2269  0.2530
   78CHL1   C20 8228   3.848   2.132  23.348  1.0310 -0.1148 -0.6089
   78CHL1   H20 8229   3.799   2.046  23.399 -0.1332  1.1589  0.4950
   78CHL1   C21 8230   3.881   2.245  23.450 -0.0761  0.6442  0.1072
   78CHL1  H21A 8231   3.949   2.200  23.526  0.2609  0.6626 -0.1888
   78CHL1  H21B 8232   3.789   2.271  23.507  0.0330  1.3140 -0.0131
   78CHL1  H21C 8233   3.920   2.335  23.399  2.7123  0.1228  1.1394
   78CHL1   C22 8234   3.970   2.070  23.267  0.5237 -0.1398  0.1166
   78CHL1  H22A 8235   3.935   1.983  23.208 -1.9405  0.7413  0.1999
   78CHL1  H22B 8236   4.007   2.142  23.191 -0.6464 -0.7407 -1.0617
   78CHL1   C23 8237   4.091   2.030  23.355 -0.0040  0.5610 -0.0032
   78CHL1  H23A 8238   4.172   2.020  23.280  0.2217 -0.6965  0.3875
   78CHL1  H23B 8239   4.128   2.117  23.414 -0.4623  0.4855  0.4070
   78CHL1   C24 8240   4.073   1.911  23.451 -0.1848  0.4768  0.5636
   78CHL1  H24A 8241   3.998   1.934  23.529 -1.3263 -1.1876  0.0103
   78CHL1  H24B 8242   4.022   1.832  23.391  2.2001  2.2062 -4.2388
   78CHL1   C25 8243   4.203   1.855  23.501  0.4211 -0.2362  0.3858
   78CHL1   H25 8244   4.271   1.833  23.416 -0.1023 -1.5725  0.3004
   78CHL1   C26 8245   4.287   1.944  23.588  1.2473 -0.1935 -0.3441
   78CHL1  H26A 8246   4.242   1.991  23.679  0.3185 -2.0375  0.1954
   78CHL1  H26B 8247   4.362   1.882  23.641  0.6207 -0.8658 -0.2338
   78CHL1  H26C 8248   4.337   2.022  23.526 -0.0617  0.0252 -1.1661
   78CHL1   C27 8249   4.176   1.720  23.572  0.2715  0.6967  0.1413
   78CHL1  H27A 8250   4.134   1.753  23.669 -0.4703  1.1342 -0.3169
   78CHL1  H27B 8251   4.103   1.666  23.508  0.3612 -0.3930  0.9237
   78CHL1  H27C 8252   4.268   1.657  23.572 -0.9883 -1.2255 -0.3421
   79CHL1    C3 8253   1.926   2.340  22.884 -0.4712 -0.5377 -0.3432
   79CHL1    H3 8254   2.025   2.340  22.935 -1.3933  0.7558  1.5760
   79CHL1    O3 8255   1.918   2.227  22.802 -0.1769  0.0320  0.3866
   79CHL1   H3' 8256   1.825   2.222  22.776 -0.0564 -2.0386  0.1714
   79CHL1    C4 8257   1.829   2.330  22.997  0.5097  0.3978  0.6471
   79CHL1   H4A 8258   1.728   2.327  22.950  0.6191 -2.6863  0.3574
   79CHL1   H4B 8259   1.858   2.238  23.053  3.5615 -0.5341 -2.1683
   79CHL1    C5 8260   1.833   2.453  23.083  0.2894  0.9878  0.1230
   79CHL1    C6 8261   1.852   2.438  23.215  0.3054 -0.0111 -0.5051
   79CHL1    H6 8262   1.876   2.338  23.251  0.3322 -0.0225 -0.5555
   79CHL1    C7 8263   1.851   2.556  23.315 -0.6756  0.0752 -0.1908
   79CHL1   H7A 8264   1.793   2.527  23.405  1.7106 -1.2558  0.9988
   79CHL1   H7B 8265   1.957   2.576  23.341  0.0788 -1.5473 -1.8326
   79CHL1    C8 8266   1.787   2.690  23.255  0.0480 -0.4402  0.2811
   79CHL1    H8 8267   1.677   2.674  23.250 -0.1626  1.0386 -0.0353
   79CHL1   C14 8268   1.815   2.807  23.348  0.1060 -0.2511 -0.4162
   79CHL1   H14 8269   1.926   2.811  23.339  0.0448 -1.9957 -3.0681
   79CHL1   C15 8270   1.789   2.799  23.501  0.8254 -0.2430  0.6735
   79CHL1  H15A 8271   1.693   2.745  23.511  0.8752 -0.7490 -1.1380
   79CHL1  H15B 8272   1.869   2.749  23.558  0.9974 -0.2837  0.3975
   79CHL1   C16 8273   1.772   2.957  23.533  0.3913  0.1719  0.1819
   79CHL1  H16A 8274   1.670   2.977  23.569  0.0145  1.4078 -1.4345
   79CHL1  H16B 8275   1.850   2.990  23.605 -0.4199  0.5679  0.8816
   79CHL1   C17 8276   1.795   3.041  23.401  0.2425  0.1096 -0.6686
   79CHL1   H17 8277   1.905   3.046  23.387  0.9220 -0.3198  3.4555
   79CHL1   C13 8278   1.762   2.940  23.291 -0.8848 -0.2865 -0.5930
   79CHL1   C18 8279   1.609   2.947  23.268  0.5462 -0.4160 -0.2378
   79CHL1  H18A 8280   1.573   3.050  23.244  0.4365 -0.4500 -0.2184
   79CHL1  H18B 8281   1.577   2.861  23.205  0.6004 -2.1582  1.9989
   79CHL1  H18C 8282   1.563   2.919  23.365 -0.4509 -0.0223 -0.5902
   79CHL1   C12 8283   1.834   2.960  23.154 -1.0783 -0.9173  0.3928
   79CHL1  H12A 8284   1.803   3.045  23.089  4.3876 -0.7197 -2.5559
   79CHL1  H12B 8285   1.942   2.982  23.165 -0.7276 -1.8982 -0.7781
   79CHL1   C11 8286   1.809   2.843  23.060  0.1186 -0.4944  0.4933
   79CHL1  H11A 8287   1.699   2.837  23.045  0.5585  0.0363 -5.2209
   79CHL1  H11B 8288   1.853   2.858  22.959 -0.1021 -0.8994  0.3333
   79CHL1    C9 8289   1.844   2.708  23.113  0.4057  0.3668 -0.0934
   79CHL1    H9 8290   1.954   2.706  23.123  0.6219  2.9012 -1.3235
   79CHL1   C10 8291   1.820   2.591  23.010 -0.1404  0.5916  0.1374
   79CHL1   C19 8292   1.681   2.609  22.954  0.0640 -0.0153  0.1060
   79CHL1  H19A 8293   1.690   2.697  22.887  0.7438 -2.4940 -3.3689
   79CHL1  H19B 8294   1.644   2.524  22.893  0.4972 -0.0554 -0.1093
   79CHL1  H19C 8295   1.608   2.626  23.035 -1.3288  0.6955 -1.2461
   79CHL1    C1 8296   1.924   2.595  22.896  0.6016 -0.4149  1.5555
   79CHL1   H1A 8297   1.916   2.689  22.836  1.7725 -2.4500 -2.0704
   79CHL1   H1B 8298   2.027   2.597  22.937  1.2401 -2.8228  0.2277
   79CHL1    C2 8299   1.914   2.474  22.802 -0.0660  0.3079  0.2634
   79CHL1   H2A 8300   2.001   2.456  22.736 -0.8143 -3.4263  0.0900
   79CHL1   H2B 8301   1.815   2.477  22.752 -0.6876  0.9092  1.4856
   79CHL1   C20 8302   1.738   3.184  23.409  0.4982 -0.8608  0.3610
   79CHL1   H20 8303   1.628   3.178  23.423  0.6427 -2.6751  1.0774
   79CHL1   C21 8304   1.767   3.265  23.287  0.3508 -0.3293  0.4130
   79CHL1  H21A 8305   1.762   3.376  23.296  1.0946  0.2503 -3.8900
   79CHL1  H21B 8306   1.686   3.251  23.211  0.9626 -0.9521 -0.1351
   79CHL1  H21C 8307   1.855   3.232  23.228 -0.2983 -0.9267 -0.2424
   79CHL1   C22 8308   1.794   3.263  23.525 -0.0764  0.4411 -0.9518
   79CHL1  H22A 8309   1.763   3.366  23.500 -0.2846  0.3013 -1.2715
   79CHL1  H22B 8310   1.732   3.229  23.611  1.1161 -0.1888 -0.3119
   79CHL1   C23 8311   1.941   3.256  23.559  0.1867 -0.4962  0.0257
   79CHL1  H23A 8312   1.978   3.158  23.596 -1.7375 -0.2914  2.8201
   79CHL1  H23B 8313   1.992   3.294  23.469 -0.0853 -1.2359 -0.4502
   79CHL1   C24 8314   1.970   3.348  23.672 -0.3350  0.1312 -0.4204
   79CHL1  H24A 8315   1.925   3.447  23.647 -4.5100 -1.1439  1.2271
   79CHL1  H24B 8316   1.930   3.307  23.767  0.2061 -0.1199 -0.2990
   79CHL1   C25 8317   2.126   3.364  23.694 -0.2642  0.6434  0.0876
   79CHL1   H25 8318   2.164   3.401  23.596 -0.7498 -0.7890 -0.6673
   79CHL1   C26 8319   2.156   3.478  23.791  0.0639 -0.4135  0.1480
   79CHL1  H26A 8320   2.263   3.505  23.797  0.4657 -2.0267  0.6231
   79CHL1  H26B 8321   2.100   3.574  23.781  2.9426  1.3153 -0.3147
   79CHL1  H26C 8322   2.137   3.445  23.896  1.9634  0.3782  0.7864
   79CHL1   C27 8323   2.198   3.241  23.732  0.6267  0.0582  0.0615
   79CHL1  H27A 8324   2.180   3.162  23.656 -1.9940  0.0918  0.5867
   79CHL1  H27B 8325   2.307   3.265  23.733  0.9417 -1.2903  0.3158
   79CHL1  H27C 8326   2.173   3.205  23.834 -0.6199  2.3268  0.6234
   80CHL1    C3 8327   2.556   1.782  23.330  0.2874 -0.2795  0.6216
   80CHL1    H3 8328   2.639   1.849  23.298 -2.1845  2.6417 -0.1909
   80CHL1    O3 8329   2.526   1.693  23.226 -0.2237 -0.4542 -0.1380
   80CHL1   H3' 8330   2.501   1.611  23.269  0.9357 -1.1907 -0.8198
   80CHL1    C4 8331   2.602   1.702  23.447  0.5782 -0.0573  0.0746
   80CHL1   H4A 8332   2.527   1.627  23.480 -1.2943 -0.7567 -4.9887
   80CHL1   H4B 8333   2.697   1.654  23.414  1.6488  2.0209 -0.0169
   80CHL1    C5 8334   2.633   1.805  23.563  0.4637  0.0510 -0.3532
   80CHL1    C6 8335   2.750   1.808  23.623  0.3999 -0.4980 -0.0794
   80CHL1    H6 8336   2.829   1.744  23.583 -1.1245 -1.2815 -1.9546
   80CHL1    C7 8337   2.785   1.883  23.742 -0.2866 -0.0925  0.1746
   80CHL1   H7A 8338   2.841   1.824  23.818  1.4520 -0.9825 -1.6884
   80CHL1   H7B 8339   2.852   1.970  23.724 -0.9472  0.2771 -0.5839
   80CHL1    C8 8340   2.660   1.932  23.813  0.1137 -0.0399 -0.7491
   80CHL1    H8 8341   2.608   1.858  23.878  0.8431  1.0962  1.2076
   80CHL1   C14 8342   2.700   2.038  23.917 -0.4670 -0.2704 -0.0911
   80CHL1   H14 8343   2.736   2.120  23.853 -1.8979 -0.4091 -1.1333
   80CHL1   C15 8344   2.816   2.016  24.010 -0.0999 -0.1389  0.0629
   80CHL1  H15A 8345   2.802   1.918  24.062 -1.9467  1.1222  2.1596
   80CHL1  H15B 8346   2.911   2.030  23.955  0.3314 -0.4018  0.7184
   80CHL1   C16 8347   2.799   2.123  24.122 -0.3891  1.1111 -0.1513
   80CHL1  H16A 8348   2.782   2.073  24.219  0.3819  0.1313 -0.5052
   80CHL1  H16B 8349   2.888   2.191  24.123  2.1840 -2.0198  0.8713
   80CHL1   C17 8350   2.664   2.193  24.084 -0.6533  0.5649  0.0232
   80CHL1   H17 8351   2.693   2.272  24.011 -0.9488  1.8082  1.1976
   80CHL1   C13 8352   2.588   2.099  23.997 -0.0526 -0.1163 -0.3610
   80CHL1   C18 8353   2.522   1.999  24.089 -0.0232 -0.5255  0.3029
   80CHL1  H18A 8354   2.445   2.044  24.156 -3.3136 -3.1212 -1.4075
   80CHL1  H18B 8355   2.448   1.935  24.036  0.6558  0.1629 -1.5595
   80CHL1  H18C 8356   2.595   1.942  24.150 -0.0778 -2.0168 -0.9548
   80CHL1   C12 8357   2.490   2.162  23.890  0.7401  0.1956 -0.9536
   80CHL1  H12A 8358   2.396   2.191  23.942  1.6951 -1.4685  1.9682
   80CHL1  H12B 8359   2.543   2.245  23.839  3.7217 -0.7778  0.3555
   80CHL1   C11 8360   2.438   2.051  23.792 -0.2330 -0.1348  0.6335
   80CHL1  H11A 8361   2.379   1.972  23.844 -1.4285 -1.1147 -1.9948
   80CHL1  H11B 8362   2.357   2.093  23.729  0.8258 -0.8350 -1.2794
   80CHL1    C9 8363   2.559   1.995  23.714  0.1107 -0.2667 -0.3414
   80CHL1    H9 8364   2.608   2.081  23.662 -0.6915  0.7860  0.6114
   80CHL1   C10 8365   2.511   1.896  23.601  0.6063 -0.1603 -0.0148
   80CHL1   C19 8366   2.405   1.789  23.649  0.2022 -0.4604 -0.2018
   80CHL1  H19A 8367   2.379   1.716  23.569  0.9587 -0.6601 -0.2789
   80CHL1  H19B 8368   2.443   1.735  23.739  0.6616  0.1649 -0.0158
   80CHL1  H19C 8369   2.314   1.847  23.676 -0.8250 -2.6198  1.2414
   80CHL1    C1 8370   2.465   1.967  23.482 -0.3623  0.1397 -0.0912
   80CHL1   H1A 8371   2.370   2.019  23.506 -0.0893 -0.2929  2.1718
   80CHL1   H1B 8372   2.540   2.040  23.444  1.5983 -1.3690  0.7016
   80CHL1    C2 8373   2.431   1.874  23.360  0.8242  0.0112  0.0854
   80CHL1   H2A 8374   2.405   1.936  23.271  0.7231 -0.8499 -0.5041
   80CHL1   H2B 8375   2.348   1.804  23.382  3.7292 -4.3968 -1.6533
   80CHL1   C20 8376   2.595   2.275  24.202 -0.2959  0.1306 -0.1777
   80CHL1   H20 8377   2.564   2.194  24.272  2.1424 -0.8804 -0.1571
   80CHL1   C21 8378   2.484   2.366  24.151  0.0018  0.0630 -0.3786
   80CHL1  H21A 8379   2.514   2.430  24.065  2.0337  2.0089  1.6372
   80CHL1  H21B 8380   2.443   2.430  24.232 -2.8034 -1.6883 -0.3145
   80CHL1  H21C 8381   2.392   2.313  24.119  0.0777 -1.8569  2.3042
   80CHL1   C22 8382   2.702   2.369  24.273  0.1734 -0.4348  0.2354
   80CHL1  H22A 8383   2.781   2.297  24.303 -0.2197 -0.8268  0.3495
   80CHL1  H22B 8384   2.744   2.455  24.216 -0.2553 -0.6424 -0.4118
   80CHL1   C23 8385   2.651   2.446  24.402  0.4277 -0.3461 -0.1461
   80CHL1  H23A 8386   2.595   2.536  24.367  0.5974 -0.4753 -0.7475
   80CHL1  H23B 8387   2.578   2.371  24.439  0.0737  1.0685  2.2479
   80CHL1   C24 8388   2.755   2.476  24.499  0.1088  0.0582  0.1226
   80CHL1  H24A 8389   2.826   2.391  24.510  0.6111  0.2311 -1.5480
   80CHL1  H24B 8390   2.823   2.555  24.460 -0.7283  1.1566  0.8324
   80CHL1   C25 8391   2.705   2.526  24.636 -0.5899 -0.3125 -0.5732
   80CHL1   H25 8392   2.626   2.453  24.665 -0.0668 -0.8944 -0.5836
   80CHL1   C26 8393   2.807   2.528  24.753 -0.3285  0.2040  0.1620
   80CHL1  H26A 8394   2.754   2.557  24.847  1.3291  0.9682  0.8973
   80CHL1  H26B 8395   2.855   2.428  24.761 -0.3151  0.3442  3.1612
   80CHL1  H26C 8396   2.886   2.604  24.739  1.1979 -1.4113 -0.4366
   80CHL1   C27 8397   2.639   2.665  24.620  0.3928  0.3256  0.6854
   80CHL1  H27A 8398   2.705   2.743  24.576  0.7520  0.4539  1.4465
   80CHL1  H27B 8399   2.548   2.659  24.556  0.2236  2.7250  0.6062
   80CHL1  H27C 8400   2.610   2.711  24.717  0.2380 -2.9286  2.3056
   81CHL1    C3 8401   2.558   1.067  17.602 -0.7925  0.2265  0.3610
   81CHL1    H3 8402   2.458   1.104  17.634 -0.8085  1.8575 -1.3582
   81CHL1    O3 8403   2.631   1.178  17.552  0.2594 -0.2100  0.2674
   81CHL1   H3' 8404   2.688   1.146  17.482  0.4116  0.6620 -0.0242
   81CHL1    C4 8405   2.635   1.022  17.734 -0.5190 -0.1496  0.3033
   81CHL1   H4A 8406   2.740   1.019  17.699 -0.8344  1.9406 -1.0454
   81CHL1   H4B 8407   2.628   1.104  17.808  1.1095 -1.9248  2.5446
   81CHL1    C5 8408   2.599   0.890  17.800 -1.0044  0.2683  0.1712
   81CHL1    C6 8409   2.578   0.878  17.930 -0.5520  0.1669  0.2702
   81CHL1    H6 8410   2.592   0.970  17.990 -0.4538  0.7835 -0.6742
   81CHL1    C7 8411   2.519   0.752  17.996 -0.6354 -0.2429  0.3471
   81CHL1   H7A 8412   2.582   0.729  18.085  0.6105 -0.2373 -0.5055
   81CHL1   H7B 8413   2.417   0.781  18.029 -1.3484 -0.4109 -1.5858
   81CHL1    C8 8414   2.528   0.622  17.902  0.2395  0.0855 -0.1580
   81CHL1    H8 8415   2.634   0.591  17.897 -0.3251 -1.9625 -0.5672
   81CHL1   C14 8416   2.438   0.518  17.963  0.9222 -0.0990 -0.6914
   81CHL1   H14 8417   2.338   0.562  17.978  1.0033 -0.1950  0.2134
   81CHL1   C15 8418   2.468   0.459  18.107 -0.0647 -0.0649  0.8931
   81CHL1  H15A 8419   2.574   0.425  18.102 -0.5154 -1.3260 -0.7225
   81CHL1  H15B 8420   2.461   0.539  18.184  1.6416  0.9935 -0.0026
   81CHL1   C16 8421   2.377   0.339  18.121 -0.0907 -0.2160 -0.2610
   81CHL1  H16A 8422   2.443   0.250  18.138  1.1859  0.3221 -2.0604
   81CHL1  H16B 8423   2.304   0.348  18.204  2.0612  1.0785  1.6247
   81CHL1   C17 8424   2.308   0.313  17.984 -0.6779 -0.6517 -0.0265
   81CHL1   H17 8425   2.210   0.365  17.980 -0.2082  0.3529  0.8688
   81CHL1   C13 8426   2.403   0.389  17.880 -0.8627  0.8076 -0.1070
   81CHL1   C18 8427   2.534   0.304  17.864 -0.3980 -0.0405  0.2898
   81CHL1  H18A 8428   2.567   0.249  17.955  2.2518  1.2746  0.2118
   81CHL1  H18B 8429   2.512   0.230  17.784 -0.4928 -0.0646  0.3385
   81CHL1  H18C 8430   2.622   0.363  17.831  0.5970 -1.0665  1.0056
   81CHL1   C12 8431   2.356   0.438  17.741  0.4036  0.8851 -0.2326
   81CHL1  H12A 8432   2.340   0.349  17.676  1.5031 -2.2607  3.4488
   81CHL1  H12B 8433   2.256   0.481  17.765  1.5516  2.6146  1.7027
   81CHL1   C11 8434   2.447   0.543  17.671  0.1418  0.0814 -0.3448
   81CHL1  H11A 8435   2.544   0.495  17.644  0.8366  0.7104  0.8924
   81CHL1  H11B 8436   2.396   0.567  17.576 -0.1915 -2.6311 -0.9367
   81CHL1    C9 8437   2.475   0.667  17.765 -1.2745 -0.6207 -0.0753
   81CHL1    H9 8438   2.377   0.719  17.767 -0.7683  0.3982 -0.7111
   81CHL1   C10 8439   2.569   0.776  17.700 -0.5511 -0.1168  0.0633
   81CHL1   C19 8440   2.698   0.707  17.647 -0.2529  0.3849  0.2074
   81CHL1  H19A 8441   2.670   0.636  17.566  0.9185 -1.0754  1.0293
   81CHL1  H19B 8442   2.756   0.783  17.591 -0.8720  2.7837  2.5812
   81CHL1  H19C 8443   2.765   0.661  17.723 -2.8182 -3.0502  0.6545
   81CHL1    C1 8444   2.491   0.837  17.581 -0.1782  0.0754  0.1744
   81CHL1   H1A 8445   2.496   0.748  17.515  3.0819  1.1698 -1.2703
   81CHL1   H1B 8446   2.390   0.866  17.617 -0.0394  2.4865 -1.1620
   81CHL1    C2 8447   2.555   0.952  17.503 -0.0674  0.0696  0.0883
   81CHL1   H2A 8448   2.487   0.973  17.418 -1.6437 -0.5404  1.1415
   81CHL1   H2B 8449   2.656   0.928  17.465 -0.2788  0.1741 -0.5401
   81CHL1   C20 8450   2.284   0.168  17.959 -0.0963 -0.7349  0.4933
   81CHL1   H20 8451   2.375   0.106  17.950  0.8919  0.9266 -2.1402
   81CHL1   C21 8452   2.207   0.141  17.826 -0.2352  0.2652 -0.1048
   81CHL1  H21A 8453   2.288   0.143  17.750 -1.5348 -0.1335 -1.5505
   81CHL1  H21B 8454   2.138   0.228  17.817  0.0176  0.8321  2.6964
   81CHL1  H21C 8455   2.142   0.051  17.821 -3.0382  2.1522  0.3603
   81CHL1   C22 8456   2.202   0.098  18.067 -0.1058  0.0901 -0.2162
   81CHL1  H22A 8457   2.232   0.128  18.170  1.2248  0.6241 -0.7392
   81CHL1  H22B 8458   2.095   0.124  18.051 -0.6127 -2.0205 -0.4936
   81CHL1   C23 8459   2.229  -0.052  18.060  0.2231  0.0135  0.2206
   81CHL1  H23A 8460   2.205  -0.106  17.966 -0.4916  1.2165 -0.3023
   81CHL1  H23B 8461   2.337  -0.059  18.086 -0.2915 -1.4263  2.2463
   81CHL1   C24 8462   2.166  -0.143  18.165 -0.1934  0.5524 -0.5600
   81CHL1  H24A 8463   2.187  -0.248  18.137  0.6294  0.7498 -0.6980
   81CHL1  H24B 8464   2.218  -0.129  18.262  1.4507 -3.1339 -0.7780
   81CHL1   C25 8465   2.011  -0.129  18.190  0.8520 -0.3632  0.3004
   81CHL1   H25 8466   1.999  -0.019  18.197 -1.1476 -0.5771  0.9502
   81CHL1   C26 8467   1.934  -0.178  18.074  0.2743 -0.0981  0.1472
   81CHL1  H26A 8468   1.826  -0.165  18.096 -0.0059 -1.5779 -0.2932
   81CHL1  H26B 8469   1.961  -0.122  17.981  0.0286 -0.6192 -0.2429
   81CHL1  H26C 8470   1.954  -0.285  18.056  0.2606 -0.2155  0.8159
   81CHL1   C27 8471   1.982  -0.201  18.318  0.4366 -0.3547 -0.0131
   81CHL1  H27A 8472   2.036  -0.298  18.321  1.5795  0.2715  0.8069
   81CHL1  H27B 8473   2.034  -0.153  18.404  0.3657  0.3472 -0.3512
   81CHL1  H27C 8474   1.873  -0.218  18.330  0.1591  2.0463  1.5894
   82CHL1    C3 8475   0.716   1.326  22.227  0.1282  0.2756 -0.3593
   82CHL1    H3 8476   0.808   1.282  22.183  1.4380  1.5610  1.0116
   82CHL1    O3 8477   0.696   1.451  22.176  0.1270  0.2305  0.0628
   82CHL1   H3' 8478   0.629   1.425  22.111 -0.4292  1.3043  0.1897
   82CHL1    C4 8479   0.593   1.232  22.195 -1.0863  0.1046  0.7358
   82CHL1   H4A 8480   0.510   1.301  22.219 -0.2709  0.8300  1.5437
   82CHL1   H4B 8481   0.595   1.215  22.085  1.8751  0.7988  0.5894
   82CHL1    C5 8482   0.592   1.100  22.269  0.3597 -0.1546 -0.1670
   82CHL1    C6 8483   0.599   0.984  22.200 -0.1685 -0.5087  0.3205
   82CHL1    H6 8484   0.600   0.974  22.091 -1.0976 -1.0758  0.3526
   82CHL1    C7 8485   0.617   0.849  22.260 -0.0241  0.0379 -0.7732
   82CHL1   H7A 8486   0.563   0.766  22.210  1.0356 -0.5958 -0.9007
   82CHL1   H7B 8487   0.722   0.818  22.241 -0.6184 -1.9957 -0.9518
   82CHL1    C8 8488   0.590   0.857  22.419  0.3270 -0.5312 -0.6449
   82CHL1    H8 8489   0.484   0.882  22.442  0.3927  0.5402 -1.4499
   82CHL1   C14 8490   0.636   0.726  22.487  0.6988  0.3852  0.5453
   82CHL1   H14 8491   0.740   0.706  22.453 -0.2683 -3.5209 -0.6615
   82CHL1   C15 8492   0.569   0.588  22.442  0.5337  0.3481 -0.5335
   82CHL1  H15A 8493   0.459   0.604  22.452  0.8719  1.1196  3.0436
   82CHL1  H15B 8494   0.585   0.550  22.339 -0.9244 -1.4015 -0.1718
   82CHL1   C16 8495   0.615   0.489  22.555  0.3713 -0.0356 -0.6256
   82CHL1  H16A 8496   0.537   0.421  22.593  0.8394  0.5384  1.5089
   82CHL1  H16B 8497   0.699   0.434  22.507  0.9682  2.5023 -2.7519
   82CHL1   C17 8498   0.677   0.580  22.668  0.5873 -0.3294 -0.1089
   82CHL1   H17 8499   0.787   0.567  22.651  1.2850  1.2641  2.6265
   82CHL1   C13 8500   0.630   0.725  22.638 -0.2190 -0.3569 -1.0148
   82CHL1   C18 8501   0.483   0.754  22.685  0.5413  0.5358  0.5021
   82CHL1  H18A 8502   0.471   0.745  22.795  0.9909 -0.5709  0.4750
   82CHL1  H18B 8503   0.437   0.849  22.651 -1.5657 -0.8686 -0.8109
   82CHL1  H18C 8504   0.414   0.678  22.642 -0.6384  0.7278  1.9647
   82CHL1   C12 8505   0.739   0.833  22.685  0.2406  0.0608  0.3433
   82CHL1  H12A 8506   0.752   0.833  22.796  0.1591 -0.6420  0.3566
   82CHL1  H12B 8507   0.837   0.817  22.636  0.3994  3.4800 -0.7432
   82CHL1   C11 8508   0.688   0.965  22.633 -0.4007  0.0619 -0.0288
   82CHL1  H11A 8509   0.592   0.996  22.680 -1.3925 -1.8061 -0.7187
   82CHL1  H11B 8510   0.763   1.043  22.657 -0.4930  0.2667 -0.4076
   82CHL1    C9 8511   0.672   0.963  22.482 -0.0888 -0.3703 -0.5856
   82CHL1    H9 8512   0.773   0.956  22.436  0.4150  0.6060  0.3426
   82CHL1   C10 8513   0.618   1.106  22.422 -0.5153 -0.8384 -0.2014
   82CHL1   C19 8514   0.484   1.142  22.494  0.4022  0.4270  0.2710
   82CHL1  H19A 8515   0.442   1.228  22.437  0.2988 -1.8062 -3.3551
   82CHL1  H19B 8516   0.411   1.059  22.484  0.4730  0.3568  0.3382
   82CHL1  H19C 8517   0.494   1.170  22.601  2.4959 -0.7767  0.4508
   82CHL1    C1 8518   0.723   1.223  22.465 -0.0430 -0.3168 -0.7288
   82CHL1   H1A 8519   0.729   1.241  22.574  1.6069  3.7480 -1.3244
   82CHL1   H1B 8520   0.819   1.170  22.445  0.0964 -0.9342  1.3075
   82CHL1    C2 8521   0.718   1.351  22.379 -0.2723  0.3717 -0.3183
   82CHL1   H2A 8522   0.805   1.412  22.408 -0.6985  0.5250  0.6876
   82CHL1   H2B 8523   0.622   1.398  22.412 -0.3225  0.3138 -0.3812
   82CHL1   C20 8524   0.659   0.520  22.809 -0.0226  0.9086  0.8256
   82CHL1   H20 8525   0.549   0.512  22.820 -0.4206  1.4936 -1.9557
   82CHL1   C21 8526   0.704   0.614  22.921 -0.0042  0.5102  0.6932
   82CHL1  H21A 8527   0.800   0.663  22.895  1.0758 -1.3201  1.0663
   82CHL1  H21B 8528   0.720   0.562  23.018 -1.8502  1.0690  1.3484
   82CHL1  H21C 8529   0.623   0.687  22.941 -0.4994 -0.4111  2.3085
   82CHL1   C22 8530   0.725   0.387  22.824 -0.7673  0.1563 -0.0093
   82CHL1  H22A 8531   0.705   0.327  22.733  0.0393  2.1357 -1.5565
   82CHL1  H22B 8532   0.834   0.409  22.831 -0.9636  1.6646 -1.2194
   82CHL1   C23 8533   0.699   0.304  22.950 -0.5076  0.3817 -0.5504
   82CHL1  H23A 8534   0.746   0.206  22.929 -1.1302  0.3380 -1.8817
   82CHL1  H23B 8535   0.750   0.351  23.036 -2.4273  0.9045  0.3493
   82CHL1   C24 8536   0.549   0.277  22.978  0.0850  0.3985 -0.6443
   82CHL1  H24A 8537   0.495   0.373  22.990  0.8726  0.7917 -0.1142
   82CHL1  H24B 8538   0.504   0.225  22.891  1.0603 -1.0967 -0.2881
   82CHL1   C25 8539   0.506   0.175  23.092 -0.0160  0.1075 -0.3165
   82CHL1   H25 8540   0.574   0.191  23.178  1.9075 -0.2832 -1.7085
   82CHL1   C26 8541   0.367   0.214  23.121  0.5215  0.4008 -0.1333
   82CHL1  H26A 8542   0.315   0.178  23.212 -0.9625 -0.6341 -1.3257
   82CHL1  H26B 8543   0.347   0.323  23.114 -0.4975  0.3825  1.8698
   82CHL1  H26C 8544   0.312   0.155  23.045  1.6819 -1.7611  0.6400
   82CHL1   C27 8545   0.515   0.028  23.039 -0.5282  0.9308  0.7839
   82CHL1  H27A 8546   0.620   0.003  23.011 -0.0595  3.0895  0.4781
   82CHL1  H27B 8547   0.485  -0.044  23.118 -0.2452 -3.2156 -2.5268
   82CHL1  H27C 8548   0.451   0.020  22.949  1.1493  3.4874 -0.7657
   83CHL1    C3 8549   2.235   2.441  18.258  0.1156 -0.7110 -0.0490
   83CHL1    H3 8550   2.216   2.487  18.159 -0.6787 -0.5785  0.1564
   83CHL1    O3 8551   2.226   2.297  18.241  0.1627  0.2275 -0.4287
   83CHL1   H3' 8552   2.132   2.280  18.244  0.1061  0.5801 -0.2322
   83CHL1    C4 8553   2.369   2.492  18.307 -0.1583  0.5603 -0.0083
   83CHL1   H4A 8554   2.385   2.438  18.403 -1.3601  0.7780  0.3368
   83CHL1   H4B 8555   2.450   2.469  18.234  1.1219  3.1671  0.4566
   83CHL1    C5 8556   2.371   2.644  18.348 -0.0539 -0.2942  0.2562
   83CHL1    C6 8557   2.464   2.731  18.298 -0.9733  0.8839  0.1699
   83CHL1    H6 8558   2.552   2.689  18.247 -0.7621  2.0721 -0.4652
   83CHL1    C7 8559   2.485   2.867  18.353 -0.2528  0.5052  0.5392
   83CHL1   H7A 8560   2.590   2.875  18.389 -0.7946 -1.4968  2.8207
   83CHL1   H7B 8561   2.476   2.932  18.263 -0.2498  0.5241  0.5525
   83CHL1    C8 8562   2.379   2.907  18.463 -0.5772  0.1270  0.2029
   83CHL1    H8 8563   2.405   2.849  18.553  1.7375 -3.1158 -2.2989
   83CHL1   C14 8564   2.373   3.050  18.491  0.0495  0.1840 -0.3246
   83CHL1   H14 8565   2.343   3.095  18.394 -0.9241 -0.7178 -0.4607
   83CHL1   C15 8566   2.509   3.111  18.527 -0.1733 -0.3799  0.1918
   83CHL1  H15A 8567   2.559   3.051  18.605 -1.3496 -4.0022 -1.5900
   83CHL1  H15B 8568   2.587   3.122  18.449  0.6207  1.1650  1.1711
   83CHL1   C16 8569   2.466   3.249  18.576  0.5238 -0.3166 -0.0690
   83CHL1  H16A 8570   2.517   3.268  18.673  2.8294  1.1977 -1.4599
   83CHL1  H16B 8571   2.493   3.329  18.503  0.3643  0.0107  0.2229
   83CHL1   C17 8572   2.316   3.248  18.586 -0.8189  0.9272  0.6281
   83CHL1   H17 8573   2.280   3.283  18.487 -0.5081 -0.9977 -0.1997
   83CHL1   C13 8574   2.272   3.099  18.587  0.4787 -0.2152 -0.7317
   83CHL1   C18 8575   2.293   3.045  18.736  0.0851 -0.0961 -0.0738
   83CHL1  H18A 8576   2.394   3.076  18.771  0.5091  1.3054 -2.3249
   83CHL1  H18B 8577   2.198   3.072  18.786 -0.2572 -1.5761  0.1382
   83CHL1  H18C 8578   2.294   2.933  18.734 -2.3841 -0.1504 -0.3787
   83CHL1   C12 8579   2.130   3.059  18.536 -0.0318  0.1533  0.1171
   83CHL1  H12A 8580   2.042   3.092  18.595 -0.6512  1.6082 -1.5367
   83CHL1  H12B 8581   2.127   3.107  18.436 -3.9416  0.5663  0.3014
   83CHL1   C11 8582   2.122   2.908  18.516 -0.5690  0.5927 -0.2086
   83CHL1  H11A 8583   2.121   2.877  18.623 -1.6112  1.3109  0.0062
   83CHL1  H11B 8584   2.028   2.877  18.465  0.0898 -1.4029 -0.3138
   83CHL1    C9 8585   2.238   2.844  18.435 -0.8167  0.7029 -0.3029
   83CHL1    H9 8586   2.205   2.870  18.332  3.0059  0.1128 -1.8494
   83CHL1   C10 8587   2.238   2.689  18.425 -0.5902 -0.3589 -0.2626
   83CHL1   C19 8588   2.249   2.627  18.570  0.3598 -0.3498  0.7928
   83CHL1  H19A 8589   2.152   2.644  18.622 -0.2043 -0.1400 -0.3047
   83CHL1  H19B 8590   2.272   2.519  18.568 -0.5575 -0.5645  1.2441
   83CHL1  H19C 8591   2.333   2.678  18.623  1.4672  0.6600 -1.7840
   83CHL1    C1 8592   2.108   2.642  18.349 -0.5900 -0.4573 -0.0058
   83CHL1   H1A 8593   2.025   2.666  18.419  0.7072 -0.6117  1.6345
   83CHL1   H1B 8594   2.092   2.695  18.253 -1.4861  1.6784  1.2544
   83CHL1    C2 8595   2.112   2.490  18.337 -0.2423  0.5819 -0.2144
   83CHL1   H2A 8596   2.015   2.458  18.294  0.2196 -0.3104 -0.6207
   83CHL1   H2B 8597   2.124   2.436  18.434  0.5160  0.2509 -0.4830
   83CHL1   C20 8598   2.259   3.351  18.683 -0.6953 -0.4831 -0.0389
   83CHL1   H20 8599   2.289   3.322  18.785  1.8865 -2.1557 -1.1724
   83CHL1   C21 8600   2.104   3.345  18.667  0.7190 -0.3757 -0.0177
   83CHL1  H21A 8601   2.059   3.266  18.731 -1.4569  1.2261  0.5280
   83CHL1  H21B 8602   2.076   3.331  18.560  0.7635 -1.5193  0.1048
   83CHL1  H21C 8603   2.056   3.441  18.695 -0.0820  0.4474 -3.6117
   83CHL1   C22 8604   2.315   3.492  18.656 -0.8155 -0.1575 -0.2745
   83CHL1  H22A 8605   2.426   3.490  18.648 -0.5346  1.3364  2.0248
   83CHL1  H22B 8606   2.271   3.539  18.565 -1.1837 -1.5531 -0.8350
   83CHL1   C23 8607   2.291   3.571  18.783 -0.4535  1.1059 -0.3038
   83CHL1  H23A 8608   2.187   3.558  18.820 -0.7450  1.5611 -0.9410
   83CHL1  H23B 8609   2.358   3.531  18.861 -1.2563  0.7189  0.2039
   83CHL1   C24 8610   2.332   3.724  18.778  0.2295 -0.0063 -0.0176
   83CHL1  H24A 8611   2.335   3.773  18.878 -2.2235  0.5472 -0.1475
   83CHL1  H24B 8612   2.437   3.732  18.742 -0.2036  1.6103 -1.0499
   83CHL1   C25 8613   2.246   3.805  18.682 -0.7969 -0.0098  0.4317
   83CHL1   H25 8614   2.263   3.757  18.584  1.1413 -0.5224  0.9671
   83CHL1   C26 8615   2.100   3.811  18.712 -0.0513  0.1716 -0.0577
   83CHL1  H26A 8616   2.041   3.848  18.626 -0.7825 -1.2292 -0.1860
   83CHL1  H26B 8617   2.067   3.711  18.745 -0.2771  0.2209 -0.1298
   83CHL1  H26C 8618   2.075   3.871  18.802 -1.1745 -0.0254 -0.2217
   83CHL1   C27 8619   2.308   3.947  18.671  0.1873  0.4461  0.4472
   83CHL1  H27A 8620   2.276   3.999  18.578  0.2736 -0.6097 -0.1899
   83CHL1  H27B 8621   2.285   4.000  18.766  0.7789 -0.3374  1.0317
   83CHL1  H27C 8622   2.417   3.951  18.651 -0.1397  2.3187 -1.3298
   84CHL1    C3 8623   3.276   1.046  19.399 -0.2827  0.5642  0.0151
   84CHL1    H3 8624   3.328   1.036  19.301 -2.3156  2.8778 -1.3986
   84CHL1    O3 8625   3.284   1.185  19.443 -0.1088 -0.0409 -0.8575
   84CHL1   H3' 8626   3.311   1.183  19.535 -0.7996  0.7389 -0.6257
   84CHL1    C4 8627   3.125   1.021  19.370 -0.4853  0.2018  0.6928
   84CHL1   H4A 8628   3.056   1.035  19.456 -1.6419 -1.0439 -0.0043
   84CHL1   H4B 8629   3.083   1.093  19.297 -1.8897  0.7819  1.9995
   84CHL1    C5 8630   3.099   0.882  19.326 -0.6242 -0.3343  0.0429
   84CHL1    C6 8631   3.031   0.848  19.220  0.2005 -0.6828  0.1026
   84CHL1    H6 8632   2.981   0.922  19.155 -0.4198 -0.6820  0.5641
   84CHL1    C7 8633   3.012   0.711  19.164  0.2851  0.2439  0.0300
   84CHL1   H7A 8634   2.912   0.701  19.115  1.8804 -1.2709 -3.2128
   84CHL1   H7B 8635   3.091   0.691  19.090  1.1570  3.1479  0.0564
   84CHL1    C8 8636   3.024   0.600  19.272  0.1956  0.2644 -0.3829
   84CHL1    H8 8637   2.942   0.604  19.347 -0.8560 -3.9194 -1.0969
   84CHL1   C14 8638   3.028   0.464  19.213  1.1798  0.5514 -0.1289
   84CHL1   H14 8639   3.116   0.468  19.146  0.7073 -1.4048 -0.9383
   84CHL1   C15 8640   2.910   0.419  19.120 -0.5101  1.0524  0.0479
   84CHL1  H15A 8641   2.818   0.451  19.173 -0.2818  1.0047  0.4724
   84CHL1  H15B 8642   2.918   0.466  19.019  0.3314  0.1914 -0.2924
   84CHL1   C16 8643   2.919   0.262  19.106  0.0158 -0.4235 -0.2550
   84CHL1  H16A 8644   2.828   0.210  19.144  0.7067 -3.7856 -2.7230
   84CHL1  H16B 8645   2.949   0.235  19.002  0.0855 -1.9013  0.1284
   84CHL1   C17 8646   3.047   0.230  19.200  0.4550  0.0363  0.3350
   84CHL1   H17 8647   3.142   0.236  19.143  0.0698  1.7565 -0.2000
   84CHL1   C13 8648   3.059   0.342  19.301 -0.2441 -0.1979 -0.6372
   84CHL1   C18 8649   2.947   0.337  19.408  0.1725 -0.0991  0.2966
   84CHL1  H18A 8650   2.852   0.307  19.359  1.0861 -2.4193 -0.2169
   84CHL1  H18B 8651   2.961   0.258  19.486  1.3763  0.7406  0.9614
   84CHL1  H18C 8652   2.933   0.433  19.462  0.7767 -1.2687  2.6855
   84CHL1   C12 8653   3.206   0.375  19.358 -0.1195  0.0769 -0.3784
   84CHL1  H12A 8654   3.233   0.294  19.429 -0.6999  1.7306  1.8531
   84CHL1  H12B 8655   3.277   0.377  19.272  1.0142  0.4543  0.5504
   84CHL1   C11 8656   3.194   0.509  19.440  0.3184 -0.1804 -0.0729
   84CHL1  H11A 8657   3.121   0.490  19.522  0.1085 -2.5791 -0.7253
   84CHL1  H11B 8658   3.291   0.535  19.488 -0.2319 -0.6126  1.3086
   84CHL1    C9 8659   3.147   0.625  19.350  0.0264 -0.0353  0.2743
   84CHL1    H9 8660   3.224   0.629  19.269  3.3080  1.0548  3.1927
   84CHL1   C10 8661   3.158   0.767  19.419  0.0855  0.2063  0.2876
   84CHL1   C19 8662   3.073   0.757  19.545  0.4529  0.6512  0.4711
   84CHL1  H19A 8663   2.965   0.743  19.523  0.9187 -0.7962 -1.1610
   84CHL1  H19B 8664   3.095   0.670  19.611 -2.6788 -0.0374  0.7669
   84CHL1  H19C 8665   3.080   0.849  19.607  1.2245 -0.3029  1.8491
   84CHL1    C1 8666   3.307   0.806  19.455  0.3628  0.3326  0.2670
   84CHL1   H1A 8667   3.354   0.731  19.522  1.0714 -2.7955 -3.3491
   84CHL1   H1B 8668   3.369   0.777  19.367  0.9561 -0.4141  0.9114
   84CHL1    C2 8669   3.329   0.951  19.502 -0.5686  0.1170  0.2332
   84CHL1   H2A 8670   3.433   0.986  19.519 -0.6798  1.4942 -1.6296
   84CHL1   H2B 8671   3.261   0.965  19.589 -1.5280 -2.9806  0.1146
   84CHL1   C20 8672   3.034   0.088  19.254  0.0188  0.4040 -0.4415
   84CHL1   H20 8673   2.955   0.089  19.332  1.0343  2.9648  0.6644
   84CHL1   C21 8674   3.162   0.031  19.327  1.0525  0.4245  0.4344
   84CHL1  H21A 8675   3.248   0.030  19.256  1.2447 -0.7467  0.6562
   84CHL1  H21B 8676   3.149  -0.071  19.370  1.3428  0.6883  1.1531
   84CHL1  H21C 8677   3.197   0.101  19.406 -0.5432  1.9121 -0.1261
   84CHL1   C22 8678   2.999  -0.021  19.148 -0.0929 -0.3445  0.0467
   84CHL1  H22A 8679   3.062  -0.013  19.057  0.6625 -3.3755  0.1793
   84CHL1  H22B 8680   3.034  -0.113  19.199 -1.0218  0.5728  2.4919
   84CHL1   C23 8681   2.849  -0.054  19.124  0.4104 -0.4525  0.2681
   84CHL1  H23A 8682   2.810  -0.039  19.226 -0.3333  0.8248 -0.1813
   84CHL1  H23B 8683   2.793   0.021  19.064 -0.5720  1.0152  2.8759
   84CHL1   C24 8684   2.810  -0.191  19.061 -0.2227 -0.3268  0.2478
   84CHL1  H24A 8685   2.845  -0.180  18.956  3.6052 -1.6763  1.2112
   84CHL1  H24B 8686   2.862  -0.277  19.108 -0.9166 -0.3448  0.9999
   84CHL1   C25 8687   2.661  -0.210  19.063  0.2633 -0.6333 -0.5094
   84CHL1   H25 8688   2.633  -0.212  19.171  0.7990  3.1424 -0.1681
   84CHL1   C26 8689   2.570  -0.097  19.000  0.1129  0.0197 -0.2455
   84CHL1  H26A 8690   2.609   0.001  19.035  0.4688 -1.3782  3.6801
   84CHL1  H26B 8691   2.576  -0.119  18.891  1.2980 -2.5372  0.2547
   84CHL1  H26C 8692   2.463  -0.113  19.024  0.6484 -0.6328  1.9738
   84CHL1   C27 8693   2.628  -0.351  19.013  0.5418  1.0713 -0.0691
   84CHL1  H27A 8694   2.648  -0.359  18.904  0.9535 -1.5867  0.1364
   84CHL1  H27B 8695   2.682  -0.440  19.050 -2.6458 -1.3075 -0.6610
   84CHL1  H27C 8696   2.522  -0.372  19.039  0.6524  0.0724 -0.3869
   85CHL1    C3 8697   3.503   1.017  21.945  0.3953  0.5639 -0.1702
   85CHL1    H3 8698   3.478   0.915  21.907 -0.7515  0.3507  1.0681
   85CHL1    O3 8699   3.520   1.109  21.840  0.2793  0.3803  0.0776
   85CHL1   H3' 8700   3.446   1.112  21.779  0.6130  1.1506 -0.3117
   85CHL1    C4 8701   3.396   1.068  22.054 -0.3605  0.0076 -0.1387
   85CHL1   H4A 8702   3.428   1.171  22.077 -1.3698  0.1166  0.8430
   85CHL1   H4B 8703   3.296   1.073  22.005  0.0808  1.1168 -0.9471
   85CHL1    C5 8704   3.393   0.982  22.179  0.2890 -0.0270 -0.1363
   85CHL1    C6 8705   3.279   0.913  22.217  1.2905  0.3409  1.0264
   85CHL1    H6 8706   3.187   0.922  22.157  1.2057 -0.7837  0.9728
   85CHL1    C7 8707   3.278   0.827  22.341 -0.1990 -0.2450  0.3943
   85CHL1   H7A 8708   3.190   0.867  22.397  0.4327 -0.6159  1.6720
   85CHL1   H7B 8709   3.254   0.720  22.326  1.8756 -0.6316 -0.4302
   85CHL1    C8 8710   3.396   0.843  22.442  0.1483 -0.0193  0.4239
   85CHL1    H8 8711   3.376   0.942  22.487 -1.5803  0.0175 -0.3532
   85CHL1   C14 8712   3.396   0.720  22.540  0.0397  0.1900  1.2540
   85CHL1   H14 8713   3.421   0.637  22.470  0.4569  1.0610  0.3513
   85CHL1   C15 8714   3.269   0.694  22.612  1.1790 -0.6876 -0.0581
   85CHL1  H15A 8715   3.224   0.790  22.645  0.5975 -1.8764  3.0563
   85CHL1  H15B 8716   3.191   0.640  22.554  2.3097 -2.1115 -0.3068
   85CHL1   C16 8717   3.309   0.617  22.740 -0.6714 -0.7384 -0.7135
   85CHL1  H16A 8718   3.268   0.662  22.832  2.1447  0.5099  0.0438
   85CHL1  H16B 8719   3.276   0.512  22.724 -1.2911 -0.4666 -1.2848
   85CHL1   C17 8720   3.466   0.610  22.731 -0.2783  0.4544 -0.3474
   85CHL1   H17 8721   3.484   0.510  22.684 -0.1262  0.5522 -0.4995
   85CHL1   C13 8722   3.503   0.731  22.644  0.2551  0.8097  0.0761
   85CHL1   C18 8723   3.484   0.860  22.725  0.0860 -0.4537 -0.1956
   85CHL1  H18A 8724   3.480   0.956  22.670  1.5439 -0.7762 -0.8899
   85CHL1  H18B 8725   3.390   0.854  22.785 -0.4576 -1.1028 -1.0927
   85CHL1  H18C 8726   3.562   0.876  22.802 -1.9489  2.0260  1.5442
   85CHL1   C12 8727   3.638   0.730  22.575 -0.2011 -0.5175  0.1166
   85CHL1  H12A 8728   3.719   0.749  22.648  0.7717 -0.0018 -1.0742
   85CHL1  H12B 8729   3.663   0.635  22.525 -0.0187  0.4049 -1.6164
   85CHL1   C11 8730   3.644   0.845  22.468 -0.1529  1.1277 -0.2080
   85CHL1  H11A 8731   3.660   0.944  22.516  0.7033  1.6908 -1.5956
   85CHL1  H11B 8732   3.733   0.847  22.402 -0.8461  1.0951 -1.1550
   85CHL1    C9 8733   3.526   0.848  22.369  0.8390 -0.1629  0.1116
   85CHL1    H9 8734   3.525   0.757  22.305  2.1491 -0.1338  0.0242
   85CHL1   C10 8735   3.528   0.960  22.252  0.4300 -0.2455  0.8124
   85CHL1   C19 8736   3.567   1.091  22.325  0.2006  0.2723 -1.1615
   85CHL1  H19A 8737   3.669   1.080  22.367 -0.4302  0.9774  0.6472
   85CHL1  H19B 8738   3.568   1.174  22.251 -1.3451  2.1101  0.7641
   85CHL1  H19C 8739   3.498   1.120  22.407  1.1801  1.4044 -0.7093
   85CHL1    C1 8740   3.631   0.911  22.140  0.6397 -0.0668  0.1983
   85CHL1   H1A 8741   3.730   0.913  22.190 -0.9711  4.4948  3.9123
   85CHL1   H1B 8742   3.615   0.803  22.123 -0.3915 -0.1152  1.3465
   85CHL1    C2 8743   3.639   0.994  22.008 -0.6319 -0.2255  0.7395
   85CHL1   H2A 8744   3.704   0.957  21.926 -0.4408  3.5062 -0.9805
   85CHL1   H2B 8745   3.676   1.097  22.026 -1.0447 -0.1879  1.4356
   85CHL1   C20 8746   3.529   0.598  22.872  0.1736 -0.3866  0.9053
   85CHL1   H20 8747   3.498   0.694  22.917 -1.1293 -1.2658  1.9853
   85CHL1   C21 8748   3.677   0.580  22.862 -0.6735  0.7068  0.5083
   85CHL1  H21A 8749   3.710   0.528  22.771 -1.4780  3.0785 -1.2535
   85CHL1  H21B 8750   3.723   0.535  22.953  3.1365 -0.5512 -1.8512
   85CHL1  H21C 8751   3.736   0.675  22.863  1.5239 -0.5938  0.4897
   85CHL1   C22 8752   3.462   0.486  22.958  0.5769 -0.0236  0.4437
   85CHL1  H22A 8753   3.353   0.501  22.974  0.6615  1.5594 -0.3171
   85CHL1  H22B 8754   3.484   0.387  22.913 -1.2393 -1.5909  2.7711
   85CHL1   C23 8755   3.518   0.472  23.097  0.2042  0.2215 -0.3605
   85CHL1  H23A 8756   3.592   0.389  23.092 -2.9747 -3.0278  1.5334
   85CHL1  H23B 8757   3.561   0.564  23.143 -1.9572 -0.5402  3.5772
   85CHL1   C24 8758   3.410   0.421  23.202 -0.1152 -0.9262 -0.5585
   85CHL1  H24A 8759   3.345   0.510  23.216  0.3134 -0.5517 -0.8776
   85CHL1  H24B 8760   3.351   0.335  23.164 -1.5612 -0.1903 -0.0607
   85CHL1   C25 8761   3.470   0.376  23.337 -0.1637 -0.3097  0.5860
   85CHL1   H25 8762   3.507   0.469  23.385  0.4481 -1.0042  1.5092
   85CHL1   C26 8763   3.357   0.320  23.420 -0.0127  0.3507  0.0261
   85CHL1  H26A 8764   3.382   0.281  23.521 -1.4911 -0.6944  0.0071
   85CHL1  H26B 8765   3.290   0.404  23.446 -0.3679 -0.1326  0.7008
   85CHL1  H26C 8766   3.304   0.236  23.371  1.2005 -0.5359  0.1854
   85CHL1   C27 8767   3.594   0.283  23.313  0.7853 -0.5004  0.6364
   85CHL1  H27A 8768   3.642   0.256  23.410  2.4360 -0.6383 -0.1867
   85CHL1  H27B 8769   3.570   0.193  23.252 -0.6497  2.0358 -2.8447
   85CHL1  H27C 8770   3.673   0.338  23.258 -1.4945  1.1850 -1.1369
   86CHL1    C3 8771   2.348   1.259  19.130 -0.4701 -0.0547  0.1942
   86CHL1    H3 8772   2.438   1.205  19.093 -0.6061 -0.3460  0.2826
   86CHL1    O3 8773   2.372   1.399  19.144 -0.2173  0.3949 -0.0598
   86CHL1   H3' 8774   2.282   1.430  19.153 -0.9408 -1.0187 -1.8307
   86CHL1    C4 8775   2.236   1.251  19.027  0.0039  1.3934  0.2332
   86CHL1   H4A 8776   2.153   1.307  19.074  0.1330  0.8648  1.1204
   86CHL1   H4B 8777   2.283   1.301  18.939  0.5320  1.3232  0.4670
   86CHL1    C5 8778   2.187   1.112  19.005 -0.6385 -0.5827 -0.5096
   86CHL1    C6 8779   2.180   1.063  18.885  0.2353  0.1250 -0.0758
   86CHL1    H6 8780   2.223   1.124  18.804 -2.8604 -0.8618 -2.6691
   86CHL1    C7 8781   2.110   0.938  18.846 -0.1045  0.3848 -0.5656
   86CHL1   H7A 8782   2.031   0.962  18.772 -2.0988 -0.9278  1.0385
   86CHL1   H7B 8783   2.173   0.868  18.787 -0.2499  0.1888 -0.4890
   86CHL1    C8 8784   2.029   0.872  18.968 -0.5109  0.1604  0.4933
   86CHL1    H8 8785   1.936   0.930  18.984 -1.3514 -1.4955  2.0450
   86CHL1   C14 8786   1.999   0.727  18.939 -0.5913 -0.3545 -0.1321
   86CHL1   H14 8787   2.102   0.686  18.930 -0.3815 -0.7120  2.9150
   86CHL1   C15 8788   1.915   0.686  18.813  0.2366 -0.2202 -0.1429
   86CHL1  H15A 8789   1.827   0.754  18.814  0.4556  0.0898 -0.8868
   86CHL1  H15B 8790   1.975   0.703  18.720 -0.2545 -0.2865 -0.4745
   86CHL1   C16 8791   1.878   0.536  18.824 -0.2416 -0.0708 -0.1486
   86CHL1  H16A 8792   1.772   0.515  18.798  0.2771 -3.4157  0.0445
   86CHL1  H16B 8793   1.939   0.483  18.749 -0.0107 -0.3146  0.2084
   86CHL1   C17 8794   1.915   0.506  18.973  0.5812  0.6010 -0.4402
   86CHL1   H17 8795   2.018   0.464  18.975  1.0092  1.6323  1.4636
   86CHL1   C13 8796   1.935   0.640  19.052 -0.7785  0.1240  0.2969
   86CHL1   C18 8797   1.802   0.700  19.080 -0.1151 -0.2017  0.4737
   86CHL1  H18A 8798   1.742   0.639  19.151  0.6596  0.0308  1.3481
   86CHL1  H18B 8799   1.801   0.804  19.120 -1.4361  0.3959 -1.0197
   86CHL1  H18C 8800   1.739   0.713  18.989 -1.7157 -0.3215  1.5372
   86CHL1   C12 8801   2.033   0.647  19.174  0.0939 -0.4835 -0.7890
   86CHL1  H12A 8802   1.991   0.589  19.259  1.4228 -1.4353 -0.7479
   86CHL1  H12B 8803   2.124   0.599  19.133  0.6792  1.5244 -1.9562
   86CHL1   C11 8804   2.059   0.794  19.210  0.4395  0.5244  0.5641
   86CHL1  H11A 8805   1.960   0.838  19.236  0.3943  1.4633 -1.0318
   86CHL1  H11B 8806   2.123   0.805  19.299  0.3891 -3.0672  1.2083
   86CHL1    C9 8807   2.115   0.886  19.095 -0.5731  0.0067  0.2234
   86CHL1    H9 8808   2.215   0.852  19.062  0.0567 -0.7900  2.7118
   86CHL1   C10 8809   2.143   1.036  19.138  0.5599 -0.3706  0.9807
   86CHL1   C19 8810   2.022   1.094  19.208  0.5744  0.0704 -0.6457
   86CHL1  H19A 8811   2.011   1.203  19.193  0.3954  0.2861  0.8380
   86CHL1  H19B 8812   1.931   1.069  19.149  1.0837 -1.3701 -0.8666
   86CHL1  H19C 8813   2.002   1.061  19.313 -1.6360  0.6563 -0.8193
   86CHL1    C1 8814   2.263   1.049  19.233 -0.0951 -1.1705  0.1771
   86CHL1   H1A 8815   2.231   1.005  19.330 -3.0006 -1.6815 -0.9103
   86CHL1   H1B 8816   2.346   0.982  19.200 -0.6302 -2.1060  0.6925
   86CHL1    C2 8817   2.307   1.195  19.255 -0.3780  0.5146 -0.4130
   86CHL1   H2A 8818   2.384   1.191  19.335 -0.8150  0.1912 -0.0010
   86CHL1   H2B 8819   2.226   1.254  19.303  0.2463  1.5219 -0.5851
   86CHL1   C20 8820   1.824   0.405  19.026  0.3287  0.4944  0.5327
   86CHL1   H20 8821   1.722   0.444  19.045  0.6437  0.7713  1.7944
   86CHL1   C21 8822   1.871   0.337  19.159  0.4853  0.0648 -0.1955
   86CHL1  H21A 8823   1.800   0.256  19.187 -1.6727  1.1970 -2.0552
   86CHL1  H21B 8824   1.888   0.409  19.241 -0.2049 -0.2056  0.1941
   86CHL1  H21C 8825   1.977   0.308  19.143  0.2969 -0.3433 -0.7395
   86CHL1   C22 8826   1.805   0.277  18.931 -0.4117 -0.0195  0.5512
   86CHL1  H22A 8827   1.737   0.306  18.847 -1.9666 -1.6025  1.1977
   86CHL1  H22B 8828   1.897   0.255  18.874 -0.5927  0.7051 -0.0508
   86CHL1   C23 8829   1.740   0.153  18.984 -0.2727  0.5215 -0.5424
   86CHL1  H23A 8830   1.825   0.095  19.027 -2.3382 -0.1116  2.9806
   86CHL1  H23B 8831   1.655   0.165  19.054 -0.1030 -3.6292  0.6312
   86CHL1   C24 8832   1.671   0.076  18.874  0.5025  0.4503 -0.2097
   86CHL1  H24A 8833   1.595   0.139  18.824  1.7635  1.1775 -1.2811
   86CHL1  H24B 8834   1.752   0.060  18.799  1.0586 -1.6366  0.7492
   86CHL1   C25 8835   1.610  -0.068  18.905 -0.3703 -0.1931 -0.0955
   86CHL1   H25 8836   1.541  -0.054  18.990 -1.8473  0.8110 -1.3991
   86CHL1   C26 8837   1.523  -0.121  18.792  0.1028  0.7294 -0.1876
   86CHL1  H26A 8838   1.588  -0.158  18.710  1.4660  3.9533 -0.7002
   86CHL1  H26B 8839   1.469  -0.211  18.828 -0.6219  0.6666 -1.3610
   86CHL1  H26C 8840   1.441  -0.059  18.750 -3.1309 -2.8753  0.2071
   86CHL1   C27 8841   1.710  -0.163  18.938 -0.5018  1.0969  0.4466
   86CHL1  H27A 8842   1.666  -0.244  19.001  0.3890  0.1992 -0.0602
   86CHL1  H27B 8843   1.758  -0.197  18.844 -2.3743  2.2519 -1.0052
   86CHL1  H27C 8844   1.787  -0.115  19.002 -0.0915 -0.7352  1.3727
   87CHL1    C3 8845   2.927   2.807  19.507  0.4065 -0.4241 -0.1919
   87CHL1    H3 8846   2.985   2.869  19.435  0.4897  0.5095  0.6524
   87CHL1    O3 8847   2.907   2.680  19.455 -0.4342  0.3477  0.1368
   87CHL1   H3' 8848   2.890   2.620  19.528  2.7628  1.4054  1.9585
   87CHL1    C4 8849   3.010   2.803  19.643  1.0764 -0.5450 -0.7730
   87CHL1   H4A 8850   2.952   2.728  19.702 -0.8948  1.6110  0.1675
   87CHL1   H4B 8851   3.110   2.763  19.615  1.6548  1.0559 -1.0659
   87CHL1    C5 8852   3.022   2.927  19.724  0.2540 -0.4606 -0.1398
   87CHL1    C6 8853   3.137   2.980  19.764 -0.0914 -0.2018 -0.2642
   87CHL1    H6 8854   3.236   2.934  19.745  0.1810 -0.3672  1.3427
   87CHL1    C7 8855   3.151   3.108  19.839 -0.9909 -0.4383  0.0121
   87CHL1   H7A 8856   3.214   3.087  19.928 -1.0963  0.6137  0.3531
   87CHL1   H7B 8857   3.203   3.176  19.768  1.3498 -0.7788  1.3118
   87CHL1    C8 8858   3.014   3.172  19.892  0.2580 -0.1056  0.3080
   87CHL1    H8 8859   2.990   3.134  19.993 -0.7268 -0.4462 -0.0397
   87CHL1   C14 8860   3.024   3.329  19.911  0.3688 -0.1781 -0.0500
   87CHL1   H14 8861   3.036   3.378  19.812 -1.9647  0.3141 -0.1405
   87CHL1   C15 8862   3.145   3.386  19.980 -1.0637 -0.4234 -0.5188
   87CHL1  H15A 8863   3.167   3.335  20.077  1.7982 -0.9469 -1.3497
   87CHL1  H15B 8864   3.237   3.370  19.919  0.4769  0.4403  1.4343
   87CHL1   C16 8865   3.117   3.531  20.000  0.0629  0.2926  0.1418
   87CHL1  H16A 8866   3.146   3.559  20.103 -0.5838 -0.5981  0.5807
   87CHL1  H16B 8867   3.172   3.592  19.926 -1.6349  0.0460 -1.3999
   87CHL1   C17 8868   2.975   3.553  19.959  0.4957 -0.4273 -0.0954
   87CHL1   H17 8869   2.971   3.581  19.852  0.6332  0.6776  0.1761
   87CHL1   C13 8870   2.907   3.412  19.964 -0.2327 -0.7269 -0.0776
   87CHL1   C18 8871   2.881   3.369  20.103  0.2633 -0.0766 -0.6892
   87CHL1  H18A 8872   2.813   3.442  20.151  1.0594 -1.6056  3.0793
   87CHL1  H18B 8873   2.845   3.264  20.108  1.2367 -0.4028 -0.2391
   87CHL1  H18C 8874   2.971   3.363  20.168  0.6195 -1.3427 -1.2523
   87CHL1   C12 8875   2.796   3.379  19.867  0.5381  0.0786  0.1292
   87CHL1  H12A 8876   2.697   3.426  19.885  0.3212 -0.5725  0.7036
   87CHL1  H12B 8877   2.831   3.415  19.768  2.1074 -0.2703  0.5305
   87CHL1   C11 8878   2.770   3.228  19.839  0.3727 -0.3090 -0.2247
   87CHL1  H11A 8879   2.732   3.188  19.936 -0.6258  1.7973  0.3193
   87CHL1  H11B 8880   2.699   3.240  19.754  2.7266  1.5004 -2.0797
   87CHL1    C9 8881   2.901   3.143  19.797  0.1467 -0.7912  0.0897
   87CHL1    H9 8882   2.947   3.199  19.712  1.3319 -1.8599  0.0097
   87CHL1   C10 8883   2.884   3.001  19.736 -0.5790  0.2738 -0.1397
   87CHL1   C19 8884   2.794   2.930  19.845  0.1759 -1.1776 -0.3356
   87CHL1  H19A 8885   2.765   2.826  19.818  0.3245 -1.0749 -0.9104
   87CHL1  H19B 8886   2.848   2.933  19.942  0.4651  1.5758 -0.4983
   87CHL1  H19C 8887   2.695   2.978  19.862  0.3490 -1.2491  0.9401
   87CHL1    C1 8888   2.816   3.014  19.597 -1.0021  0.2485 -0.1762
   87CHL1   H1A 8889   2.718   3.065  19.603 -2.4926 -2.3622 -0.7767
   87CHL1   H1B 8890   2.887   3.074  19.536  0.3669 -0.6072  0.5297
   87CHL1    C2 8891   2.793   2.881  19.520  0.2552  0.1336  0.7137
   87CHL1   H2A 8892   2.745   2.878  19.419  3.7053  0.1462 -1.0660
   87CHL1   H2B 8893   2.735   2.819  19.591 -1.7232  3.1522  1.9158
   87CHL1   C20 8894   2.913   3.664  20.042  0.0619 -0.0317  0.0992
   87CHL1   H20 8895   2.893   3.627  20.145  1.0067 -2.0946 -0.4022
   87CHL1   C21 8896   2.778   3.694  19.984  0.2337 -0.3035 -0.5283
   87CHL1  H21A 8897   2.791   3.722  19.877 -2.2987  1.0211 -0.5631
   87CHL1  H21B 8898   2.724   3.774  20.039 -1.5888 -0.4009 -2.0786
   87CHL1  H21C 8899   2.703   3.612  19.979 -2.9710  2.4998 -3.1911
   87CHL1   C22 8900   2.995   3.793  20.055 -0.1672 -0.9329  0.8588
   87CHL1  H22A 8901   3.049   3.810  19.960 -1.1563 -1.4180  0.1849
   87CHL1  H22B 8902   2.926   3.880  20.060 -0.2677 -0.9261 -0.2753
   87CHL1   C23 8903   3.084   3.800  20.184  0.3054  0.3162  0.3147
   87CHL1  H23A 8904   3.048   3.722  20.254 -0.9740  1.2686  0.7409
   87CHL1  H23B 8905   3.187   3.769  20.154  0.7747  1.8958  0.1815
   87CHL1   C24 8906   3.103   3.938  20.239 -0.5327 -0.0139 -0.5189
   87CHL1  H24A 8907   3.120   4.006  20.153  1.5403 -3.1166 -2.7863
   87CHL1  H24B 8908   3.005   3.967  20.282 -0.6896 -1.1234 -0.1097
   87CHL1   C25 8909   3.224   3.946  20.336  0.0259 -0.6282 -1.2893
   87CHL1   H25 8910   3.319   3.914  20.287  1.2444 -0.7391  1.0151
   87CHL1   C26 8911   3.246   4.091  20.381 -0.2881 -0.1769  0.1094
   87CHL1  H26A 8912   3.258   4.158  20.293 -2.4800  1.1328  0.7200
   87CHL1  H26B 8913   3.162   4.126  20.445  0.1259  0.8719  0.0971
   87CHL1  H26C 8914   3.333   4.086  20.449 -0.3941  0.8812  0.3384
   87CHL1   C27 8915   3.190   3.855  20.459 -0.0606  0.0473 -0.3628
   87CHL1  H27A 8916   3.095   3.889  20.505 -0.3670  0.6487 -1.3995
   87CHL1  H27B 8917   3.199   3.751  20.422  4.2365  0.4861 -1.1419
   87CHL1  H27C 8918   3.255   3.882  20.546  0.2724  0.8807 -0.8520
   88CHL1    C3 8919   3.415   2.705  21.348 -0.6220  0.5697  0.5049
   88CHL1    H3 8920   3.475   2.638  21.413 -0.3211  0.7993  0.4616
   88CHL1    O3 8921   3.386   2.629  21.236  0.2227  0.3763  0.0319
   88CHL1   H3' 8922   3.365   2.685  21.161  0.8464 -0.1203 -0.5292
   88CHL1    C4 8923   3.275   2.737  21.417 -0.1087 -0.1518  0.1811
   88CHL1   H4A 8924   3.194   2.774  21.352 -1.5027  0.0474  1.9412
   88CHL1   H4B 8925   3.242   2.636  21.449  1.5171 -1.0939 -0.9887
   88CHL1    C5 8926   3.287   2.829  21.536 -0.5294 -0.2593 -0.1814
   88CHL1    C6 8927   3.238   2.783  21.658  0.1710  0.1747 -0.4794
   88CHL1    H6 8928   3.179   2.691  21.664 -1.4946  1.2134 -0.3730
   88CHL1    C7 8929   3.251   2.871  21.780  0.5813 -0.4445 -0.1886
   88CHL1   H7A 8930   3.153   2.871  21.832  0.8924 -2.1988  0.4654
   88CHL1   H7B 8931   3.327   2.825  21.846 -1.1611 -2.4795  0.4736
   88CHL1    C8 8932   3.276   3.027  21.742  0.0641  0.0539  0.5935
   88CHL1    H8 8933   3.181   3.063  21.697  0.2499 -2.1264 -1.7918
   88CHL1   C14 8934   3.312   3.113  21.862 -0.5270  0.0614 -0.8675
   88CHL1   H14 8935   3.414   3.077  21.887 -0.1469  0.8545 -1.2561
   88CHL1   C15 8936   3.216   3.114  21.985  0.6051  0.6551  0.2678
   88CHL1  H15A 8937   3.112   3.138  21.955  0.3537  0.5693  1.0513
   88CHL1  H15B 8938   3.210   3.022  22.047  1.4844  1.2036  1.2037
   88CHL1   C16 8939   3.257   3.239  22.066  0.5377 -0.1292  0.0732
   88CHL1  H16A 8940   3.172   3.310  22.072  2.7074  2.5535  0.7033
   88CHL1  H16B 8941   3.293   3.203  22.164 -2.2370  0.7021  1.4976
   88CHL1   C17 8942   3.368   3.317  21.980  0.2505  0.4354  0.6209
   88CHL1   H17 8943   3.464   3.275  22.015  0.0470 -1.4927 -0.9853
   88CHL1   C13 8944   3.346   3.262  21.833  0.3794  0.8182  0.6370
   88CHL1   C18 8945   3.223   3.324  21.768  1.0124 -0.1690  0.3556
   88CHL1  H18A 8946   3.187   3.279  21.673  1.5303 -0.2749  0.2071
   88CHL1  H18B 8947   3.130   3.326  21.828 -1.3787  4.5800 -2.8439
   88CHL1  H18C 8948   3.252   3.430  21.750 -0.4003  0.1677 -0.0672
   88CHL1   C12 8949   3.464   3.257  21.734  0.5485  0.4629  0.7262
   88CHL1  H12A 8950   3.493   3.361  21.710  0.5859  0.8377  2.2995
   88CHL1  H12B 8951   3.554   3.217  21.786 -1.0346 -1.5659  2.0885
   88CHL1   C11 8952   3.447   3.177  21.608  0.0514  0.3282 -0.3091
   88CHL1  H11A 8953   3.372   3.237  21.551 -2.2897 -1.8325  0.3161
   88CHL1  H11B 8954   3.538   3.176  21.545  1.0887  1.9098  1.0683
   88CHL1    C9 8955   3.391   3.031  21.640  0.4457 -0.0308  0.2390
   88CHL1    H9 8956   3.471   2.976  21.694 -1.1511 -0.2644  2.5006
   88CHL1   C10 8957   3.362   2.953  21.504  0.4727 -0.6402 -0.9854
   88CHL1   C19 8958   3.275   3.041  21.427  0.8921 -0.1664  0.5674
   88CHL1  H19A 8959   3.185   3.076  21.482  1.5177  3.3549 -0.4178
   88CHL1  H19B 8960   3.327   3.130  21.387  0.2995 -0.3674 -0.6684
   88CHL1  H19C 8961   3.236   2.981  21.342 -3.4736 -2.7333  3.9559
   88CHL1    C1 8962   3.500   2.916  21.440 -0.6662 -0.3946 -0.1767
   88CHL1   H1A 8963   3.558   3.009  21.424  1.6604 -1.6677  0.4300
   88CHL1   H1B 8964   3.553   2.850  21.512  0.5383 -0.2544 -0.9212
   88CHL1    C2 8965   3.503   2.825  21.317 -0.5968 -0.7636 -0.0797
   88CHL1   H2A 8966   3.609   2.792  21.302 -0.5415 -1.8844  2.3209
   88CHL1   H2B 8967   3.460   2.883  21.233  0.3088 -1.9430 -1.4146
   88CHL1   C20 8968   3.366   3.466  21.999 -0.1495  0.2072 -0.1078
   88CHL1   H20 8969   3.264   3.488  21.959 -0.6781 -0.9169  0.5732
   88CHL1   C21 8970   3.483   3.525  21.924 -0.4085  0.2793  0.4444
   88CHL1  H21A 8971   3.573   3.460  21.931 -1.1945 -0.7412  1.4206
   88CHL1  H21B 8972   3.523   3.618  21.970  0.4042 -0.3833  1.1209
   88CHL1  H21C 8973   3.464   3.527  21.815  0.8732 -1.7289  0.1339
   88CHL1   C22 8974   3.376   3.523  22.151 -0.4262  0.1778  0.9487
   88CHL1  H22A 8975   3.310   3.467  22.221 -2.9266  2.0471  0.2017
   88CHL1  H22B 8976   3.479   3.494  22.181 -0.4464 -1.1251 -0.1282
   88CHL1   C23 8977   3.366   3.676  22.170  0.3309 -0.2786 -0.9916
   88CHL1  H23A 8978   3.352   3.684  22.280 -1.5177 -3.3170 -0.8657
   88CHL1  H23B 8979   3.457   3.736  22.150  1.1178 -1.2096 -0.2515
   88CHL1   C24 8980   3.250   3.744  22.104 -0.2878 -0.5408 -0.8801
   88CHL1  H24A 8981   3.245   3.728  21.994 -0.0105  1.5051 -1.2256
   88CHL1  H24B 8982   3.163   3.695  22.153  1.0375 -0.2433  1.9855
   88CHL1   C25 8983   3.239   3.893  22.124 -0.3488 -0.4688 -0.0239
   88CHL1   H25 8984   3.342   3.929  22.102  0.2359  0.0600  3.0295
   88CHL1   C26 8985   3.136   3.950  22.022 -1.5341 -0.5484 -0.1457
   88CHL1  H26A 8986   3.143   4.061  22.025  0.7216 -0.4893 -2.8865
   88CHL1  H26B 8987   3.175   3.925  21.921 -0.1697 -0.3741  0.3165
   88CHL1  H26C 8988   3.032   3.915  22.035 -1.5636 -1.1178 -1.6543
   88CHL1   C27 8989   3.200   3.939  22.274 -0.0588 -0.4012 -0.7691
   88CHL1  H27A 8990   3.217   4.048  22.290  1.3561 -0.4043 -2.0547
   88CHL1  H27B 8991   3.096   3.903  22.292  0.3678 -1.7901 -0.9853
   88CHL1  H27C 8992   3.271   3.901  22.350 -0.0061  0.5684 -0.3136
   89CHL1    C3 8993   0.820   1.339  18.854  0.2339 -0.2423  0.6740
   89CHL1    H3 8994   0.719   1.294  18.858  1.4573 -3.4267 -0.7901
   89CHL1    O3 8995   0.805   1.467  18.801 -0.4854 -0.0642 -0.7453
   89CHL1   H3' 8996   0.868   1.521  18.850 -2.9774  0.6708  1.8995
   89CHL1    C4 8997   0.874   1.338  18.997  0.0483  0.1642 -0.3350
   89CHL1   H4A 8998   0.977   1.377  19.006 -0.2591  0.9310 -0.1304
   89CHL1   H4B 8999   0.797   1.401  19.046 -0.3357  1.8400 -2.8872
   89CHL1    C5 9000   0.864   1.202  19.063  0.0757  0.2209 -0.0820
   89CHL1    C6 9001   0.785   1.177  19.177 -0.3643  0.1727  0.5295
   89CHL1    H6 9002   0.729   1.263  19.218  0.6001  0.9936  0.1607
   89CHL1    C7 9003   0.783   1.046  19.238  0.1293  0.0397 -0.8224
   89CHL1   H7A 9004   0.800   1.052  19.348 -0.7419 -0.4537 -0.6460
   89CHL1   H7B 9005   0.686   0.994  19.223  0.2857 -1.0042  1.3975
   89CHL1    C8 9006   0.892   0.940  19.194 -0.5592 -0.9580  0.6593
   89CHL1    H8 9007   0.986   0.971  19.245 -0.8778  1.1936  0.0413
   89CHL1   C14 9008   0.852   0.804  19.234 -0.9625 -0.3261 -0.3143
   89CHL1   H14 9009   0.755   0.781  19.186 -2.0415 -0.2595  1.7262
   89CHL1   C15 9010   0.826   0.769  19.384  0.5474  0.0407 -1.0525
   89CHL1  H15A 9011   0.908   0.815  19.443  1.7154  1.1085 -3.3835
   89CHL1  H15B 9012   0.725   0.813  19.400  0.3588 -0.5675 -0.4996
   89CHL1   C16 9013   0.836   0.620  19.390  0.6616 -1.0435 -0.1861
   89CHL1  H16A 9014   0.915   0.600  19.465 -1.9967  2.8391  4.1375
   89CHL1  H16B 9015   0.749   0.559  19.420  0.0130 -0.7397 -1.3541
   89CHL1   C17 9016   0.894   0.577  19.256  0.0817  0.0271  0.4215
   89CHL1   H17 9017   0.800   0.566  19.196 -0.8514  2.7410  1.2405
   89CHL1   C13 9018   0.950   0.701  19.196  0.3571  0.5946  0.2335
   89CHL1   C18 9019   1.090   0.732  19.259 -0.4909 -0.0489  0.0092
   89CHL1  H18A 9020   1.167   0.656  19.232  1.3763  1.1725  1.5950
   89CHL1  H18B 9021   1.131   0.829  19.224 -0.5792 -0.4421 -1.2539
   89CHL1  H18C 9022   1.104   0.722  19.369 -0.0828 -0.5781 -0.0881
   89CHL1   C12 9023   0.958   0.702  19.042  0.5142  0.4244  0.4822
   89CHL1  H12A 9024   1.032   0.630  19.001 -0.2505  0.4426 -0.9971
   89CHL1  H12B 9025   0.863   0.669  18.996  0.8615  0.0030  0.0544
   89CHL1   C11 9026   0.997   0.838  18.979 -0.1855 -0.4612 -0.0349
   89CHL1  H11A 9027   1.105   0.847  19.002 -0.1925  1.1665 -0.4728
   89CHL1  H11B 9028   0.987   0.829  18.869 -0.8355  0.5893 -0.0748
   89CHL1    C9 9029   0.910   0.952  19.042  0.5492  0.7733  0.3378
   89CHL1    H9 9030   0.810   0.935  18.997  1.3090 -2.9794 -0.2044
   89CHL1   C10 9031   0.948   1.099  18.986 -0.3718  0.4599 -0.7030
   89CHL1   C19 9032   1.105   1.124  19.016  0.2588  0.7163  0.0998
   89CHL1  H19A 9033   1.121   1.104  19.124  0.6921  0.5703  0.0111
   89CHL1  H19B 9034   1.161   1.049  18.956 -0.9704 -0.5071  0.4347
   89CHL1  H19C 9035   1.133   1.227  18.987  1.4874 -0.4627 -3.3806
   89CHL1    C1 9036   0.922   1.108  18.833 -0.1197  0.5635 -0.1597
   89CHL1   H1A 9037   1.016   1.062  18.795 -0.0806 -0.3789  1.0068
   89CHL1   H1B 9038   0.827   1.062  18.799  1.1571 -2.3916 -0.0399
   89CHL1    C2 9039   0.922   1.246  18.776  0.2765  0.1309  0.8315
   89CHL1   H2A 9040   0.867   1.239  18.679 -2.3102 -1.4592  2.2910
   89CHL1   H2B 9041   1.022   1.291  18.762  0.0409  0.4220  0.0247
   89CHL1   C20 9042   0.971   0.445  19.233  0.1514  0.3549  0.7341
   89CHL1   H20 9043   1.015   0.448  19.131 -0.5453  0.7974  0.4395
   89CHL1   C21 9044   0.868   0.326  19.220 -0.2602  0.0070  0.1545
   89CHL1  H21A 9045   0.916   0.226  19.232  0.1503 -0.1769 -2.4628
   89CHL1  H21B 9046   0.819   0.313  19.121  1.6484 -1.8630 -0.6427
   89CHL1  H21C 9047   0.792   0.339  19.300 -0.8968 -1.4956 -0.1639
   89CHL1   C22 9048   1.081   0.407  19.335 -0.3029  0.4036  0.2087
   89CHL1  H22A 9049   1.127   0.502  19.369  1.8523 -0.6666  0.4053
   89CHL1  H22B 9050   1.036   0.365  19.427 -0.1337  0.6855  0.4234
   89CHL1   C23 9051   1.194   0.319  19.284  0.3182 -0.3787 -0.0392
   89CHL1  H23A 9052   1.168   0.218  19.245  0.6180 -0.5366  0.1660
   89CHL1  H23B 9053   1.249   0.376  19.206  1.7963 -0.8037  0.6710
   89CHL1   C24 9054   1.288   0.295  19.401 -0.5296 -0.6159 -0.1503
   89CHL1  H24A 9055   1.296   0.386  19.463  0.9769 -0.4498 -0.5655
   89CHL1  H24B 9056   1.253   0.209  19.461  0.1238 -1.0485 -0.3759
   89CHL1   C25 9057   1.438   0.261  19.369  0.8815 -0.0729 -0.1000
   89CHL1   H25 9058   1.476   0.349  19.314  0.8519  0.0630  0.0965
   89CHL1   C26 9059   1.526   0.248  19.493  0.0259  0.0716  1.4722
   89CHL1  H26A 9060   1.503   0.334  19.560 -1.4362 -0.0431  1.1501
   89CHL1  H26B 9061   1.486   0.160  19.546 -0.4340 -1.1235 -0.7235
   89CHL1  H26C 9062   1.632   0.240  19.461 -0.4989 -0.9798 -0.1143
   89CHL1   C27 9063   1.441   0.139  19.277  0.0932 -1.0640  0.9692
   89CHL1  H27A 9064   1.397   0.054  19.335 -3.4412 -0.2444 -0.2173
   89CHL1  H27B 9065   1.388   0.145  19.179  3.5475  1.5029 -0.9504
   89CHL1  H27C 9066   1.546   0.124  19.246 -0.3966 -2.7063 -0.0238
   90CHL1    C3 9067   1.654   1.234  22.175 -0.4327  0.8275 -0.4288
   90CHL1    H3 9068   1.564   1.179  22.140 -0.2622  1.0253 -1.1989
   90CHL1    O3 9069   1.680   1.353  22.109 -0.0286 -0.7070  0.1257
   90CHL1   H3' 9070   1.749   1.401  22.156  0.5312 -2.5259  1.2399
   90CHL1    C4 9071   1.664   1.260  22.332  0.0402 -0.4812 -0.0865
   90CHL1   H4A 9072   1.760   1.315  22.343  0.9640 -1.8245 -1.0338
   90CHL1   H4B 9073   1.592   1.335  22.369 -0.5755 -1.6715  1.2546
   90CHL1    C5 9074   1.669   1.137  22.416 -0.6282  0.3885 -0.4313
   90CHL1    C6 9075   1.581   1.124  22.519  0.4369  0.8854  0.0281
   90CHL1    H6 9076   1.522   1.213  22.543 -2.2336 -1.1885  1.7222
   90CHL1    C7 9077   1.577   1.004  22.602 -0.2989  0.6903  0.2364
   90CHL1   H7A 9078   1.577   1.040  22.708  1.7204 -0.3945  0.6409
   90CHL1   H7B 9079   1.479   0.961  22.570 -0.3225  1.5776 -0.9485
   90CHL1    C8 9080   1.689   0.895  22.577 -0.5729  0.0271 -1.5102
   90CHL1    H8 9081   1.773   0.932  22.639 -2.1027 -0.4086  1.0021
   90CHL1   C14 9082   1.639   0.759  22.621 -0.4925  0.5208  0.2826
   90CHL1   H14 9083   1.557   0.727  22.553  0.0812 -2.9759  1.0422
   90CHL1   C15 9084   1.581   0.752  22.764  0.2453 -0.0007 -0.2335
   90CHL1  H15A 9085   1.639   0.806  22.842 -0.1131 -2.3050  1.7247
   90CHL1  H15B 9086   1.479   0.796  22.769 -0.6996 -2.1326  0.4825
   90CHL1   C16 9087   1.596   0.606  22.803 -0.3644  0.0031  0.2594
   90CHL1  H16A 9088   1.666   0.600  22.889 -0.8788  2.6333  0.9691
   90CHL1  H16B 9089   1.495   0.577  22.837 -1.3853  1.5936 -1.1876
   90CHL1   C17 9090   1.672   0.534  22.683 -0.1490  0.3829  0.1470
   90CHL1   H17 9091   1.590   0.492  22.621  0.6291  1.1644 -1.4675
   90CHL1   C13 9092   1.744   0.644  22.609  0.1958  0.6999 -0.2880
   90CHL1   C18 9093   1.861   0.693  22.686 -0.5568 -0.5174 -0.3345
   90CHL1  H18A 9094   1.907   0.780  22.633  0.5172 -0.4029  0.7690
   90CHL1  H18B 9095   1.844   0.721  22.792 -1.8556 -2.7885  0.1211
   90CHL1  H18C 9096   1.942   0.618  22.686  0.7385  0.7833  1.5866
   90CHL1   C12 9097   1.779   0.630  22.461  0.2024 -0.2126 -0.2381
   90CHL1  H12A 9098   1.870   0.566  22.454  1.6576  1.8673 -1.5990
   90CHL1  H12B 9099   1.688   0.587  22.414 -0.1111 -0.9075  0.9718
   90CHL1   C11 9100   1.815   0.766  22.390 -0.2388  0.2129 -0.6270
   90CHL1  H11A 9101   1.916   0.798  22.424 -1.2408 -0.0289  2.9494
   90CHL1  H11B 9102   1.820   0.754  22.279 -0.5558  2.8009 -0.9828
   90CHL1    C9 9103   1.719   0.879  22.427  0.1504 -0.2988 -0.2887
   90CHL1    H9 9104   1.622   0.854  22.380  0.3595  0.4684 -1.1689
   90CHL1   C10 9105   1.759   1.018  22.361  0.2224 -0.3889 -0.1966
   90CHL1   C19 9106   1.901   1.057  22.417 -0.9295 -0.2433  0.1619
   90CHL1  H19A 9107   1.976   0.980  22.387 -1.7011 -2.6737  3.8228
   90CHL1  H19B 9108   1.933   1.159  22.387 -3.5735  0.7589  0.4678
   90CHL1  H19C 9109   1.902   1.073  22.526  1.1758  0.8776  0.0255
   90CHL1    C1 9110   1.756   1.010  22.205 -0.6036  0.0792 -0.2081
   90CHL1   H1A 9111   1.841   0.947  22.172  1.2424  2.5330 -0.3842
   90CHL1   H1B 9112   1.660   0.962  22.176 -1.0669 -0.2068  1.6404
   90CHL1    C2 9113   1.781   1.144  22.144  0.4372  0.5801 -0.0732
   90CHL1   H2A 9114   1.790   1.128  22.034 -1.6783  1.7476 -0.4777
   90CHL1   H2B 9115   1.875   1.199  22.165  0.9772 -0.4787  0.3767
   90CHL1   C20 9116   1.748   0.417  22.748  0.3126 -0.1257 -0.9528
   90CHL1   H20 9117   1.831   0.455  22.812  1.0081 -3.0928  0.0760
   90CHL1   C21 9118   1.822   0.337  22.638 -0.2476  0.1634  0.7850
   90CHL1  H21A 9119   1.904   0.399  22.596 -0.6186  1.3734  1.7973
   90CHL1  H21B 9120   1.745   0.297  22.567 -1.2240 -1.0361  2.4403
   90CHL1  H21C 9121   1.867   0.245  22.681  1.1253 -0.0128 -0.9003
   90CHL1   C22 9122   1.645   0.331  22.841 -0.9178  0.1441  0.4393
   90CHL1  H22A 9123   1.540   0.363  22.859 -0.4971  1.5991  0.4762
   90CHL1  H22B 9124   1.619   0.253  22.766  0.4551 -0.6027  0.7115
   90CHL1   C23 9125   1.701   0.271  22.972 -1.0252 -0.8585  0.7697
   90CHL1  H23A 9126   1.798   0.222  22.947 -0.7469  0.4340 -0.8788
   90CHL1  H23B 9127   1.727   0.352  23.043 -1.4070  0.9870 -1.1102
   90CHL1   C24 9128   1.619   0.178  23.061 -0.4413 -0.2675 -0.3706
   90CHL1  H24A 9129   1.520   0.223  23.085  0.4368 -0.2451  3.8383
   90CHL1  H24B 9130   1.603   0.086  23.000  0.5256 -0.1123 -0.8810
   90CHL1   C25 9131   1.669   0.134  23.199  0.0410  0.0240 -0.1456
   90CHL1   H25 9132   1.688   0.221  23.267 -0.8641  0.3886 -0.3530
   90CHL1   C26 9133   1.556   0.069  23.275 -0.0980  0.1626 -0.0620
   90CHL1  H26A 9134   1.560  -0.039  23.248  0.6820 -0.3819  2.0609
   90CHL1  H26B 9135   1.584   0.075  23.382  1.4452  0.9001 -0.4693
   90CHL1  H26C 9136   1.454   0.112  23.270 -0.0171  0.4745  0.8118
   90CHL1   C27 9137   1.803   0.066  23.204 -0.3483  0.3534 -0.1367
   90CHL1  H27A 9138   1.880   0.139  23.170 -0.0476  1.3120  2.3295
   90CHL1  H27B 9139   1.836   0.016  23.298 -1.4559  0.5370  0.3663
   90CHL1  H27C 9140   1.804  -0.017  23.130  1.7060  0.5532 -0.4041
   91CHL1    C3 9141   0.731   2.747  21.781 -0.3479  1.1255  0.1093
   91CHL1    H3 9142   0.784   2.702  21.868  0.8763  3.1947  0.4969
   91CHL1    O3 9143   0.710   2.637  21.688  0.0974  0.3827 -0.4545
   91CHL1   H3' 9144   0.797   2.598  21.684  1.2139  2.6825 -0.4440
   91CHL1    C4 9145   0.596   2.806  21.830 -0.5837 -0.4889  0.3471
   91CHL1   H4A 9146   0.535   2.826  21.739 -0.4571  0.0709  0.3798
   91CHL1   H4B 9147   0.537   2.724  21.876 -0.5022  0.1985  1.7144
   91CHL1    C5 9148   0.600   2.924  21.921 -0.3004  0.4213 -0.6958
   91CHL1    C6 9149   0.540   2.926  22.042  0.6567 -0.1204  0.2201
   91CHL1    H6 9150   0.484   2.839  22.081 -1.0108  1.1957  0.8943
   91CHL1    C7 9151   0.540   3.045  22.139 -0.2975 -1.1515 -0.3897
   91CHL1   H7A 9152   0.438   3.068  22.177  0.8458  2.8367  0.7638
   91CHL1   H7B 9153   0.598   3.034  22.234  0.8529  2.4839 -0.5363
   91CHL1    C8 9154   0.603   3.174  22.074  0.7479 -0.5163 -0.3310
   91CHL1    H8 9155   0.534   3.219  21.999  2.4750  1.9998 -0.5220
   91CHL1   C14 9156   0.630   3.280  22.182 -0.4323  0.4914  0.6420
   91CHL1   H14 9157   0.705   3.232  22.250 -1.2651 -0.8412  0.6703
   91CHL1   C15 9158   0.519   3.315  22.279  0.0733  0.0449  0.2360
   91CHL1  H15A 9159   0.421   3.310  22.227  0.2364  0.1134 -0.0778
   91CHL1  H15B 9160   0.525   3.241  22.362  2.0447  1.4454  1.4271
   91CHL1   C16 9161   0.557   3.456  22.336  0.0390  0.4534  0.5107
   91CHL1  H16A 9162   0.469   3.524  22.329  1.5042  2.3312 -0.8401
   91CHL1  H16B 9163   0.587   3.442  22.442 -0.4540 -0.7097  0.5172
   91CHL1   C17 9164   0.684   3.504  22.255  0.2862  0.3412 -0.0412
   91CHL1   H17 9165   0.773   3.476  22.315 -0.7447 -0.2253  1.2547
   91CHL1   C13 9166   0.677   3.416  22.131 -0.3802  0.4682 -0.0471
   91CHL1   C18 9167   0.566   3.475  22.032  0.3299  0.7639  0.0111
   91CHL1  H18A 9168   0.605   3.563  21.976  0.0780  2.3368  2.2119
   91CHL1  H18B 9169   0.526   3.408  21.953  0.1623  1.8889 -0.8850
   91CHL1  H18C 9170   0.480   3.512  22.091  1.1254  0.3501  1.4578
   91CHL1   C12 9171   0.802   3.396  22.037 -0.5162 -0.7356 -0.9587
   91CHL1  H12A 9172   0.842   3.488  21.989 -1.6453  1.4166  1.9115
   91CHL1  H12B 9173   0.880   3.359  22.107 -1.6430 -0.7244  0.3493
   91CHL1   C11 9174   0.771   3.291  21.930  0.2837  0.2349  0.2425
   91CHL1  H11A 9175   0.707   3.344  21.856  1.0737  0.0876 -0.5694
   91CHL1  H11B 9176   0.858   3.261  21.867  0.5597  1.4329  0.0356
   91CHL1    C9 9177   0.722   3.151  21.986  0.7986  0.7870 -0.0923
   91CHL1    H9 9178   0.799   3.107  22.053  2.2717 -1.0420 -2.8040
   91CHL1   C10 9179   0.691   3.041  21.879  0.1938 -0.3139  0.1481
   91CHL1   C19 9180   0.634   3.112  21.752  0.7340 -0.1571 -0.9931
   91CHL1  H19A 9181   0.602   3.034  21.679 -2.4043 -0.5757  0.6616
   91CHL1  H19B 9182   0.543   3.171  21.774  1.0363 -0.0577  0.0635
   91CHL1  H19C 9183   0.708   3.179  21.703  1.6394  0.2869  0.8761
   91CHL1    C1 9184   0.827   2.975  21.841 -0.6124 -0.7325 -1.0811
   91CHL1   H1A 9185   0.880   3.052  21.782  0.9163 -1.8997 -1.3299
   91CHL1   H1B 9186   0.878   2.949  21.937 -2.1455 -0.3253 -0.1252
   91CHL1    C2 9187   0.823   2.856  21.741 -0.1337  0.6205  0.3009
   91CHL1   H2A 9188   0.928   2.824  21.727 -0.1617  0.4499  0.4664
   91CHL1   H2B 9189   0.800   2.901  21.642 -0.0084  2.4083  1.0477
   91CHL1   C20 9190   0.687   3.659  22.243 -0.2234 -0.5270 -0.0679
   91CHL1   H20 9191   0.601   3.691  22.181 -0.3451  2.0180  1.2702
   91CHL1   C21 9192   0.826   3.704  22.191 -0.9265 -0.8036 -0.3109
   91CHL1  H21A 9193   0.909   3.674  22.258 -1.2249 -0.9887 -0.0209
   91CHL1  H21B 9194   0.834   3.815  22.184 -2.2330 -0.7261 -0.8670
   91CHL1  H21C 9195   0.845   3.654  22.094  0.5050 -1.0080  0.0568
   91CHL1   C22 9196   0.672   3.724  22.384 -0.2484 -0.1252 -0.6618
   91CHL1  H22A 9197   0.572   3.700  22.427  1.0454 -1.0120  2.0843
   91CHL1  H22B 9198   0.755   3.681  22.443 -1.3119  0.1397  1.1318
   91CHL1   C23 9199   0.673   3.873  22.373 -0.4968  0.1977  0.3061
   91CHL1  H23A 9200   0.777   3.911  22.364  1.2676 -3.7886  1.3239
   91CHL1  H23B 9201   0.619   3.909  22.283 -1.2628 -0.0039  0.6757
   91CHL1   C24 9202   0.612   3.949  22.494 -0.6294  0.6340  0.2854
   91CHL1  H24A 9203   0.508   3.910  22.496 -2.0484  3.7689 -2.4156
   91CHL1  H24B 9204   0.660   3.928  22.592 -3.1823  0.6792  1.6420
   91CHL1   C25 9205   0.593   4.104  22.487 -0.2406  0.3356  0.2970
   91CHL1   H25 9206   0.528   4.137  22.570 -1.1744  1.4631 -0.8299
   91CHL1   C26 9207   0.725   4.182  22.491 -0.3248 -0.3093 -0.4003
   91CHL1  H26A 9208   0.792   4.183  22.402  2.7005  2.7349  1.6780
   91CHL1  H26B 9209   0.696   4.283  22.527  1.4692 -0.3662  1.3425
   91CHL1  H26C 9210   0.793   4.155  22.574 -0.7748  1.6702  0.6759
   91CHL1   C27 9211   0.498   4.150  22.369  0.0878  0.5317 -0.2877
   91CHL1  H27A 9212   0.506   4.261  22.377 -1.5818  0.5470  2.9149
   91CHL1  H27B 9213   0.534   4.111  22.272 -0.8657 -0.1675 -0.3739
   91CHL1  H27C 9214   0.389   4.127  22.373  0.7939 -3.6772 -0.6287
   92CHL1    C3 9215   3.258   2.896  16.147  0.6013 -0.5488 -0.3490
   92CHL1    H3 9216   3.222   2.953  16.059 -0.7879 -0.5234  0.2043
   92CHL1    O3 9217   3.209   2.767  16.128 -0.1530  0.1086  0.1349
   92CHL1   H3' 9218   3.176   2.749  16.216 -1.3338  1.4990  0.0202
   92CHL1    C4 9219   3.412   2.883  16.140  0.1858 -0.3443  0.0165
   92CHL1   H4A 9220   3.449   2.815  16.219  0.2721 -0.3350 -0.0173
   92CHL1   H4B 9221   3.443   2.849  16.039 -0.1051  0.7686 -0.4649
   92CHL1    C5 9222   3.470   3.019  16.170 -0.4904 -0.3011  0.2498
   92CHL1    C6 9223   3.569   3.064  16.095 -0.0700  0.0429  0.2980
   92CHL1    H6 9224   3.613   2.998  16.019  2.5018 -0.8017  2.3554
   92CHL1    C7 9225   3.642   3.182  16.113 -0.1007  0.0037 -0.2481
   92CHL1   H7A 9226   3.749   3.150  16.109 -0.0314  0.3529 -1.9738
   92CHL1   H7B 9227   3.626   3.245  16.023  0.6084 -2.1457 -2.0013
   92CHL1    C8 9228   3.610   3.259  16.246  0.4902  0.1890 -0.0734
   92CHL1    H8 9229   3.670   3.211  16.326  0.3015 -1.9269 -1.1382
   92CHL1   C14 9230   3.650   3.402  16.238  0.3820 -0.4377  0.5456
   92CHL1   H14 9231   3.593   3.433  16.147  2.5089 -0.3013 -0.8097
   92CHL1   C15 9232   3.794   3.436  16.204  0.1338 -0.0243  0.0017
   92CHL1  H15A 9233   3.861   3.387  16.278  0.8891  0.8807 -0.0641
   92CHL1  H15B 9234   3.829   3.405  16.104 -2.9923 -0.1380 -1.1829
   92CHL1   C16 9235   3.808   3.585  16.227  0.8872 -0.5469 -0.3208
   92CHL1  H16A 9236   3.895   3.598  16.295 -0.4795 -0.8025  1.5378
   92CHL1  H16B 9237   3.817   3.641  16.131  2.6516  1.0167  0.6739
   92CHL1   C17 9238   3.679   3.628  16.310  0.3902  0.4135  0.1774
   92CHL1   H17 9239   3.612   3.667  16.230 -0.9942 -3.6975 -0.9231
   92CHL1   C13 9240   3.615   3.493  16.355 -0.2046 -0.1235  0.0821
   92CHL1   C18 9241   3.688   3.453  16.486 -0.1943 -0.3729 -0.1645
   92CHL1  H18A 9242   3.639   3.498  16.574  1.1726 -1.2302  1.0802
   92CHL1  H18B 9243   3.673   3.344  16.504 -0.2880 -0.4400 -0.6382
   92CHL1  H18C 9244   3.792   3.491  16.481 -0.0377 -0.8020 -0.2336
   92CHL1   C12 9245   3.461   3.484  16.374 -0.0845 -0.2907 -0.8460
   92CHL1  H12A 9246   3.432   3.553  16.456  2.9109 -1.3553  1.3009
   92CHL1  H12B 9247   3.410   3.514  16.280 -2.6520 -1.9860 -0.0981
   92CHL1   C11 9248   3.413   3.338  16.389 -0.1236  0.0914  0.4665
   92CHL1  H11A 9249   3.449   3.290  16.483  1.4244  0.4251  0.0675
   92CHL1  H11B 9250   3.302   3.345  16.385  0.0037  3.4329 -0.6360
   92CHL1    C9 9251   3.461   3.249  16.270 -0.4425  0.7580 -0.4476
   92CHL1    H9 9252   3.413   3.280  16.175  0.7351  0.8888 -1.0142
   92CHL1   C10 9253   3.409   3.101  16.286  0.2953  0.4732 -0.0399
   92CHL1   C19 9254   3.471   3.034  16.412  0.3610 -0.3272  0.0584
   92CHL1  H19A 9255   3.434   3.080  16.506 -0.6231  0.3114 -0.6176
   92CHL1  H19B 9256   3.447   2.926  16.427  0.1828 -0.0716  1.9245
   92CHL1  H19C 9257   3.580   3.055  16.408 -0.0454  2.1431  0.4035
   92CHL1    C1 9258   3.256   3.093  16.293 -0.0398  0.5029 -0.1451
   92CHL1   H1A 9259   3.218   3.134  16.389  2.1033  0.1727  0.9193
   92CHL1   H1B 9260   3.218   3.154  16.209 -0.0256 -0.5274 -0.9186
   92CHL1    C2 9261   3.197   2.952  16.275 -0.3301 -0.4847  0.5036
   92CHL1   H2A 9262   3.086   2.957  16.266 -0.1830 -1.1287 -2.9822
   92CHL1   H2B 9263   3.222   2.888  16.363 -2.4197 -0.0298  1.5107
   92CHL1   C20 9264   3.696   3.736  16.418 -0.5915 -0.9449  0.0982
   92CHL1   H20 9265   3.762   3.690  16.495 -0.4872 -0.7735  0.1123
   92CHL1   C21 9266   3.567   3.785  16.481  0.5084  0.1294  0.2003
   92CHL1  H21A 9267   3.530   3.705  16.548 -0.7400  0.9019  0.4780
   92CHL1  H21B 9268   3.496   3.790  16.395  2.1515 -0.0839 -1.2117
   92CHL1  H21C 9269   3.575   3.878  16.543  0.1339 -1.3786  2.6364
   92CHL1   C22 9270   3.774   3.863  16.366  0.1721 -0.5635  0.0400
   92CHL1  H22A 9271   3.789   3.934  16.450 -0.9555 -0.6506  0.3327
   92CHL1  H22B 9272   3.871   3.822  16.330 -0.9331 -2.8159 -0.5307
   92CHL1   C23 9273   3.703   3.952  16.262 -1.4965  0.2750 -0.3799
   92CHL1  H23A 9274   3.664   3.880  16.187 -2.7189  0.8798 -0.3432
   92CHL1  H23B 9275   3.619   4.007  16.308 -0.9793 -0.5599  1.6698
   92CHL1   C24 9276   3.808   4.037  16.193  0.4489 -0.5141  0.2779
   92CHL1  H24A 9277   3.862   4.099  16.267  2.6756 -1.2054 -0.7006
   92CHL1  H24B 9278   3.888   3.982  16.140  1.5032  0.3547  0.9243
   92CHL1   C25 9279   3.747   4.148  16.096  0.2594  0.6520 -0.7298
   92CHL1   H25 9280   3.683   4.207  16.164  1.8949  0.0011  1.5014
   92CHL1   C26 9281   3.859   4.244  16.047 -0.1802 -0.2593  0.1220
   92CHL1  H26A 9282   3.942   4.189  15.998 -1.7652 -2.2871 -0.4132
   92CHL1  H26B 9283   3.833   4.323  15.974  1.3984  0.3370  0.1627
   92CHL1  H26C 9284   3.893   4.299  16.138  0.9021  1.0613 -1.0426
   92CHL1   C27 9285   3.658   4.090  15.985  1.2340  0.5996  0.0487
   92CHL1  H27A 9286   3.571   4.023  16.006  0.2566  0.8425 -2.7735
   92CHL1  H27B 9287   3.608   4.173  15.930  0.9858  0.2923 -0.1980
   92CHL1  H27C 9288   3.723   4.035  15.914 -1.5695 -0.2757 -2.0192
   93CHL1    C3 9289   2.996   2.592  22.220  0.1392 -0.6386 -0.2145
   93CHL1    H3 9290   3.107   2.597  22.209 -0.0034 -0.9573 -2.1895
   93CHL1    O3 9291   2.947   2.465  22.183  0.5455 -0.3794 -0.3970
   93CHL1   H3' 9292   2.858   2.460  22.220 -0.2253 -1.9583 -2.2844
   93CHL1    C4 9293   2.942   2.623  22.354  0.1983 -0.0773  0.3531
   93CHL1   H4A 9294   2.832   2.630  22.340  0.3100  1.8729  0.1079
   93CHL1   H4B 9295   2.964   2.537  22.420  2.0721 -0.8486 -1.1731
   93CHL1    C5 9296   2.972   2.752  22.415  0.5651  0.3807 -0.0700
   93CHL1    C6 9297   3.028   2.755  22.534  0.6662  0.3332  0.0143
   93CHL1    H6 9298   3.058   2.666  22.592  2.3640  0.7229 -0.2049
   93CHL1    C7 9299   3.046   2.889  22.604 -0.1225 -0.5342 -1.0955
   93CHL1   H7A 9300   3.004   2.887  22.707 -0.7122 -0.7814 -1.3344
   93CHL1   H7B 9301   3.155   2.899  22.623 -0.0632 -0.5023 -1.4555
   93CHL1    C8 9302   2.976   3.011  22.534  0.3770  0.3170 -0.4784
   93CHL1    H8 9303   2.867   2.996  22.552  0.5448  2.3172  2.9277
   93CHL1   C14 9304   3.031   3.143  22.587 -0.1832  0.4818 -0.0878
   93CHL1   H14 9305   3.136   3.137  22.552 -0.6722  0.9152 -1.7545
   93CHL1   C15 9306   3.015   3.169  22.734 -0.5751  0.4831 -0.2575
   93CHL1  H15A 9307   2.923   3.132  22.783 -0.0577 -1.6209 -0.7439
   93CHL1  H15B 9308   3.099   3.120  22.788 -0.4377  0.3800 -0.5615
   93CHL1   C16 9309   3.032   3.325  22.742  0.1124  0.8987 -0.4316
   93CHL1  H16A 9310   2.934   3.361  22.780 -0.5934  1.5418 -2.7045
   93CHL1  H16B 9311   3.118   3.347  22.810  2.1852  0.4271 -2.7345
   93CHL1   C17 9312   3.061   3.372  22.596 -0.6560  0.0065 -0.0671
   93CHL1   H17 9313   3.170   3.365  22.575 -0.7674  0.7487 -0.9389
   93CHL1   C13 9314   2.994   3.267  22.504  0.7327 -0.1611  0.2969
   93CHL1   C18 9315   2.843   3.291  22.502 -0.5961  0.1247 -0.1680
   93CHL1  H18A 9316   2.783   3.200  22.482 -2.8713  1.7624 -1.2042
   93CHL1  H18B 9317   2.809   3.324  22.602  1.3897  0.1664  0.5557
   93CHL1  H18C 9318   2.813   3.377  22.439 -1.8705  0.6536  1.1229
   93CHL1   C12 9319   3.045   3.249  22.364  0.2753 -1.2483  0.0315
   93CHL1  H12A 9320   3.028   3.341  22.304 -1.5929 -1.4880  0.1588
   93CHL1  H12B 9321   3.155   3.233  22.362  0.8346  1.7621  1.0517
   93CHL1   C11 9322   2.993   3.127  22.296  0.8008 -0.1732  0.2390
   93CHL1  H11A 9323   2.886   3.152  22.284  0.8313  0.5478  1.3617
   93CHL1  H11B 9324   3.042   3.107  22.199 -2.1756 -2.7025 -0.9154
   93CHL1    C9 9325   3.010   2.995  22.385  0.1176  0.2253  0.1357
   93CHL1    H9 9326   3.119   2.979  22.370 -0.1514 -2.4132  0.4445
   93CHL1   C10 9327   2.931   2.874  22.321  0.1066 -0.6263 -0.1012
   93CHL1   C19 9328   2.778   2.905  22.323  0.0273 -0.4832  0.0795
   93CHL1  H19A 9329   2.742   2.911  22.428 -0.0942 -0.9317  0.0657
   93CHL1  H19B 9330   2.748   2.991  22.260 -1.8551 -0.8065  0.4871
   93CHL1  H19C 9331   2.717   2.824  22.277 -0.8848 -0.0706  0.5391
   93CHL1    C1 9332   2.981   2.847  22.177  0.2701 -0.8805  0.4092
   93CHL1   H1A 9333   2.944   2.913  22.097 -0.5143 -1.2855  0.4311
   93CHL1   H1B 9334   3.092   2.858  22.177  0.7335 -3.4106  4.3114
   93CHL1    C2 9335   2.948   2.703  22.124  0.3434 -0.1995  0.5541
   93CHL1   H2A 9336   2.994   2.699  22.023  0.7441  1.4890  0.6361
   93CHL1   H2B 9337   2.839   2.686  22.112  0.2395  0.4383  0.5840
   93CHL1   C20 9338   3.028   3.523  22.567 -1.1799  0.5226 -0.2560
   93CHL1   H20 9339   2.920   3.523  22.543 -1.3663  3.0015  0.3309
   93CHL1   C21 9340   3.111   3.566  22.442  0.3840 -0.5154 -0.5057
   93CHL1  H21A 9341   3.173   3.649  22.482 -0.0264  0.9039 -2.6494
   93CHL1  H21B 9342   3.044   3.611  22.365  0.9281  1.0392 -0.1107
   93CHL1  H21C 9343   3.171   3.484  22.398  0.0912 -1.4012  0.6979
   93CHL1   C22 9344   3.065   3.612  22.693  0.2115 -0.3376  0.2764
   93CHL1  H22A 9345   3.026   3.570  22.788  0.8585 -1.4025  0.0884
   93CHL1  H22B 9346   3.176   3.609  22.702  0.0792 -1.1381  1.9475
   93CHL1   C23 9347   3.008   3.753  22.676  0.2754 -0.0706  0.3605
   93CHL1  H23A 9348   3.033   3.786  22.574  1.0844 -3.1028 -0.5300
   93CHL1  H23B 9349   2.899   3.734  22.668  0.3193 -0.4874  0.6738
   93CHL1   C24 9350   3.041   3.861  22.784  0.2490 -0.1897 -0.1576
   93CHL1  H24A 9351   3.019   3.831  22.889  1.0068  1.5724  0.5463
   93CHL1  H24B 9352   3.148   3.889  22.787 -0.4401  2.9461 -1.2904
   93CHL1   C25 9353   2.974   3.994  22.747  0.9021 -0.2671 -0.5178
   93CHL1   H25 9354   2.865   3.980  22.729  0.6931 -0.8420  1.0753
   93CHL1   C26 9355   2.992   4.094  22.862  0.3098 -0.0687  0.4165
   93CHL1  H26A 9356   3.096   4.132  22.873 -0.3095  1.1759  2.4989
   93CHL1  H26B 9357   2.926   4.183  22.856  0.2980 -0.1716 -1.5785
   93CHL1  H26C 9358   2.959   4.051  22.959 -5.5526 -0.6361 -1.4456
   93CHL1   C27 9359   3.038   4.047  22.618  0.1677  0.9063  0.2726
   93CHL1  H27A 9360   3.021   4.155  22.598  0.3721  0.5469 -2.2190
   93CHL1  H27B 9361   3.148   4.039  22.625  0.2230 -0.3693 -1.3497
   93CHL1  H27C 9362   3.009   3.982  22.532  2.7797  0.9405 -0.7136
   94CHL1    C3 9363   3.517   2.408  19.715 -0.0232  0.1698  0.4534
   94CHL1    H3 9364   3.502   2.377  19.821  1.4965 -0.7008  0.4407
   94CHL1    O3 9365   3.473   2.294  19.641 -0.1035  0.2190 -0.0207
   94CHL1   H3' 9366   3.514   2.301  19.554 -1.4271  0.2006 -0.6720
   94CHL1    C4 9367   3.432   2.531  19.681 -0.2617  0.5517 -0.2673
   94CHL1   H4A 9368   3.444   2.547  19.572 -0.2786 -1.3772 -0.5846
   94CHL1   H4B 9369   3.330   2.495  19.706 -0.2663 -0.1071 -1.2053
   94CHL1    C5 9370   3.480   2.642  19.769 -0.2314 -0.2549 -0.8381
   94CHL1    C6 9371   3.402   2.711  19.856 -0.8851 -0.1344  0.5102
   94CHL1    H6 9372   3.298   2.679  19.865 -1.2437  0.8554  0.0624
   94CHL1    C7 9373   3.454   2.838  19.924 -0.5660  0.3796  0.7430
   94CHL1   H7A 9374   3.372   2.912  19.910  1.1270  2.0831 -0.8334
   94CHL1   H7B 9375   3.467   2.813  20.031  0.3327  0.0784  0.5696
   94CHL1    C8 9376   3.589   2.891  19.879 -0.2400 -0.3330  0.2699
   94CHL1    H8 9377   3.581   2.939  19.779 -0.5920 -1.0367 -0.0439
   94CHL1   C14 9378   3.640   2.976  19.991  0.5758  0.1102  0.6278
   94CHL1   H14 9379   3.652   2.909  20.078  0.0450 -0.2748  0.4052
   94CHL1   C15 9380   3.548   3.095  20.046  0.2806  0.2448  0.4471
   94CHL1  H15A 9381   3.501   3.149  19.961  2.2391  1.4740  0.0767
   94CHL1  H15B 9382   3.463   3.053  20.103 -0.8793  1.9223  0.0242
   94CHL1   C16 9383   3.652   3.182  20.112  1.1673 -0.1304  0.4825
   94CHL1  H16A 9384   3.647   3.285  20.072  0.6119 -1.1323 -2.2717
   94CHL1  H16B 9385   3.617   3.191  20.217 -1.9085 -1.0943 -0.3688
   94CHL1   C17 9386   3.790   3.119  20.089  0.2456  0.6037  0.5918
   94CHL1   H17 9387   3.804   3.052  20.176  0.1350 -0.3797 -0.1381
   94CHL1   C13 9388   3.779   3.033  19.959 -0.3135 -0.0001 -0.2253
   94CHL1   C18 9389   3.764   3.129  19.840  0.1139 -0.1025  0.2950
   94CHL1  H18A 9390   3.863   3.166  19.806 -0.6054  2.3996  0.6746
   94CHL1  H18B 9391   3.709   3.080  19.757  1.2593  1.3705 -1.4071
   94CHL1  H18C 9392   3.716   3.221  19.881 -0.6748 -0.3507 -0.0540
   94CHL1   C12 9393   3.879   2.918  19.931  0.1158  0.4075 -0.4805
   94CHL1  H12A 9394   3.969   2.973  19.895 -1.1361  1.9626 -1.3605
   94CHL1  H12B 9395   3.910   2.867  20.025 -0.5726 -1.7064 -1.3569
   94CHL1   C11 9396   3.830   2.829  19.826  0.6963  0.5011 -0.3135
   94CHL1  H11A 9397   3.832   2.873  19.724 -1.1469 -2.9493 -1.9953
   94CHL1  H11B 9398   3.903   2.746  19.824  2.7092  2.2015 -0.8811
   94CHL1    C9 9399   3.687   2.783  19.853 -0.3019  0.1128 -0.1382
   94CHL1    H9 9400   3.682   2.728  19.949  0.2438  1.0050  0.4201
   94CHL1   C10 9401   3.634   2.680  19.743  0.4480  0.1365 -0.1460
   94CHL1   C19 9402   3.656   2.732  19.596 -0.2031  0.2231  0.6200
   94CHL1  H19A 9403   3.609   2.671  19.516 -0.1598  0.2088  0.6057
   94CHL1  H19B 9404   3.593   2.823  19.589 -0.2423  0.0793 -1.4618
   94CHL1  H19C 9405   3.763   2.756  19.577  0.4654 -1.1669  2.2486
   94CHL1    C1 9406   3.717   2.549  19.766  0.1790  0.0867  0.0155
   94CHL1   H1A 9407   3.823   2.568  19.738  0.6130 -2.6522 -0.4143
   94CHL1   H1B 9408   3.708   2.526  19.874 -1.5737  2.2407  0.4061
   94CHL1    C2 9409   3.668   2.429  19.685 -0.5843  0.3245 -0.1465
   94CHL1   H2A 9410   3.720   2.340  19.728 -0.1544  2.5414  4.5457
   94CHL1   H2B 9411   3.690   2.450  19.579  2.2432  0.3777  0.3874
   94CHL1   C20 9412   3.906   3.227  20.092 -0.2440 -0.1501  0.0658
   94CHL1   H20 9413   3.908   3.281  19.995  1.2779  1.6511  1.0442
   94CHL1   C21 9414   4.044   3.153  20.093 -0.7945 -0.1456  0.8309
   94CHL1  H21A 9415   4.064   3.111  19.992 -2.2390 -0.3050  0.5883
   94CHL1  H21B 9416   4.055   3.080  20.176  3.1096 -0.0331  0.5909
   94CHL1  H21C 9417   4.128   3.226  20.101 -0.4026 -0.6675  1.5701
   94CHL1   C22 9418   3.896   3.336  20.200 -0.0691  1.0906 -0.2345
   94CHL1  H22A 9419   3.789   3.368  20.194 -0.2861  0.1583 -2.1024
   94CHL1  H22B 9420   3.914   3.297  20.302 -0.2230 -1.3102 -1.0645
   94CHL1   C23 9421   3.984   3.465  20.189 -0.2745 -0.2660 -0.0418
   94CHL1  H23A 9422   4.089   3.433  20.172 -0.1201  0.4768 -0.5115
   94CHL1  H23B 9423   3.946   3.520  20.101 -0.4073 -1.8856 -1.0413
   94CHL1   C24 9424   3.974   3.561  20.312  0.1715  0.1338  0.0640
   94CHL1  H24A 9425   4.028   3.655  20.291  1.5501 -0.9770 -1.6670
   94CHL1  H24B 9426   3.867   3.587  20.327 -0.5641 -2.6916  0.3278
   94CHL1   C25 9427   4.024   3.504  20.445  0.0142 -0.4162 -0.4723
   94CHL1   H25 9428   3.952   3.426  20.479  0.9837 -0.6922  1.0307
   94CHL1   C26 9429   4.157   3.424  20.443 -0.8530  0.0451 -0.7770
   94CHL1  H26A 9430   4.172   3.353  20.359  1.2870 -1.0741  0.4711
   94CHL1  H26B 9431   4.237   3.500  20.432  2.0189 -2.6741 -0.2380
   94CHL1  H26C 9432   4.176   3.369  20.538  0.6980 -0.7123 -1.4913
   94CHL1   C27 9433   4.040   3.617  20.548  0.2437  0.0341 -0.1786
   94CHL1  H27A 9434   4.069   3.572  20.645 -0.6917  2.2483  1.2106
   94CHL1  H27B 9435   4.110   3.700  20.523 -0.9551  1.4652  1.0502
   94CHL1  H27C 9436   3.942   3.667  20.564 -1.8433 -3.7296  0.0021
   95CHL1    C3 9437   3.444   2.580  16.974  0.3530 -0.0858  0.0419
   95CHL1    H3 9438   3.424   2.588  16.865  2.1836  2.5392 -0.1801
   95CHL1    O3 9439   3.465   2.449  17.022  0.0169  0.5380 -0.2879
   95CHL1   H3' 9440   3.507   2.465  17.107  0.7238 -0.0942 -0.5024
   95CHL1    C4 9441   3.572   2.666  16.990  0.3842 -0.3007 -1.1572
   95CHL1   H4A 9442   3.621   2.662  17.090 -0.7887  2.7421 -0.3228
   95CHL1   H4B 9443   3.659   2.636  16.928  1.9173 -1.6078  1.4841
   95CHL1    C5 9444   3.544   2.816  16.955 -0.1641  0.4071  0.0095
   95CHL1    C6 9445   3.604   2.890  16.853 -0.7497  0.5022 -0.0478
   95CHL1    H6 9446   3.678   2.837  16.792 -0.8995  1.8510 -1.4746
   95CHL1    C7 9447   3.580   3.032  16.817  0.1221  0.0236  0.2663
   95CHL1   H7A 9448   3.669   3.097  16.804  0.0338 -0.3879 -3.6603
   95CHL1   H7B 9449   3.521   3.042  16.723  0.0559 -1.5746  0.1109
   95CHL1    C8 9450   3.494   3.098  16.929  0.3440  0.3110  0.0737
   95CHL1    H8 9451   3.567   3.116  17.011  1.0183 -1.7322 -0.0298
   95CHL1   C14 9452   3.437   3.232  16.885  0.0551 -0.1141 -0.0467
   95CHL1   H14 9453   3.372   3.201  16.801  1.0412 -1.4696 -0.3519
   95CHL1   C15 9454   3.546   3.325  16.832 -0.8600  0.0677 -0.3679
   95CHL1  H15A 9455   3.620   3.353  16.910  0.5367 -0.1510 -1.5606
   95CHL1  H15B 9456   3.609   3.287  16.748  0.7553  0.4196  0.6499
   95CHL1   C16 9457   3.469   3.452  16.818  0.0713  0.1620 -0.3407
   95CHL1  H16A 9458   3.532   3.541  16.840 -0.1600  0.1149  0.5318
   95CHL1  H16B 9459   3.453   3.467  16.709  0.4031  1.0101 -0.2754
   95CHL1   C17 9460   3.332   3.434  16.892  0.3882  0.9259 -0.4045
   95CHL1   H17 9461   3.262   3.396  16.815  0.9188 -2.2141  0.5586
   95CHL1   C13 9462   3.355   3.310  16.986  0.8761 -1.0844  0.4608
   95CHL1   C18 9463   3.434   3.359  17.115  0.2882  0.3481  0.1996
   95CHL1  H18A 9464   3.505   3.442  17.091 -1.3581  1.2110 -2.0155
   95CHL1  H18B 9465   3.373   3.389  17.203  0.6426  0.5409  0.3841
   95CHL1  H18C 9466   3.490   3.273  17.157 -1.2814 -1.0229 -0.4236
   95CHL1   C12 9467   3.227   3.220  17.010 -0.0630 -0.1249  0.6165
   95CHL1  H12A 9468   3.164   3.270  17.086  2.1756  1.2862  1.6751
   95CHL1  H12B 9469   3.174   3.203  16.914  2.0200 -0.7403 -0.4958
   95CHL1   C11 9470   3.272   3.078  17.053  0.5228  0.5147 -0.4749
   95CHL1  H11A 9471   3.313   3.101  17.154  1.4091 -0.1506 -0.6709
   95CHL1  H11B 9472   3.187   3.007  17.061  1.0897 -0.2949 -1.3631
   95CHL1    C9 9473   3.377   3.010  16.973 -0.8286  0.1184  0.1959
   95CHL1    H9 9474   3.329   2.991  16.875  0.4922 -0.1095 -0.4258
   95CHL1   C10 9475   3.429   2.875  17.030 -0.2038  0.9472  0.0306
   95CHL1   C19 9476   3.462   2.889  17.180 -0.0933 -0.8568  0.0669
   95CHL1  H19A 9477   3.540   2.967  17.191 -0.2211 -0.8419  0.9740
   95CHL1  H19B 9478   3.373   2.931  17.231  0.9179  0.0129  1.1588
   95CHL1  H19C 9479   3.496   2.790  17.218 -2.4301 -1.7885 -0.0923
   95CHL1    C1 9480   3.306   2.778  17.021 -0.7055  0.0090  0.5177
   95CHL1   H1A 9481   3.220   2.815  17.081  0.1730  0.1888  1.7071
   95CHL1   H1B 9482   3.271   2.769  16.916 -1.1649 -2.7870  0.8361
   95CHL1    C2 9483   3.333   2.636  17.066 -0.1384  0.3638  0.1349
   95CHL1   H2A 9484   3.235   2.585  17.051 -0.3293  0.0732  2.1056
   95CHL1   H2B 9485   3.346   2.621  17.175 -4.3728  0.1234  0.7631
   95CHL1   C20 9486   3.284   3.567  16.944  0.4777 -0.0796  0.3327
   95CHL1   H20 9487   3.360   3.598  17.020  0.8491  0.0603 -0.0885
   95CHL1   C21 9488   3.150   3.548  17.010  0.3286  0.0459  0.8065
   95CHL1  H21A 9489   3.165   3.484  17.100 -1.3222  0.6935  1.5890
   95CHL1  H21B 9490   3.068   3.504  16.949  2.4526 -0.4309 -1.9178
   95CHL1  H21C 9491   3.114   3.642  17.056  1.5673  1.1312 -0.3750
   95CHL1   C22 9492   3.289   3.685  16.842 -0.5265  0.1944  0.0318
   95CHL1  H22A 9493   3.252   3.776  16.894 -0.6896  1.2232 -1.8008
   95CHL1  H22B 9494   3.392   3.717  16.816 -1.2255  0.1407 -3.1453
   95CHL1   C23 9495   3.190   3.677  16.725 -0.7823  1.2849 -1.0343
   95CHL1  H23A 9496   3.240   3.623  16.642 -1.1726  2.0271 -1.7672
   95CHL1  H23B 9497   3.099   3.625  16.760  1.7063 -1.1137  2.5827
   95CHL1   C24 9498   3.149   3.816  16.681  0.3935  0.5970  0.0780
   95CHL1  H24A 9499   3.123   3.878  16.770  0.3292 -2.3928  2.2644
   95CHL1  H24B 9500   3.241   3.859  16.636  0.8414 -3.1328 -3.1207
   95CHL1   C25 9501   3.031   3.817  16.584 -0.4982  0.5970 -0.1956
   95CHL1   H25 9502   2.951   3.756  16.631  0.1674  0.1092  0.3274
   95CHL1   C26 9503   2.966   3.962  16.580  0.3768 -0.3313  0.0435
   95CHL1  H26A 9504   3.046   4.040  16.581 -0.4283  0.5097  0.2256
   95CHL1  H26B 9505   2.918   3.972  16.480  1.4309  1.0492 -0.3555
   95CHL1  H26C 9506   2.898   3.979  16.666 -0.6414 -0.1104 -0.7873
   95CHL1   C27 9507   3.060   3.752  16.446 -0.5296  0.5892  0.0546
   95CHL1  H27A 9508   3.127   3.821  16.391  1.1662  0.0944  1.3843
   95CHL1  H27B 9509   3.107   3.653  16.467 -2.5298 -0.4505 -0.1296
   95CHL1  H27C 9510   2.961   3.736  16.399 -1.7134 -0.5642  2.6869
   96CHL1    C3 9511   3.980   2.818  21.005  0.0009  0.4576  0.1015
   96CHL1    H3 9512   4.071   2.792  21.063 -2.0568 -3.6940  1.8617
   96CHL1    O3 9513   3.975   2.713  20.912 -0.1740  0.2818  0.2969
   96CHL1   H3' 9514   3.891   2.717  20.866  0.1447 -1.2631 -0.4690
   96CHL1    C4 9515   3.870   2.819  21.117  0.8630 -1.2396 -0.2967
   96CHL1   H4A 9516   3.776   2.828  21.058 -0.3214 -0.5663  1.5967
   96CHL1   H4B 9517   3.866   2.716  21.159 -0.2755 -0.5443  1.3988
   96CHL1    C5 9518   3.895   2.926  21.221  0.2737  0.2192  0.0304
   96CHL1    C6 9519   3.912   2.902  21.351 -0.1846  0.5536  0.2205
   96CHL1    H6 9520   3.902   2.797  21.383 -1.6938  0.4675 -0.4163
   96CHL1    C7 9521   3.908   3.009  21.456 -0.4140 -0.4664  0.6124
   96CHL1   H7A 9522   3.841   2.983  21.541 -0.7503  1.7019  1.0515
   96CHL1   H7B 9523   4.009   3.013  21.503  0.2681 -1.3700 -0.6834
   96CHL1    C8 9524   3.872   3.155  21.404  0.3505  0.2595  0.6202
   96CHL1    H8 9525   3.762   3.165  21.390  0.5257  2.2191  0.2584
   96CHL1   C14 9526   3.915   3.268  21.492 -0.1281  0.4977  0.6472
   96CHL1   H14 9527   4.024   3.256  21.504  0.5239  3.3364 -1.5325
   96CHL1   C15 9528   3.856   3.266  21.634 -0.2864 -0.2525  0.5816
   96CHL1  H15A 9529   3.745   3.269  21.623 -0.3235  1.1921  1.0782
   96CHL1  H15B 9530   3.892   3.180  21.693  2.5126  0.6512  0.3285
   96CHL1   C16 9531   3.891   3.403  21.688  0.0281 -0.4407  0.1103
   96CHL1  H16A 9532   3.808   3.433  21.756 -0.7541 -1.0811 -0.5487
   96CHL1  H16B 9533   3.990   3.397  21.737  0.5824 -0.8412 -1.0361
   96CHL1   C17 9534   3.911   3.496  21.564 -0.2550  0.1198 -0.2778
   96CHL1   H17 9535   4.021   3.511  21.568 -0.0702 -1.1030 -0.1560
   96CHL1   C13 9536   3.893   3.413  21.437  0.3478  0.2619  0.0650
   96CHL1   C18 9537   3.741   3.415  21.394  0.8153 -0.2309 -0.1766
   96CHL1  H18A 9538   3.713   3.347  21.311  1.0839  0.1354 -0.5722
   96CHL1  H18B 9539   3.671   3.397  21.478  1.6680 -0.8350  0.4241
   96CHL1  H18C 9540   3.709   3.516  21.362 -0.9939  0.5698  3.5823
   96CHL1   C12 9541   3.985   3.428  21.321 -0.1681  0.0587 -0.0397
   96CHL1  H12A 9542   3.972   3.523  21.266 -0.1633  0.0094 -0.1272
   96CHL1  H12B 9543   4.091   3.417  21.352  0.1273 -1.8447 -1.5166
   96CHL1   C11 9544   3.951   3.321  21.212  0.1853  0.0451  0.2489
   96CHL1  H11A 9545   3.859   3.346  21.155  0.5701 -1.0480 -0.9073
   96CHL1  H11B 9546   4.035   3.328  21.140 -1.1586  1.8574 -1.2527
   96CHL1    C9 9547   3.938   3.173  21.264 -0.7605  0.5681  1.1739
   96CHL1    H9 9548   4.044   3.152  21.288 -0.3278  0.2465 -0.9159
   96CHL1   C10 9549   3.891   3.063  21.162 -0.2072  0.5044  0.2151
   96CHL1   C19 9550   3.747   3.101  21.121  0.5240  0.4762 -0.0116
   96CHL1  H19A 9551   3.753   3.206  21.086 -1.6323  0.7953  0.4443
   96CHL1  H19B 9552   3.706   3.047  21.033 -3.5185  2.1952  0.6045
   96CHL1  H19C 9553   3.680   3.096  21.209  0.4738  0.8664 -0.0285
   96CHL1    C1 9554   3.991   3.068  21.039  0.8803  0.0836  0.0683
   96CHL1   H1A 9555   3.981   3.165  20.986  0.3747  0.8090  1.4597
   96CHL1   H1B 9556   4.094   3.066  21.081  0.3419  0.6654  1.4656
   96CHL1    C2 9557   3.978   2.953  20.940 -0.0744 -0.1456  0.1208
   96CHL1   H2A 9558   4.051   2.952  20.856 -1.3569  0.2287 -1.0387
   96CHL1   H2B 9559   3.878   2.969  20.895  0.6081  1.2010 -0.9890
   96CHL1   C20 9560   3.844   3.633  21.580  0.1117  0.0251 -0.1094
   96CHL1   H20 9561   3.735   3.625  21.566  0.2724  1.6322 -2.9976
   96CHL1   C21 9562   3.898   3.724  21.471  0.5455 -0.1264  0.5962
   96CHL1  H21A 9563   3.894   3.827  21.512  0.3586 -0.2542  0.9099
   96CHL1  H21B 9564   3.851   3.702  21.373  1.6850 -0.7240  0.1708
   96CHL1  H21C 9565   4.007   3.710  21.456  0.6525 -0.7186  1.7683
   96CHL1   C22 9566   3.862   3.702  21.721  1.6022 -0.0430  0.2390
   96CHL1  H22A 9567   3.822   3.804  21.704 -0.2423 -0.7865 -0.0978
   96CHL1  H22B 9568   3.792   3.646  21.788  2.4949 -1.4111  0.0678
   96CHL1   C23 9569   4.000   3.718  21.775 -0.2748  0.0186  0.6859
   96CHL1  H23A 9570   4.051   3.620  21.764  2.3088  1.4605 -1.1459
   96CHL1  H23B 9571   4.042   3.807  21.723 -1.5961  0.4934  0.3706
   96CHL1   C24 9572   3.997   3.750  21.930 -0.1064 -0.4304  0.1239
   96CHL1  H24A 9573   3.977   3.654  21.981  1.2423 -2.0818 -2.2492
   96CHL1  H24B 9574   4.096   3.792  21.959  0.8197 -1.6497 -1.1627
   96CHL1   C25 9575   3.899   3.863  21.969  0.2644 -0.6933 -0.0408
   96CHL1   H25 9576   3.796   3.836  21.936 -0.7790  3.1972 -0.4692
   96CHL1   C26 9577   3.903   3.874  22.125 -0.3321  0.3064  0.1374
   96CHL1  H26A 9578   3.859   3.782  22.168 -0.2104 -0.2470 -0.8954
   96CHL1  H26B 9579   4.011   3.892  22.143 -0.6667  1.2518  1.2863
   96CHL1  H26C 9580   3.841   3.958  22.163  0.3740  0.3742  1.1502
   96CHL1   C27 9581   3.942   4.008  21.917 -0.5547  0.5783 -0.1479
   96CHL1  H27A 9582   3.936   4.018  21.806  1.8856 -1.8306 -0.5779
   96CHL1  H27B 9583   3.877   4.080  21.972 -0.3593 -0.9079  2.1299
   96CHL1  H27C 9584   4.046   4.035  21.946 -0.3948 -2.0161  2.0716
   97OSM      N 9585   3.901   3.831  26.669 -0.1722 -0.0713 -0.2137
   97OSM    C15 9586   3.921   3.823  26.819  0.2476  0.3169 -0.9513
   97OSM   H15A 9587   4.025   3.844  26.838  0.6468 -2.1752 -0.0444
   97OSM   H15B 9588   3.905   3.720  26.848  0.8124  0.2360 -0.9167
   97OSM   H15C 9589   3.850   3.881  26.876 -0.1066 -2.4426  1.6697
   97OSM    C14 9590   3.932   3.974  26.625 -0.3841 -0.1024  0.3196
   97OSM   H14A 9591   4.037   4.000  26.632 -0.1687 -0.7131 -0.5365
   97OSM   H14B 9592   3.877   4.052  26.677 -0.5006 -0.0950  0.1850
   97OSM   H14C 9593   3.909   3.988  26.521 -0.3885 -0.6740  0.2431
   97OSM    C13 9594   3.996   3.740  26.598 -0.4263  0.2021 -0.4928
   97OSM   H13A 9595   4.095   3.782  26.604  0.5016 -2.0006  1.6962
   97OSM   H13B 9596   3.976   3.722  26.493  1.8884 -1.3852 -0.7230
   97OSM   H13C 9597   4.001   3.640  26.640 -0.9503 -0.3918 -1.7573
   97OSM    C12 9598   3.757   3.800  26.644  0.1969  0.4068 -0.3939
   97OSM   H12A 9599   3.740   3.839  26.545  1.0893 -3.3490 -2.1890
   97OSM   H12B 9600   3.701   3.851  26.722  0.4083  1.0601 -0.6601
   97OSM    C11 9601   3.721   3.652  26.640 -0.5020  0.6129 -0.2936
   97OSM   H11A 9602   3.783   3.595  26.568  0.2134  0.6914  0.2553
   97OSM   H11B 9603   3.621   3.626  26.600  0.3411  0.9587 -2.8050
   97OSM      P 9604   3.648   3.596  26.880  0.0726  0.2390  0.1968
   97OSM    O13 9605   3.713   3.555  27.001  0.1321  0.9681  0.3309
   97OSM    O14 9606   3.554   3.716  26.887 -0.4943 -0.0845  0.2946
   97OSM    O11 9607   3.560   3.478  26.826  0.0646  0.6799 -0.0263
   97OSM    O12 9608   3.753   3.604  26.769 -0.3153  0.6103  0.1183
   97OSM    C1S 9609   3.606   3.345  26.819  0.0324  0.0377 -0.1845
   97OSM    H1S 9610   3.620   3.311  26.923 -2.7043  3.5814  1.5837
   97OSM    H1T 9611   3.703   3.345  26.764 -0.2933 -0.5071 -0.7736
   97OSM     NF 9612   3.536   3.119  26.744 -0.5582 -0.2722  0.2089
   97OSM    HNF 9613   3.571   3.068  26.666  2.6656  0.3888  1.0739
   97OSM    C2S 9614   3.503   3.259  26.741  0.1111 -0.2091 -0.0012
   97OSM    H2S 9615   3.409   3.253  26.799  1.1965  0.0403  1.8762
   97OSM    C3S 9616   3.478   3.317  26.597  0.3531  0.7060  0.2429
   97OSM    H3S 9617   3.577   3.328  26.547  0.2486  0.4560 -0.0233
   97OSM     O3 9618   3.405   3.437  26.605  0.0046  0.2484 -0.3387
   97OSM    HO3 9619   3.405   3.464  26.697 -0.2255  3.0479 -1.0469
   97OSM    C4S 9620   3.401   3.229  26.510  0.4271 -0.0031  0.1045
   97OSM    H4S 9621   3.305   3.188  26.546  0.0705  1.3026  0.6776
   97OSM    C5S 9622   3.449   3.195  26.391 -0.5250 -0.4640 -0.6820
   97OSM    H5S 9623   3.552   3.225  26.369 -0.1113 -0.4751  1.0750
   97OSM    C6S 9624   3.368   3.114  26.286 -0.2101 -0.2786  0.9681
   97OSM    H6S 9625   3.430   3.023  26.271  1.0829  0.4694  1.6052
   97OSM    H6T 9626   3.387   3.162  26.187  2.5490 -0.1247  1.4992
   97OSM    C7S 9627   3.222   3.082  26.313 -0.6033 -0.0094 -0.1832
   97OSM    H7S 9628   3.159   3.172  26.329  0.2598  0.6785 -0.6097
   97OSM    H7T 9629   3.219   3.021  26.406  0.6458 -2.5194 -1.6846
   97OSM    C8S 9630   3.169   3.006  26.187 -0.3119 -0.0947 -0.0159
   97OSM    H8S 9631   3.172   3.069  26.096 -1.4355 -0.9551 -0.6796
   97OSM    H8T 9632   3.061   2.982  26.194  0.5967 -4.6435  2.2197
   97OSM    C9S 9633   3.215   2.863  26.156 -0.0766  0.6560 -0.3767
   97OSM    H9S 9634   3.200   2.801  26.247  1.9889  0.5944 -0.0359
   97OSM    H9T 9635   3.323   2.867  26.132 -0.0037  1.5739  0.0606
   97OSM   C10S 9636   3.142   2.793  26.037  0.8975  0.6772  0.2622
   97OSM   H10S 9637   3.199   2.805  25.942  1.0012 -0.2690  0.2006
   97OSM   H10T 9638   3.049   2.851  26.015  2.6148  2.3930 -3.3954
   97OSM   C11S 9639   3.107   2.646  26.078 -0.1077 -0.7074  0.0024
   97OSM   H11S 9640   3.053   2.605  25.990 -0.9887  0.3040  0.0455
   97OSM   H11T 9641   3.039   2.658  26.165 -0.7179  0.5716 -0.6181
   97OSM   C12S 9642   3.223   2.558  26.119 -0.2477  0.3400 -0.0579
   97OSM   H12S 9643   3.185   2.459  26.154  1.2929  0.4183  2.0615
   97OSM   H12T 9644   3.278   2.599  26.206  1.8686 -0.8805 -0.7409
   97OSM   C13S 9645   3.335   2.553  26.014  0.3397 -0.4841  0.3693
   97OSM   H13S 9646   3.435   2.537  26.060  0.5955  0.8602  0.3415
   97OSM   H13T 9647   3.345   2.654  25.968  0.5562  0.8337  3.0510
   97OSM   C14S 9648   3.319   2.438  25.909 -0.8326 -0.1005 -0.1167
   97OSM   H14S 9649   3.390   2.449  25.824 -1.0225  1.5809 -0.0802
   97OSM   H14T 9650   3.217   2.424  25.867 -0.7838 -1.0495  0.0619
   97OSM   C15S 9651   3.342   2.302  25.977  0.3507 -0.1701  0.2427
   97OSM   H15S 9652   3.270   2.274  26.056 -0.8332 -1.6062 -1.2745
   97OSM   H15T 9653   3.440   2.325  26.025 -0.3918  0.5817  1.4533
   97OSM   C16S 9654   3.345   2.184  25.881  0.0148 -0.2115 -0.8129
   97OSM   H16S 9655   3.443   2.132  25.891  0.7163  1.3120  0.9573
   97OSM   H16T 9656   3.345   2.234  25.782 -1.4751  1.7952  0.1209
   97OSM   C17S 9657   3.219   2.091  25.898  0.3661 -0.6028  0.0873
   97OSM   H17S 9658   3.232   2.034  25.993  2.2433 -2.0352 -0.9438
   97OSM   H17T 9659   3.230   2.011  25.822  1.0774  1.8615 -2.5917
   97OSM   C18S 9660   3.089   2.169  25.888 -0.4642  0.0634  0.2895
   97OSM   H18S 9661   3.012   2.101  25.846 -1.8399  0.8702  1.4170
   97OSM   H18T 9662   3.103   2.260  25.827  2.0955 -1.0170 -0.8727
   97OSM   H18U 9663   3.078   2.202  25.994  2.3859 -1.1978  1.0646
   97OSM    C1F 9664   3.548   3.051  26.855  0.2749 -0.2150  0.3720
   97OSM     OF 9665   3.495   3.087  26.958 -0.1252 -0.2134 -0.3240
   97OSM    C2F 9666   3.621   2.924  26.843 -0.3853  0.2601 -0.2622
   97OSM    H2F 9667   3.699   2.946  26.767 -2.4968  1.1814 -2.3208
   97OSM    H2G 9668   3.544   2.854  26.801 -2.9303  2.0054  1.2061
   97OSM    C3F 9669   3.676   2.859  26.972  0.5565 -0.0434 -0.0150
   97OSM    H3F 9670   3.585   2.839  27.032  0.7135 -0.2023  0.1742
   97OSM    H3G 9671   3.727   2.933  27.038 -2.3258  2.5871 -0.4825
   97OSM    C4F 9672   3.752   2.727  26.945  0.0399 -0.1767  0.1221
   97OSM    H4F 9673   3.824   2.725  27.029 -0.8142 -0.4681  0.8642
   97OSM    H4G 9674   3.806   2.725  26.848 -0.4602 -2.6470 -0.1623
   97OSM    C5F 9675   3.670   2.607  26.971  0.3940  0.5319  0.1838
   97OSM    H5F 9676   3.571   2.596  26.921 -0.0965 -0.0730  1.2726
   97OSM    H5G 9677   3.658   2.594  27.080 -2.0391  1.1180  0.0519
   97OSM    C6F 9678   3.743   2.474  26.933  0.4711  0.5620 -0.2942
   97OSM    H6F 9679   3.831   2.453  26.998 -0.7007  2.3967  1.9948
   97OSM    H6G 9680   3.774   2.481  26.826 -2.7111  3.0736 -1.2054
   97OSM    C7F 9681   3.651   2.357  26.952 -0.0612  0.0415  0.4540
   97OSM    H7F 9682   3.547   2.381  26.924  0.2805  1.6186  0.4622
   97OSM    H7G 9683   3.664   2.340  27.061  1.2132 -1.2000  0.1514
   97OSM    C8F 9684   3.694   2.216  26.891  0.1143 -0.0003 -0.1032
   97OSM    H8F 9685   3.630   2.146  26.949 -0.6188  0.0835 -0.8025
   97OSM    H8G 9686   3.800   2.192  26.914  0.4043  1.6365  0.3863
   97OSM    C9F 9687   3.669   2.195  26.738 -0.1873 -0.9002 -0.9736
   97OSM    H9F 9688   3.570   2.237  26.713  0.4556  0.8377 -0.7155
   97OSM   C10F 9689   3.752   2.146  26.643  0.3832 -0.6615 -0.5052
   97OSM   H10F 9690   3.722   2.125  26.539  2.9976  0.2193 -1.5267
   97OSM   C11F 9691   3.889   2.086  26.664 -0.1020 -0.8421  0.4181
   97OSM   H11F 9692   3.929   2.125  26.760  3.6152 -0.5621 -1.0523
   97OSM   H11G 9693   3.960   2.099  26.580  0.4206  0.9266  1.0984
   97OSM   C12F 9694   3.875   1.932  26.689  0.0169 -1.0771 -0.5643
   97OSM   H12F 9695   3.814   1.909  26.778  0.5410 -0.5370 -0.0594
   97OSM   H12G 9696   3.978   1.893  26.707 -0.4940 -1.5999  1.4657
   97OSM   C13F 9697   3.815   1.858  26.569 -0.0697  0.1375  0.5426
   97OSM   H13F 9698   3.884   1.871  26.483  0.1352  1.7922  0.9358
   97OSM   H13G 9699   3.718   1.905  26.541  0.0720  0.2584  0.2517
   97OSM   C14F 9700   3.791   1.706  26.593 -0.2219 -0.2730 -0.2489
   97OSM   H14F 9701   3.728   1.692  26.684  0.4591 -0.5490  0.1854
   97OSM   H14G 9702   3.883   1.653  26.626 -0.0579  0.6666  0.8634
   97OSM   C15F 9703   3.741   1.634  26.471 -0.1515  0.8037  0.1949
   97OSM   H15F 9704   3.821   1.640  26.393 -1.2510  1.1112 -0.9388
   97OSM   H15G 9705   3.656   1.686  26.422 -0.8003 -0.4825 -0.1022
   97OSM   C16F 9706   3.699   1.493  26.498  0.0667  0.4340 -0.1618
   97OSM   H16F 9707   3.611   1.492  26.567  2.0802  0.0883  2.5983
   97OSM   H16G 9708   3.782   1.439  26.549  1.5625  1.0456 -1.8404
   97OSM   C17F 9709   3.658   1.422  26.367  0.5959  0.0591  0.0486
   97OSM   H17F 9710   3.733   1.420  26.286  0.3639 -0.7739 -0.1521
   97OSM   H17G 9711   3.560   1.466  26.337  1.2540  1.6777  0.1458
   97OSM   C18F 9712   3.618   1.270  26.377  0.3136 -0.3703  0.0458
   97OSM   H18F 9713   3.567   1.236  26.285 -0.5209  1.7635 -0.3358
   97OSM   H18G 9714   3.558   1.246  26.468  0.3787  1.4991  0.6238
   97OSM   H18H 9715   3.718   1.222  26.390  0.6256  0.5304  1.1135
   98OSM      N 9716   3.214   3.773  26.694  0.1452  0.0719 -0.5661
   98OSM    C15 9717   3.150   3.818  26.569  0.8520 -0.1137 -0.2747
   98OSM   H15A 9718   3.168   3.753  26.485  0.2970  0.4719 -0.8633
   98OSM   H15B 9719   3.182   3.917  26.539 -1.7647  0.2880 -2.1199
   98OSM   H15C 9720   3.044   3.839  26.578  1.0571  0.2983  1.5499
   98OSM    C14 9721   3.348   3.729  26.657  0.4792  0.4559 -0.3036
   98OSM   H14A 9722   3.350   3.635  26.605  1.2033  0.0545  0.4410
   98OSM   H14B 9723   3.404   3.729  26.749  1.1870  1.0013 -0.7221
   98OSM   H14C 9724   3.393   3.803  26.591 -0.2209  0.1988 -1.0957
   98OSM    C13 9725   3.224   3.887  26.792  0.0454  0.9751  0.2553
   98OSM   H13A 9726   3.317   3.934  26.763 -1.0584  1.4110 -3.0313
   98OSM   H13B 9727   3.229   3.843  26.891 -0.4220  0.6226  0.1259
   98OSM   H13C 9728   3.144   3.960  26.797 -0.4388  0.6159 -1.7213
   98OSM    C12 9729   3.133   3.665  26.762  0.2245 -0.0498 -1.2646
   98OSM   H12A 9730   3.111   3.588  26.689 -2.2952  0.7989 -1.4857
   98OSM   H12B 9731   3.040   3.706  26.798  1.2595  1.9161 -0.6958
   98OSM    C11 9732   3.187   3.587  26.883  0.0347 -0.1586  0.4849
   98OSM   H11A 9733   3.273   3.520  26.861  0.3019 -0.3199  1.8972
   98OSM   H11B 9734   3.108   3.520  26.923  0.9556  0.2855  3.2589
   98OSM      P 9735   3.182   3.680  27.130  0.1032  0.2443  0.3566
   98OSM    O13 9736   3.279   3.770  27.192 -0.3899 -0.2362 -0.8436
   98OSM    O14 9737   3.040   3.713  27.147 -0.1818 -0.2638  0.0805
   98OSM    O11 9738   3.199   3.532  27.179  0.6087  0.8000  0.1314
   98OSM    O12 9739   3.219   3.688  26.983 -0.4534  0.9306  0.3682
   98OSM    C1S 9740   3.327   3.480  27.159  0.6684 -0.0649  0.2841
   98OSM    H1S 9741   3.394   3.540  27.223 -0.6784  2.3342 -0.4544
   98OSM    H1T 9742   3.357   3.498  27.053  0.0204  0.8126  0.2389
   98OSM     NF 9743   3.466   3.260  27.173  0.0693 -0.2688  0.3917
   98OSM    HNF 9744   3.469   3.217  27.083 -1.3546  2.1654 -0.9434
   98OSM    C2S 9745   3.336   3.326  27.202  0.6073 -0.1000  0.6359
   98OSM    H2S 9746   3.319   3.336  27.311 -0.7160 -2.0267  0.6694
   98OSM    C3S 9747   3.218   3.245  27.141 -0.2139 -0.0308 -0.0520
   98OSM    H3S 9748   3.231   3.244  27.031 -1.2029 -0.1936 -0.1824
   98OSM     O3 9749   3.087   3.299  27.158  0.2360  0.5202  0.4903
   98OSM    HO3 9750   3.111   3.392  27.155  0.8824  0.4573  2.1816
   98OSM    C4S 9751   3.226   3.093  27.182  0.0861  0.1430  0.6757
   98OSM    H4S 9752   3.312   3.041  27.138  0.0092  1.2390 -0.8260
   98OSM    C5S 9753   3.164   3.035  27.280  0.2833  0.0896  0.2280
   98OSM    H5S 9754   3.109   3.096  27.353 -1.2969 -2.3468  1.2089
   98OSM    C6S 9755   3.190   2.895  27.332  0.1394  1.2410  0.8724
   98OSM    H6S 9756   3.101   2.832  27.310  1.7708 -0.4012 -1.5905
   98OSM    H6T 9757   3.214   2.904  27.440 -0.9065 -1.5832  1.4231
   98OSM    C7S 9758   3.299   2.804  27.269  0.1278  0.5035  0.1655
   98OSM    H7S 9759   3.403   2.837  27.291  0.3023 -1.4872  2.8190
   98OSM    H7T 9760   3.280   2.769  27.166 -2.9660  0.1484  0.7796
   98OSM    C8S 9761   3.314   2.671  27.349  0.9271 -0.3500 -0.5221
   98OSM    H8S 9762   3.209   2.636  27.364  0.5265  1.4039  1.0738
   98OSM    H8T 9763   3.355   2.676  27.452 -0.4465  0.4166  0.0208
   98OSM    C9S 9764   3.400   2.571  27.277  0.5672  0.0844 -0.5015
   98OSM    H9S 9765   3.509   2.578  27.296  0.4782 -1.6989  0.8743
   98OSM    H9T 9766   3.384   2.571  27.167 -0.5359  0.8252 -0.3646
   98OSM   C10S 9767   3.359   2.435  27.325 -0.0051 -0.3596  0.5165
   98OSM   H10S 9768   3.261   2.407  27.282  0.3938 -2.7909  1.0361
   98OSM   H10T 9769   3.343   2.431  27.435 -0.6688 -2.6492  0.3861
   98OSM   C11S 9770   3.458   2.340  27.263 -0.1819  0.5455 -0.3777
   98OSM   H11S 9771   3.564   2.367  27.280 -0.1950  0.8931 -0.8131
   98OSM   H11T 9772   3.453   2.349  27.152  1.2227  1.0671 -0.4164
   98OSM   C12S 9773   3.432   2.191  27.308  0.0368  0.0849  0.7366
   98OSM   H12S 9774   3.356   2.139  27.245  0.7363 -0.2608  0.1696
   98OSM   H12T 9775   3.401   2.188  27.414  0.2430  1.3670  0.8423
   98OSM   C13S 9776   3.555   2.103  27.290 -0.0208  0.0140 -0.1270
   98OSM   H13S 9777   3.645   2.162  27.317  0.2458 -0.4293 -0.0328
   98OSM   H13T 9778   3.566   2.081  27.182  1.6615  0.1099 -0.0094
   98OSM   C14S 9779   3.544   1.969  27.367 -0.8916  0.0386 -0.0233
   98OSM   H14S 9780   3.442   1.926  27.357 -1.6540  2.0994 -1.9103
   98OSM   H14T 9781   3.566   1.986  27.475  1.2032 -0.6232 -0.3077
   98OSM   C15S 9782   3.646   1.868  27.317  0.4348  0.6391 -0.7648
   98OSM   H15S 9783   3.752   1.900  27.329  0.6354 -0.8195  2.5258
   98OSM   H15T 9784   3.640   1.848  27.208  2.2506  1.0957 -0.9783
   98OSM   C16S 9785   3.624   1.724  27.376 -0.3729  0.9699  0.1601
   98OSM   H16S 9786   3.530   1.669  27.353  1.4727 -2.5769  0.4352
   98OSM   H16T 9787   3.627   1.720  27.487 -0.1787  0.2851  0.1317
   98OSM   C17S 9788   3.733   1.632  27.317 -0.2578  0.3457 -0.0313
   98OSM   H17S 9789   3.825   1.695  27.314 -1.1498  1.6458 -1.8801
   98OSM   H17T 9790   3.717   1.613  27.209  1.3069  1.3676 -0.4740
   98OSM   C18S 9791   3.751   1.495  27.388  0.3507 -0.1389 -0.5535
   98OSM   H18S 9792   3.812   1.502  27.481 -3.4583  1.1771  2.0632
   98OSM   H18T 9793   3.794   1.423  27.314  0.6619  2.2123 -2.8111
   98OSM   H18U 9794   3.651   1.458  27.419 -0.7752  1.9496 -1.4573
   98OSM    C1F 9795   3.581   3.295  27.231 -0.0860 -1.0718  0.0869
   98OSM     OF 9796   3.579   3.384  27.314  0.1239  0.3874 -0.0478
   98OSM    C2F 9797   3.702   3.218  27.184  0.4217  0.0007  0.2225
   98OSM    H2F 9798   3.747   3.269  27.097 -0.4394  0.6800  0.1592
   98OSM    H2G 9799   3.662   3.116  27.162  0.8723 -0.7157  2.3988
   98OSM    C3F 9800   3.815   3.208  27.286 -0.5657 -0.0532 -0.1688
   98OSM    H3F 9801   3.782   3.186  27.390 -2.8888 -0.5465 -0.9569
   98OSM    H3G 9802   3.867   3.303  27.307  2.6196 -1.2715 -1.8188
   98OSM    C4F 9803   3.929   3.101  27.262 -0.3422  0.3416  0.2509
   98OSM    H4F 9804   3.975   3.106  27.161  2.0702  0.8670  1.3057
   98OSM    H4G 9805   3.889   2.999  27.276 -0.1853  0.5859  2.9242
   98OSM    C5F 9806   4.044   3.111  27.368 -0.3871  0.6479 -0.0417
   98OSM    H5F 9807   3.996   3.093  27.466 -1.2917  0.7494 -0.4580
   98OSM    H5G 9808   4.099   3.208  27.364  0.8187  0.0432  1.1601
   98OSM    C6F 9809   4.134   2.985  27.344  0.2768 -0.1789  0.5351
   98OSM    H6F 9810   4.168   2.976  27.238 -1.3028  1.2958 -0.1450
   98OSM    H6G 9811   4.086   2.891  27.381 -0.0755  0.1671  0.9695
   98OSM    C7F 9812   4.265   2.986  27.428  0.1930 -0.3924  0.3207
   98OSM    H7F 9813   4.245   2.989  27.538  1.7280 -0.0947  0.6040
   98OSM    H7G 9814   4.318   3.079  27.401 -3.3505  1.6788 -0.1912
   98OSM    C8F 9815   4.363   2.870  27.406  0.4935  0.2160 -0.8025
   98OSM    H8F 9816   4.454   2.886  27.468 -0.3537  1.2488  0.2319
   98OSM    H8G 9817   4.394   2.869  27.300  4.7165 -0.6774  0.2720
   98OSM    C9F 9818   4.307   2.744  27.464  0.5206 -0.2158 -0.5214
   98OSM    H9F 9819   4.262   2.760  27.563 -0.0764 -0.5509 -0.7336
   98OSM   C10F 9820   4.323   2.620  27.415 -0.1737  0.4306  0.0113
   98OSM   H10F 9821   4.289   2.528  27.464  0.6869 -0.4539 -0.9874
   98OSM   C11F 9822   4.402   2.599  27.286  1.2099  0.1353 -0.5565
   98OSM   H11F 9823   4.473   2.514  27.299  1.6983  0.3111 -1.8918
   98OSM   H11G 9824   4.471   2.684  27.266  0.6830  0.5056 -0.7980
   98OSM   C12F 9825   4.312   2.558  27.162  0.0820 -0.3690 -0.6718
   98OSM   H12F 9826   4.253   2.465  27.178  3.0756 -2.0464  1.6745
   98OSM   H12G 9827   4.379   2.547  27.074  1.2820  0.6950  0.0735
   98OSM   C13F 9828   4.215   2.675  27.140  0.8923  0.2853  1.5180
   98OSM   H13F 9829   4.277   2.767  27.132 -0.4728  1.3166  2.2782
   98OSM   H13G 9830   4.148   2.688  27.228 -0.5991 -2.7789  0.9882
   98OSM   C14F 9831   4.133   2.657  27.011  0.3471 -0.5117 -0.1520
   98OSM   H14F 9832   4.050   2.730  27.007  1.2805  0.8975  3.0126
   98OSM   H14G 9833   4.080   2.559  27.007  2.5175 -1.7792  0.1930
   98OSM   C15F 9834   4.209   2.673  26.883  0.2465  0.1010 -0.1581
   98OSM   H15F 9835   4.289   2.597  26.872  2.4004  2.4723 -2.4063
   98OSM   H15G 9836   4.257   2.773  26.869 -0.1699  0.0497 -2.2488
   98OSM   C16F 9837   4.118   2.648  26.763  0.4267  0.4183  0.2450
   98OSM   H16F 9838   4.159   2.713  26.682  0.7637  0.3985  0.4006
   98OSM   H16G 9839   4.012   2.678  26.782 -0.0800  1.0151 -2.9075
   98OSM   C17F 9840   4.117   2.499  26.707 -0.0260  0.1794  0.0595
   98OSM   H17F 9841   4.074   2.441  26.790 -0.2064  1.7118  1.0832
   98OSM   H17G 9842   4.219   2.461  26.685 -0.1988  1.0967 -2.7988
   98OSM   C18F 9843   4.037   2.480  26.573  0.3876 -0.0203 -0.6494
   98OSM   H18F 9844   3.927   2.490  26.584  0.1158 -3.2682  0.7833
   98OSM   H18G 9845   4.058   2.374  26.549  0.0966 -0.4835  0.9884
   98OSM   H18H 9846   4.064   2.547  26.489  2.9994 -1.6037 -1.1875
   99OSM      N 9847   2.244   3.243  30.793  0.5927 -0.0103  0.1273
   99OSM    C15 9848   2.138   3.222  30.900 -0.3505  0.1381 -0.4396
   99OSM   H15A 9849   2.045   3.194  30.852 -0.1193  1.9054 -2.0594
   99OSM   H15B 9850   2.135   3.311  30.961  2.7564 -0.1465  0.2809
   99OSM   H15C 9851   2.172   3.139  30.960  0.2905  0.3662 -0.4759
   99OSM    C14 9852   2.213   3.373  30.720  0.0205  0.6626  0.3682
   99OSM   H14A 9853   2.117   3.374  30.669  0.4869 -1.5794 -0.6765
   99OSM   H14B 9854   2.297   3.386  30.654 -0.6222  1.7693 -0.2628
   99OSM   H14C 9855   2.216   3.453  30.793  1.1449  0.1217  0.9440
   99OSM    C13 9856   2.379   3.269  30.850 -0.0724 -0.6532 -0.6809
   99OSM   H13A 9857   2.376   3.357  30.913  0.3318  0.2485 -1.8722
   99OSM   H13B 9858   2.453   3.281  30.772  0.2011 -2.9503 -0.8533
   99OSM   H13C 9859   2.415   3.179  30.897 -0.0917 -0.5466 -0.4619
   99OSM    C12 9860   2.241   3.123  30.693  0.3854 -0.7824 -0.2421
   99OSM   H12A 9861   2.141   3.126  30.652  0.6129  0.2742 -0.7725
   99OSM   H12B 9862   2.262   3.030  30.743  0.0696 -0.8046 -0.1544
   99OSM    C11 9863   2.339   3.133  30.572  0.1877 -0.0858 -0.2470
   99OSM   H11A 9864   2.316   3.226  30.517  0.6246 -0.7081 -1.5239
   99OSM   H11B 9865   2.308   3.041  30.517 -1.6232  0.2215  0.1993
   99OSM      P 9866   2.599   3.175  30.524  0.4926 -0.1547 -0.1814
   99OSM    O13 9867   2.619   3.321  30.528  0.2819  0.0057  0.3314
   99OSM    O14 9868   2.712   3.091  30.556  0.1743  0.0781 -0.5415
   99OSM    O11 9869   2.549   3.147  30.381 -0.2534  0.0833 -0.2751
   99OSM    O12 9870   2.476   3.133  30.619 -0.0780  0.5989  0.1256
   99OSM    C1S 9871   2.617   3.080  30.278  0.0077 -0.3362 -0.0028
   99OSM    H1S 9872   2.723   3.054  30.295  0.5273  0.5307 -1.6966
   99OSM    H1T 9873   2.617   3.143  30.187 -0.4015  1.9281  1.4792
   99OSM     NF 9874   2.613   2.856  30.176 -0.3170  0.2534  0.8818
   99OSM    HNF 9875   2.609   2.857  30.076  0.7598  0.8318  0.8390
   99OSM    C2S 9876   2.529   2.951  30.249  0.1665  0.9050  0.0169
   99OSM    H2S 9877   2.502   2.899  30.344  2.0113 -1.0218 -0.4207
   99OSM    C3S 9878   2.396   2.994  30.177 -0.1259  0.5493  0.3822
   99OSM    H3S 9879   2.418   3.037  30.077 -0.4611  0.2538  0.1778
   99OSM     O3 9880   2.316   3.089  30.244  0.4063 -0.5276 -0.2449
   99OSM    HO3 9881   2.378   3.131  30.304 -0.0019 -1.5322  0.9209
   99OSM    C4S 9882   2.308   2.874  30.165 -0.4794  0.4251 -0.1155
   99OSM    H4S 9883   2.276   2.836  30.263 -2.9681  3.0713  0.2418
   99OSM    C5S 9884   2.281   2.805  30.053  0.5557 -0.4369  0.1210
   99OSM    H5S 9885   2.315   2.840  29.954  0.5912 -2.2298 -0.5530
   99OSM    C6S 9886   2.211   2.673  30.044 -0.0923  0.0554 -0.3327
   99OSM    H6S 9887   2.102   2.680  30.022 -0.2260 -1.7392 -0.3646
   99OSM    H6T 9888   2.221   2.614  30.138  0.2335  0.3607 -0.1756
   99OSM    C7S 9889   2.262   2.585  29.934  0.2301 -0.7755 -0.4316
   99OSM    H7S 9890   2.253   2.632  29.834  1.5238  1.1335  0.2988
   99OSM    H7T 9891   2.198   2.494  29.938 -0.9424  0.0585  2.6055
   99OSM    C8S 9892   2.405   2.544  29.958 -0.4594 -0.1861 -0.6370
   99OSM    H8S 9893   2.420   2.510  30.063  0.4284 -1.7240 -1.2296
   99OSM    H8T 9894   2.470   2.634  29.948 -2.1777  1.1725 -0.1374
   99OSM    C9S 9895   2.436   2.427  29.859 -0.2904  0.4720  0.1857
   99OSM    H9S 9896   2.392   2.465  29.764  1.5188  1.1174 -0.4427
   99OSM    H9T 9897   2.380   2.335  29.887  1.3166 -0.4661  0.4492
   99OSM   C10S 9898   2.590   2.401  29.858  0.0410 -0.4907  0.0955
   99OSM   H10S 9899   2.624   2.358  29.955 -0.2496  1.2956  1.0256
   99OSM   H10T 9900   2.632   2.501  29.837  0.6025 -0.2888  1.9827
   99OSM   C11S 9901   2.645   2.298  29.759 -0.6702 -0.2449  0.3022
   99OSM   H11S 9902   2.611   2.194  29.779 -2.3223  0.0444 -0.8779
   99OSM   H11T 9903   2.756   2.299  29.757 -0.5858  0.8396 -4.0888
   99OSM   C12S 9904   2.603   2.334  29.617  0.5696 -0.2505  0.4902
   99OSM   H12S 9905   2.641   2.251  29.554 -0.6152 -1.1876  0.9719
   99OSM   H12T 9906   2.492   2.335  29.615  0.5789  1.1948  0.2194
   99OSM   C13S 9907   2.645   2.474  29.563  1.1650 -0.5734  0.5319
   99OSM   H13S 9908   2.753   2.501  29.571  1.0915  0.4101 -1.2654
   99OSM   H13T 9909   2.592   2.559  29.609 -1.6158 -0.5949 -2.2952
   99OSM   C14S 9910   2.599   2.479  29.410 -0.8125  0.0464  0.5897
   99OSM   H14S 9911   2.678   2.432  29.347 -2.6236 -1.6099 -0.5826
   99OSM   H14T 9912   2.594   2.585  29.379 -0.6652  0.7342  2.7902
   99OSM   C15S 9913   2.474   2.408  29.369  0.4697  0.7094 -0.7610
   99OSM   H15S 9914   2.397   2.429  29.446  0.1932  1.2687 -1.1760
   99OSM   H15T 9915   2.496   2.299  29.369 -0.2098  0.5688 -1.0053
   99OSM   C16S 9916   2.432   2.450  29.223  0.9874  0.1651  0.2932
   99OSM   H16S 9917   2.455   2.558  29.208  0.5914  0.2871  0.5478
   99OSM   H16T 9918   2.322   2.439  29.212  0.7995 -0.6550  2.4469
   99OSM   C17S 9919   2.500   2.379  29.117 -0.3838 -0.5456  0.5011
   99OSM   H17S 9920   2.452   2.282  29.093  0.4110 -0.6597 -0.7242
   99OSM   H17T 9921   2.605   2.359  29.148 -0.9787 -1.0392  2.3108
   99OSM   C18S 9922   2.511   2.465  28.988 -0.0401  0.6988 -0.5498
   99OSM   H18S 9923   2.548   2.400  28.906  0.5601  1.6166 -1.0223
   99OSM   H18T 9924   2.579   2.551  29.003  2.5233 -0.8840 -2.3039
   99OSM   H18U 9925   2.410   2.495  28.952 -1.1430 -1.2648  0.7339
   99OSM    C1F 9926   2.716   2.798  30.238 -0.2134 -0.6474 -0.3202
   99OSM     OF 9927   2.705   2.771  30.356  0.0200 -0.4344 -0.1096
   99OSM    C2F 9928   2.835   2.765  30.152  0.6520 -0.2989  0.4684
   99OSM    H2F 9929   2.866   2.856  30.096  3.0827 -0.0797  2.0057
   99OSM    H2G 9930   2.789   2.691  30.084  0.5538  0.5359 -0.3827
   99OSM    C3F 9931   2.957   2.702  30.208 -0.2715 -0.4008  0.5244
   99OSM    H3F 9932   3.013   2.781  30.264 -1.9791  1.6907 -0.5679
   99OSM    H3G 9933   2.934   2.621  30.280 -2.4082  0.4524  0.8648
   99OSM    C4F 9934   3.053   2.650  30.092  0.1190  0.7106  0.0382
   99OSM    H4F 9935   3.149   2.621  30.139 -0.2662 -1.5638 -0.4671
   99OSM    H4G 9936   3.076   2.735  30.024  0.4290  2.2261  1.9438
   99OSM    C5F 9937   2.986   2.543  30.005  0.3559 -0.3360  0.1952
   99OSM    H5F 9938   2.908   2.586  29.938  0.9060  0.4919  0.0737
   99OSM    H5G 9939   2.925   2.488  30.081 -3.4500  2.6929 -0.3204
   99OSM    C6F 9940   3.072   2.441  29.926 -0.2986 -0.5272 -0.1394
   99OSM    H6F 9941   3.159   2.489  29.878 -1.0112  0.0989 -0.8437
   99OSM    H6G 9942   3.014   2.414  29.835 -0.2706  0.5165 -0.4886
   99OSM    C7F 9943   3.115   2.322  30.004  0.3483 -0.3546 -0.0206
   99OSM    H7F 9944   3.026   2.263  30.033 -1.5370  1.9518 -0.7874
   99OSM    H7G 9945   3.166   2.357  30.097  0.2778 -2.2132  0.7631
   99OSM    C8F 9946   3.206   2.219  29.934 -0.1274  0.4311 -0.6547
   99OSM    H8F 9947   3.151   2.192  29.841  4.2825  0.5550 -3.5986
   99OSM    H8G 9948   3.212   2.134  30.004  0.2976 -1.0299 -2.4008
   99OSM    C9F 9949   3.339   2.278  29.908  0.0923  0.2096  0.1857
   99OSM    H9F 9950   3.380   2.346  29.984 -0.1812 -0.1219  0.6346
   99OSM   C10F 9951   3.416   2.259  29.797 -0.3292 -0.4114 -0.3536
   99OSM   H10F 9952   3.516   2.306  29.796  0.8935 -2.8608 -1.0584
   99OSM   C11F 9953   3.389   2.180  29.675  0.1638  0.3864 -0.1234
   99OSM   H11F 9954   3.312   2.100  29.681  0.5075 -0.0686 -1.4129
   99OSM   H11G 9955   3.480   2.128  29.637 -1.0588 -0.9692 -1.3188
   99OSM   C12F 9956   3.348   2.280  29.562  0.5076 -0.2142 -0.2189
   99OSM   H12F 9957   3.255   2.329  29.598 -0.4536 -2.1076  0.0152
   99OSM   H12G 9958   3.323   2.212  29.478  0.1351  1.7029 -1.7218
   99OSM   C13F 9959   3.463   2.378  29.525  1.0099 -0.2143  1.2319
   99OSM   H13F 9960   3.545   2.311  29.491 -0.3663 -1.4258  0.1697
   99OSM   H13G 9961   3.491   2.436  29.616  3.6902 -1.5762  1.3693
   99OSM   C14F 9962   3.415   2.462  29.412  0.4942  0.0235  0.8686
   99OSM   H14F 9963   3.324   2.519  29.439  0.3594  0.0684  0.3439
   99OSM   H14G 9964   3.395   2.403  29.320  3.4180  1.3738 -0.7932
   99OSM   C15F 9965   3.521   2.570  29.377  0.4343 -0.6102  0.4212
   99OSM   H15F 9966   3.618   2.523  29.350  1.6276  1.9183  0.1115
   99OSM   H15G 9967   3.535   2.626  29.471 -0.0356  1.1069 -0.4954
   99OSM   C16F 9968   3.482   2.657  29.249 -0.5207 -0.0916 -0.8908
   99OSM   H16F 9969   3.546   2.747  29.248 -0.2849 -0.0048  3.3292
   99OSM   H16G 9970   3.381   2.697  29.269  0.2470  0.5871  2.2809
   99OSM   C17F 9971   3.486   2.585  29.114  0.6363 -0.2761  0.5110
   99OSM   H17F 9972   3.431   2.488  29.117 -0.3162  0.0870 -2.3365
   99OSM   H17G 9973   3.591   2.555  29.099  0.5946 -0.2176  0.0932
   99OSM   C18F 9974   3.430   2.668  28.993 -0.2703 -0.2443 -0.1690
   99OSM   H18F 9975   3.392   2.598  28.916 -0.4673  0.8088 -1.0558
   99OSM   H18G 9976   3.511   2.734  28.957  0.5437 -0.6677  0.8336
   99OSM   H18H 9977   3.351   2.737  29.030 -0.1218  0.2691 -0.8035
  100OSM      N 9978   1.776   0.019  26.262 -0.2861 -0.7915 -0.5165
  100OSM    C15 9979   1.845   0.015  26.401 -0.1330 -0.1224  0.1491
  100OSM   H15A 9980   1.944   0.050  26.376 -0.4001 -0.9815 -2.5189
  100OSM   H15B 9981   1.853  -0.089  26.429  1.4827 -0.1564 -0.3160
  100OSM   H15C 9982   1.802   0.068  26.484 -0.6665  0.4744 -0.4936
  100OSM    C14 9983   1.629  -0.023  26.287  0.4366  0.4347  0.5719
  100OSM   H14A 9984   1.574   0.026  26.366  0.7178 -0.1838  1.1585
  100OSM   H14B 9985   1.633  -0.129  26.307  2.0352  0.0098 -1.5958
  100OSM   H14C 9986   1.567  -0.012  26.199 -1.6698 -2.8905  1.4620
  100OSM    C13 9987   1.777   0.156  26.206 -0.0204  0.1205 -0.0560
  100OSM   H13A 9988   1.736   0.219  26.283 -1.1140 -0.6566  0.0237
  100OSM   H13B 9989   1.708   0.151  26.122 -0.8530 -2.6335  0.7092
  100OSM   H13C 9990   1.873   0.191  26.172 -0.4340 -0.3272 -1.7907
  100OSM    C12 9991   1.838  -0.084  26.170  0.3766 -0.0216  0.0361
  100OSM   H12A 9992   1.938  -0.048  26.151 -0.3838  1.8472 -0.6892
  100OSM   H12B 9993   1.795  -0.090  26.071  1.5266 -1.0674 -0.4198
  100OSM    C11 9994   1.860  -0.231  26.219  1.0570  0.1905 -0.8075
  100OSM   H11A 9995   1.929  -0.225  26.306  1.6124 -1.0434 -1.1426
  100OSM   H11B 9996   1.912  -0.286  26.138  2.4618 -4.2577  2.6639
  100OSM      P 9997   1.782  -0.444  26.320 -0.0314 -0.7997  0.0091
  100OSM    O13 9998   1.869  -0.522  26.229  0.0008  0.2799  0.0347
  100OSM    O14 9999   1.826  -0.409  26.456  0.4938 -0.0485  0.4371
  100OSM    O1110000   1.649  -0.520  26.329  0.2687  0.2186  0.5735
  100OSM    O1210001   1.741  -0.309  26.251 -0.1207  0.1347 -0.0659
  100OSM    C1S10002   1.562  -0.537  26.215 -0.2350 -0.5026  0.1266
  100OSM    H1S10003   1.622  -0.525  26.122  1.1595 -0.5059  1.0109
  100OSM    H1T10004   1.487  -0.455  26.217 -0.0582 -0.2881 -1.0996
  100OSM     NF10005   1.415  -0.677  26.080  0.3063  0.2368 -0.1499
  100OSM    HNF10006   1.323  -0.641  26.092  0.6909  1.7054 -1.2552
  100OSM    C2S10007   1.483  -0.670  26.210  0.3218 -0.0547 -0.1483
  100OSM    H2S10008   1.570  -0.739  26.211  1.6817  1.4870 -2.2375
  100OSM    C3S10009   1.393  -0.671  26.341 -0.6088  1.0066  0.4291
  100OSM    H3S10010   1.324  -0.584  26.343 -0.9508  0.7420  0.3057
  100OSM     O310011   1.464  -0.672  26.471 -0.3662  0.5702  0.2171
  100OSM    HO310012   1.548  -0.633  26.444  0.1856 -0.8202 -0.1733
  100OSM    C4S10013   1.315  -0.801  26.328  0.3579  0.4436 -0.1322
  100OSM    H4S10014   1.235  -0.802  26.253 -1.2789  1.2428  1.5186
  100OSM    C5S10015   1.329  -0.915  26.400  0.8339 -0.4701 -0.8214
  100OSM    H5S10016   1.407  -0.915  26.478 -0.5011 -2.2654  0.6222
  100OSM    C6S10017   1.257  -1.046  26.376 -0.5835 -0.4332  0.1967
  100OSM    H6S10018   1.196  -1.044  26.284  0.9861  0.0844 -0.8709
  100OSM    H6T10019   1.183  -1.066  26.456 -2.4330 -0.2660 -1.4165
  100OSM    C7S10020   1.350  -1.161  26.362 -0.0234  0.0746 -0.4189
  100OSM    H7S10021   1.424  -1.169  26.444 -1.8677 -1.2183  1.2185
  100OSM    H7T10022   1.420  -1.153  26.276  1.0388 -0.3672  0.3901
  100OSM    C8S10023   1.260  -1.293  26.348 -0.3869  0.0746 -0.7339
  100OSM    H8S10024   1.190  -1.273  26.264  1.2549  0.3010 -2.1069
  100OSM    H8T10025   1.205  -1.316  26.442 -0.6627 -0.7361 -1.0822
  100OSM    C9S10026   1.343  -1.423  26.321  0.1469 -0.3156 -0.1745
  100OSM    H9S10027   1.429  -1.425  26.391 -0.3490  0.5527  0.4737
  100OSM    H9T10028   1.373  -1.418  26.214  0.4557  0.4382 -0.0610
  100OSM   C10S10029   1.253  -1.547  26.316  0.2461 -0.3684  0.2240
  100OSM   H10S10030   1.174  -1.528  26.240  0.3042 -0.4798  0.1373
  100OSM   H10T10031   1.203  -1.562  26.414  0.6777  0.9513  0.6708
  100OSM   C11S10032   1.335  -1.675  26.281  0.8710 -0.0228  0.4367
  100OSM   H11S10033   1.414  -1.681  26.358  1.5149  0.2394 -0.1980
  100OSM   H11T10034   1.371  -1.666  26.177  0.5914  2.0494  0.4598
  100OSM   C12S10035   1.251  -1.802  26.290  0.4431  0.4262  0.1028
  100OSM   H12S10036   1.316  -1.891  26.279 -0.8425 -0.3533 -1.9538
  100OSM   H12T10037   1.180  -1.808  26.204  0.9288 -4.0790 -0.2624
  100OSM   C13S10038   1.166  -1.814  26.417  0.2404 -0.4348 -0.2561
  100OSM   H13S10039   1.089  -1.734  26.413 -0.7431 -1.3499 -0.2016
  100OSM   H13T10040   1.239  -1.809  26.500  0.1999 -0.7069 -0.2031
  100OSM   C14S10041   1.080  -1.936  26.436  0.0471 -0.8600 -0.1866
  100OSM   H14S10042   1.144  -2.016  26.392  0.2300 -0.2637 -1.0394
  100OSM   H14T10043   0.985  -1.927  26.379  0.6226 -0.9809 -1.1994
  100OSM   C15S10044   1.049  -1.959  26.589  0.0712 -0.9208  0.5951
  100OSM   H15S10045   1.020  -1.863  26.639  1.7425 -0.7468  1.3066
  100OSM   H15T10046   1.150  -1.988  26.624  0.7106 -1.3265 -1.4753
  100OSM   C16S10047   0.938  -2.069  26.605 -0.5596 -0.0905  0.3762
  100OSM   H16S10048   0.974  -2.170  26.575  0.6098  0.3660  0.1945
  100OSM   H16T10049   0.855  -2.034  26.539 -0.2140 -0.0738 -0.0547
  100OSM   C17S10050   0.883  -2.078  26.752  0.3676  0.5714 -0.0268
  100OSM   H17S10051   0.822  -1.988  26.775 -1.0826 -0.4079  0.0852
  100OSM   H17T10052   0.975  -2.097  26.812  1.5270  0.5042 -1.7681
  100OSM   C18S10053   0.784  -2.194  26.753  0.2586 -0.1928  0.1464
  100OSM   H18S10054   0.828  -2.295  26.735  0.6707  0.1001 -0.5437
  100OSM   H18T10055   0.701  -2.183  26.680  1.7623  0.3253 -1.5624
  100OSM   H18U10056   0.745  -2.200  26.857  3.8790 -1.8968  1.5832
  100OSM    C1F10057   1.472  -0.692  25.957  0.1048 -0.2459  0.0691
  100OSM     OF10058   1.424  -0.650  25.854 -0.0657  0.1425  0.3329
  100OSM    C2F10059   1.601  -0.770  25.953 -0.1075  0.1570  0.2052
  100OSM    H2F10060   1.605  -0.848  26.032  0.0163 -0.3387 -0.2817
  100OSM    H2G10061   1.682  -0.700  25.982 -0.3596 -0.0078  1.3698
  100OSM    C3F10062   1.623  -0.828  25.808  0.3614 -0.4160 -0.8033
  100OSM    H3F10063   1.663  -0.750  25.740  0.3458 -0.9087 -1.3880
  100OSM    H3G10064   1.520  -0.851  25.776 -0.8268  2.0230  0.9351
  100OSM    C4F10065   1.724  -0.949  25.808  0.6314 -0.3529 -0.1576
  100OSM    H4F10066   1.822  -0.924  25.854  1.6491 -1.6890 -1.4606
  100OSM    H4G10067   1.748  -0.972  25.701 -0.0004  0.2755 -0.4355
  100OSM    C5F10068   1.667  -1.075  25.872  0.3708 -0.1659  0.2884
  100OSM    H5F10069   1.577  -1.106  25.816  1.7503 -2.3335 -0.8860
  100OSM    H5G10070   1.648  -1.076  25.982 -0.2550  0.1178  0.1885
  100OSM    C6F10071   1.768  -1.183  25.832  0.0519  0.4239  1.0180
  100OSM    H6F10072   1.865  -1.156  25.879 -0.6661 -0.0171  2.8352
  100OSM    H6G10073   1.775  -1.185  25.721 -1.1278 -0.2564  0.9440
  100OSM    C7F10074   1.731  -1.317  25.883  0.1606 -0.9888  0.0055
  100OSM    H7F10075   1.629  -1.348  25.852 -0.5973  0.9375  0.4736
  100OSM    H7G10076   1.716  -1.305  25.993 -0.3589 -0.2871 -0.1373
  100OSM    C8F10077   1.815  -1.434  25.837 -0.1172 -0.2739 -0.1670
  100OSM    H8F10078   1.922  -1.413  25.858  0.6788 -1.0098 -3.1051
  100OSM    H8G10079   1.807  -1.453  25.728 -0.8160 -1.1290  0.0255
  100OSM    C9F10080   1.762  -1.562  25.900 -0.8573 -0.9236 -0.9780
  100OSM    H9F10081   1.694  -1.548  25.985 -0.5663  0.0447 -0.8892
  100OSM   C10F10082   1.799  -1.691  25.876 -0.0345 -0.8826 -0.5352
  100OSM   H10F10083   1.759  -1.768  25.942  0.0692 -0.2134  0.3275
  100OSM   C11F10084   1.896  -1.736  25.769  0.5178  0.3628 -0.0942
  100OSM   H11F10085   1.957  -1.645  25.749  0.8971 -0.0715 -0.9730
  100OSM   H11G10086   1.833  -1.766  25.682 -1.9586  0.0921  1.6906
  100OSM   C12F10087   1.973  -1.863  25.810  0.0598 -0.0398  0.0442
  100OSM   H12F10088   1.999  -1.871  25.917 -1.3115  0.5022  0.4367
  100OSM   H12G10089   2.076  -1.866  25.769  0.8224 -0.9177  1.9414
  100OSM   C13F10090   1.908  -1.996  25.761  0.1323 -0.0481  0.7561
  100OSM   H13F10091   1.910  -1.999  25.650 -0.5735  2.4911  0.6075
  100OSM   H13G10092   1.806  -1.979  25.801 -1.1707  0.5324 -2.4962
  100OSM   C14F10093   1.965  -2.122  25.829  0.4232 -0.1735  0.9617
  100OSM   H14F10094   1.937  -2.122  25.936 -0.5435  0.3631  0.7234
  100OSM   H14G10095   2.073  -2.123  25.802  0.3570  2.2340  0.3098
  100OSM   C15F10096   1.898  -2.247  25.760  1.0246  0.1830  0.2578
  100OSM   H15F10097   1.899  -2.230  25.651 -0.8656 -0.7209  0.0629
  100OSM   H15G10098   1.795  -2.243  25.803  1.9278  0.0894  2.5749
  100OSM   C16F10099   1.967  -2.382  25.785 -0.3801 -0.0360  0.1113
  100OSM   H16F10100   2.061  -2.382  25.726  1.1277  1.9143  2.3162
  100OSM   H16G10101   1.895  -2.461  25.756 -1.1242  1.8891 -3.9193
  100OSM   C17F10102   2.009  -2.410  25.925 -0.4861 -0.0401 -0.4487
  100OSM   H17F10103   1.919  -2.390  25.987 -0.6284  0.8838 -0.9315
  100OSM   H17G10104   2.094  -2.341  25.946 -1.7646  1.4013  0.2572
  100OSM   C18F10105   2.041  -2.563  25.948 -0.2567  1.3422 -0.3426
  100OSM   H18F10106   2.144  -2.605  25.940 -1.1502 -0.8051 -1.3240
  100OSM   H18G10107   1.982  -2.629  25.882  1.8936 -2.7075  1.4083
  100OSM   H18H10108   1.992  -2.591  26.044 -0.3046  1.4576 -0.3344
  101OSM      N10109   3.193   3.948  25.424 -0.0657 -0.1435  0.0492
  101OSM    C1510110   3.229   3.800  25.417  0.2556 -0.0053  0.3496
  101OSM   H15A10111   3.335   3.783  25.411  0.2890  0.3156 -0.0181
  101OSM   H15B10112   3.200   3.749  25.326 -2.0260  1.3538  0.2204
  101OSM   H15C10113   3.187   3.743  25.498  0.8284 -0.1481  0.5482
  101OSM    C1410114   3.042   3.956  25.424 -0.1511 -0.2231  0.1456
  101OSM   H14A10115   3.002   3.926  25.328 -1.2598  0.7012  0.3038
  101OSM   H14B10116   3.012   4.056  25.451  0.4157 -0.0471  0.1225
  101OSM   H14C10117   2.994   3.889  25.494  0.3452  0.4629  1.1602
  101OSM    C1310118   3.231   4.005  25.552 -0.2506 -0.2974  0.1954
  101OSM   H13A10119   3.339   4.007  25.557 -0.1442  1.1544 -1.7302
  101OSM   H13B10120   3.190   3.937  25.625 -1.3906 -3.0424 -2.7582
  101OSM   H13C10121   3.202   4.109  25.560  1.6197  0.2511  0.4078
  101OSM    C1210122   3.249   4.025  25.301 -0.2249  0.3237  0.4261
  101OSM   H12A10123   3.197   3.993  25.212  1.2022 -2.2155  0.4294
  101OSM   H12B10124   3.354   4.007  25.281 -0.6803 -0.9729 -0.9517
  101OSM    C1110125   3.234   4.179  25.310 -0.3190  0.2409 -0.5479
  101OSM   H11A10126   3.316   4.213  25.378  0.1104  1.0769 -1.4635
  101OSM   H11B10127   3.140   4.205  25.363  0.7012 -1.1419  2.1462
  101OSM      P10128   3.157   4.306  25.103 -0.2183  0.5444  0.1204
  101OSM    O1310129   3.203   4.314  24.963  0.2088 -0.0614  0.1378
  101OSM    O1410130   3.027   4.239  25.128 -0.2555  0.2151  0.1060
  101OSM    O1110131   3.150   4.448  25.164 -0.3181  0.0324  0.0502
  101OSM    O1210132   3.274   4.234  25.186  0.0330  0.3049 -0.3887
  101OSM    C1S10133   3.251   4.549  25.180 -0.4387 -0.1467  0.4901
  101OSM    H1S10134   3.269   4.606  25.086  2.7722 -2.3974 -0.4776
  101OSM    H1T10135   3.349   4.501  25.201  1.4309  2.4288 -1.5262
  101OSM     NF10136   3.292   4.781  25.270  0.6645 -0.3220 -0.4654
  101OSM    HNF10137   3.389   4.775  25.293  0.2060 -2.0861  1.2824
  101OSM    C2S10138   3.220   4.650  25.290 -0.1024  0.4161 -0.8411
  101OSM    H2S10139   3.112   4.672  25.283 -0.2683 -0.5376 -1.4828
  101OSM    C3S10140   3.237   4.582  25.432 -0.0249 -0.0625  0.4217
  101OSM    H3S10141   3.345   4.557  25.446 -0.4564 -3.0480 -0.9433
  101OSM     O310142   3.174   4.452  25.439  0.5068 -0.7211 -0.5937
  101OSM    HO310143   3.148   4.454  25.346  0.0631  2.2740 -0.5101
  101OSM    C4S10144   3.190   4.676  25.528  0.5734  0.0107 -0.7563
  101OSM    H4S10145   3.081   4.686  25.544  1.0717  2.1233  2.0515
  101OSM    C5S10146   3.272   4.731  25.621 -0.2757 -0.3592 -0.7656
  101OSM    H5S10147   3.379   4.708  25.624 -0.2916 -0.3364  0.5931
  101OSM    C6S10148   3.232   4.805  25.743  0.0992 -0.2066  1.0379
  101OSM    H6S10149   3.257   4.751  25.837 -2.6472 -0.2792  1.8053
  101OSM    H6T10150   3.122   4.815  25.738  0.0870 -0.7728 -0.8637
  101OSM    C7S10151   3.283   4.951  25.756  0.5644  0.7517  0.1745
  101OSM    H7S10152   3.284   5.002  25.657  2.0185 -1.5013 -1.0827
  101OSM    H7T10153   3.389   4.932  25.786  0.5882  0.4538 -0.0931
  101OSM    C8S10154   3.215   5.025  25.866  0.6962  0.0719 -0.6936
  101OSM    H8S10155   3.249   4.981  25.962 -2.0784 -2.0266 -0.5313
  101OSM    H8T10156   3.104   5.016  25.863  0.3324  3.0904  0.1990
  101OSM    C9S10157   3.235   5.177  25.854  0.8754  0.7049 -0.2624
  101OSM    H9S10158   3.196   5.194  25.751  0.7381 -1.4272 -0.6112
  101OSM    H9T10159   3.339   5.214  25.852  0.8924  0.6562 -0.2978
  101OSM   C10S10160   3.158   5.252  25.965  0.1397  0.3516  0.0826
  101OSM   H10S10161   3.163   5.187  26.054 -2.1134 -3.0832 -2.0669
  101OSM   H10T10162   3.052   5.247  25.932  0.5775  1.7122 -1.7062
  101OSM   C11S10163   3.213   5.393  25.994  0.3140  0.6526 -0.3951
  101OSM   H11S10164   3.217   5.442  25.894 -0.6480  1.2356 -0.1581
  101OSM   H11T10165   3.308   5.382  26.051  0.1084 -0.2240 -0.2102
  101OSM   C12S10166   3.118   5.477  26.088 -0.0159  0.2038  0.8852
  101OSM   H12S10167   3.178   5.557  26.136  1.2484  1.4537 -2.4487
  101OSM   H12T10168   3.076   5.415  26.170  1.2873 -0.4306  1.0971
  101OSM   C13S10169   2.995   5.544  26.026 -0.1401 -0.2546  0.2322
  101OSM   H13S10170   2.922   5.471  25.987  0.4797 -0.2660 -0.9377
  101OSM   H13T10171   3.026   5.617  25.948  0.6473 -0.8221  0.0058
  101OSM   C14S10172   2.919   5.635  26.127  0.2274 -0.0994 -0.8202
  101OSM   H14S10173   2.874   5.726  26.083  2.1116  1.3574  0.1301
  101OSM   H14T10174   3.001   5.680  26.187 -0.3213  0.3407 -0.3946
  101OSM   C15S10175   2.828   5.579  26.232  0.5998  0.2648  0.5191
  101OSM   H15S10176   2.894   5.509  26.289  0.6475 -0.7827 -0.7806
  101OSM   H15T10177   2.743   5.526  26.185  0.6137 -0.7020  1.5477
  101OSM   C16S10178   2.788   5.696  26.318  0.9027 -0.4018 -0.2626
  101OSM   H16S10179   2.703   5.745  26.265  0.7060 -0.9908 -0.5064
  101OSM   H16T10180   2.878   5.760  26.328  0.3157  0.7556 -1.9124
  101OSM   C17S10181   2.735   5.653  26.456 -0.2144  0.7495 -0.3319
  101OSM   H17S10182   2.821   5.600  26.502 -0.0033  0.1925 -1.3592
  101OSM   H17T10183   2.649   5.583  26.458 -0.5486  1.1252  2.3247
  101OSM   C18S10184   2.700   5.766  26.555 -0.2323  0.1024  0.2932
  101OSM   H18S10185   2.797   5.819  26.566  2.1834 -4.2550  2.6037
  101OSM   H18T10186   2.684   5.710  26.650  1.5915 -1.0659 -0.0464
  101OSM   H18U10187   2.615   5.831  26.523  0.1595  0.4826  0.0168
  101OSM    C1F10188   3.241   4.872  25.179 -0.2657 -0.4627 -1.0118
  101OSM     OF10189   3.136   4.856  25.128 -0.8450 -0.0176 -0.1356
  101OSM    C2F10190   3.323   4.997  25.146  0.2409  0.5830 -0.5954
  101OSM    H2F10191   3.416   4.993  25.206 -0.0748 -2.4754 -0.1504
  101OSM    H2G10192   3.271   5.088  25.182  2.0547  2.0932 -1.5924
  101OSM    C3F10193   3.346   4.991  24.995 -0.4269 -0.2563  0.1220
  101OSM    H3F10194   3.243   5.010  24.956  0.3508  1.5060 -1.1909
  101OSM    H3G10195   3.393   4.896  24.961 -1.2248 -0.8321  0.5906
  101OSM    C4F10196   3.434   5.103  24.949  0.8605  0.4244  0.2763
  101OSM    H4F10197   3.534   5.084  24.993  0.6882 -1.2114  0.0162
  101OSM    H4G10198   3.391   5.197  24.989 -1.4812 -1.0870  1.4866
  101OSM    C5F10199   3.444   5.121  24.795  0.0745  0.3492 -0.3928
  101OSM    H5F10200   3.340   5.151  24.772 -0.4150 -1.3179 -0.4796
  101OSM    H5G10201   3.470   5.025  24.745  1.3998  1.0394 -1.0799
  101OSM    C6F10202   3.549   5.226  24.757  0.3441 -0.5213 -1.2270
  101OSM    H6F10203   3.498   5.319  24.791 -0.8924 -0.3106 -3.4289
  101OSM    H6G10204   3.641   5.205  24.816 -0.1877  0.6381  0.0713
  101OSM    C7F10205   3.572   5.220  24.600 -0.8056  0.4795  0.4924
  101OSM    H7F10206   3.473   5.199  24.554  0.2672  1.5284 -2.5167
  101OSM    H7G10207   3.619   5.125  24.566 -0.0645  0.7448  0.7643
  101OSM    C8F10208   3.637   5.346  24.531 -0.1823 -0.0682  0.4500
  101OSM    H8F10209   3.745   5.353  24.558 -0.5796 -0.0268  2.1391
  101OSM    H8G10210   3.597   5.440  24.575  3.4258  2.3076 -0.8856
  101OSM    C9F10211   3.620   5.351  24.380 -0.0561  0.9813 -0.0395
  101OSM    H9F10212   3.641   5.253  24.335 -0.8420  0.6094  0.3840
  101OSM   C10F10213   3.576   5.456  24.306  0.6585  0.8628 -0.6347
  101OSM   H10F10214   3.560   5.433  24.199 -1.2367  1.8194 -0.5972
  101OSM   C11F10215   3.533   5.591  24.355 -0.6593  0.2167  0.0016
  101OSM   H11F10216   3.484   5.570  24.453 -0.1045  0.0400  0.2494
  101OSM   H11G10217   3.456   5.641  24.294 -0.1566  0.1441 -0.7003
  101OSM   C12F10218   3.653   5.689  24.378  0.5316  0.9463  0.3515
  101OSM   H12F10219   3.717   5.658  24.292  0.3999 -0.5205  0.7504
  101OSM   H12G10220   3.707   5.653  24.468  0.7498  0.2877 -0.0359
  101OSM   C13F10221   3.613   5.832  24.378 -0.1049 -0.1861  0.1782
  101OSM   H13F10222   3.525   5.859  24.317 -2.4556 -0.6179  3.1260
  101OSM   H13G10223   3.696   5.895  24.339  0.2273  1.2845  3.0175
  101OSM   C14F10224   3.576   5.896  24.523  0.6278  0.8570 -0.3831
  101OSM   H14F10225   3.494   5.836  24.567  1.8692 -0.4735  0.2225
  101OSM   H14G10226   3.546   6.002  24.511 -1.2269  0.6088  1.5195
  101OSM   C15F10227   3.699   5.887  24.622 -0.6945 -0.0528 -0.2252
  101OSM   H15F10228   3.773   5.955  24.575  0.6064 -1.2345  0.0404
  101OSM   H15G10229   3.738   5.783  24.617 -2.8022 -0.8476 -3.2671
  101OSM   C16F10230   3.660   5.915  24.763  0.5488  0.1126  0.1304
  101OSM   H16F10231   3.552   5.892  24.779 -0.0096  2.9265  0.9017
  101OSM   H16G10232   3.659   6.024  24.784  1.6635  0.0371  0.6588
  101OSM   C17F10233   3.745   5.837  24.871  0.0148  0.0685 -0.5818
  101OSM   H17F10234   3.721   5.730  24.857 -0.9280  0.2472 -0.4362
  101OSM   H17G10235   3.704   5.868  24.970  0.5317  2.8651 -1.1489
  101OSM   C18F10236   3.897   5.858  24.841  0.8653 -0.0414  0.5517
  101OSM   H18F10237   3.953   5.841  24.935 -0.6724  0.0867  1.5243
  101OSM   H18G10238   3.914   5.961  24.803 -1.3115  0.2638  0.2675
  101OSM   H18H10239   3.930   5.798  24.753 -0.0195  0.5488 -0.1947
  102OSM      N10240   1.305   3.945  25.049  0.4261 -0.6595  0.1374
  102OSM    C1510241   1.344   3.867  24.929 -0.1224 -0.3741 -0.7663
  102OSM   H15A10242   1.298   3.915  24.843  0.7727  1.8578 -0.0604
  102OSM   H15B10243   1.323   3.762  24.943  1.6010 -0.4224  2.1597
  102OSM   H15C10244   1.451   3.873  24.912 -0.3031  2.2845 -1.3637
  102OSM    C1410245   1.164   3.927  25.069  0.9210  0.1443  0.1903
  102OSM   H14A10246   1.102   3.967  24.991  1.1952  0.9595  0.3787
  102OSM   H14B10247   1.135   3.966  25.166 -1.8799 -1.7181  0.2194
  102OSM   H14C10248   1.134   3.823  25.069  1.2620  0.0228 -1.3820
  102OSM    C1310249   1.380   3.885  25.167 -0.1098  1.0712  0.1316
  102OSM   H13A10250   1.333   3.918  25.258 -0.4626 -1.7299  1.0574
  102OSM   H13B10251   1.482   3.921  25.171 -0.4638  1.9468  2.6687
  102OSM   H13C10252   1.378   3.777  25.169 -1.7679  1.0854  1.3056
  102OSM    C1210253   1.340   4.092  25.044  0.0501 -0.1448  1.3598
  102OSM   H12A10254   1.448   4.100  25.046  0.3111 -1.5646 -1.3701
  102OSM   H12B10255   1.306   4.145  25.132 -0.3255 -0.6164  1.5003
  102OSM    C1110256   1.285   4.154  24.909  0.5576 -0.1124  0.6365
  102OSM   H11A10257   1.178   4.134  24.887  0.0063  0.3587  2.6030
  102OSM   H11B10258   1.345   4.105  24.830  0.3594  1.9284 -0.8644
  102OSM      P10259   1.214   4.386  25.010 -0.4038 -0.3228 -0.0272
  102OSM    O1310260   1.067   4.365  24.991  0.3245 -0.1449  0.2068
  102OSM    O1410261   1.254   4.347  25.146 -0.7087 -0.1438 -0.4571
  102OSM    O1110262   1.245   4.535  24.962 -0.0502 -0.0518 -0.3854
  102OSM    O1210263   1.309   4.295  24.916  0.4188 -0.0903  0.3995
  102OSM    C1S10264   1.164   4.597  24.856 -0.0536 -0.2977  0.1585
  102OSM    H1S10265   1.067   4.637  24.891  0.6020  0.4640  1.1730
  102OSM    H1T10266   1.138   4.517  24.783 -0.3709  0.5530 -0.6805
  102OSM     NF10267   1.170   4.770  24.686 -0.0379 -0.6949  0.3324
  102OSM    HNF10268   1.184   4.725  24.598  1.2420 -1.3949  0.8591
  102OSM    C2S10269   1.255   4.706  24.788  0.2752  0.7848 -0.1434
  102OSM    H2S10270   1.276   4.785  24.863  2.9725 -1.3398  1.5221
  102OSM    C3S10271   1.381   4.637  24.739  0.2180 -0.3841 -0.5026
  102OSM    H3S10272   1.343   4.548  24.685 -2.1974  0.8200 -0.8981
  102OSM     O310273   1.477   4.583  24.834  0.1232 -0.0365 -0.3064
  102OSM    HO310274   1.414   4.577  24.906 -1.7630  0.3174 -1.8299
  102OSM    C4S10275   1.451   4.730  24.641  1.2573 -0.6640  0.1648
  102OSM    H4S10276   1.468   4.695  24.539  0.5499 -1.0451  0.1727
  102OSM    C5S10277   1.517   4.843  24.675  0.2853  0.4472  0.4292
  102OSM    H5S10278   1.513   4.861  24.783  2.1005 -3.3920  1.3021
  102OSM    C6S10279   1.612   4.919  24.579 -0.3453  0.3170  0.3187
  102OSM    H6S10280   1.662   4.838  24.521 -1.7712 -0.5816  0.2892
  102OSM    H6T10281   1.695   4.966  24.636 -0.4311  2.0141 -0.8820
  102OSM    C7S10282   1.535   5.009  24.483  0.1296 -0.3489 -0.0337
  102OSM    H7S10283   1.472   5.081  24.540 -0.8511 -0.9208 -0.3722
  102OSM    H7T10284   1.474   4.947  24.415  2.5591 -0.5205 -2.2328
  102OSM    C8S10285   1.634   5.100  24.396  0.2185 -0.4294  0.2308
  102OSM    H8S10286   1.696   5.030  24.336 -1.3826 -0.6462 -1.2445
  102OSM    H8T10287   1.694   5.157  24.470 -0.6009 -2.2565  2.3977
  102OSM    C9S10288   1.564   5.212  24.316 -0.6425 -0.0631  0.5758
  102OSM    H9S10289   1.495   5.259  24.389  0.2926  1.1509  0.7183
  102OSM    H9T10290   1.503   5.181  24.228  0.5298 -0.5274 -0.0980
  102OSM   C10S10291   1.670   5.308  24.255  0.4249 -0.2324  0.0928
  102OSM   H10S10292   1.724   5.254  24.175 -1.2709 -1.1833 -0.4683
  102OSM   H10T10293   1.744   5.341  24.331  2.3505  0.5132 -2.0201
  102OSM   C11S10294   1.605   5.425  24.178  0.6560  0.8586  0.5817
  102OSM   H11S10295   1.530   5.468  24.248 -1.7504  0.6113 -1.6651
  102OSM   H11T10296   1.565   5.383  24.083  0.2809  1.9222  0.2566
  102OSM   C12S10297   1.712   5.525  24.133  0.5625 -0.1928 -0.5638
  102OSM   H12S10298   1.794   5.486  24.068  0.1633  1.5313 -2.1786
  102OSM   H12T10299   1.753   5.575  24.223  1.0016 -1.4886 -0.0190
  102OSM   C13S10300   1.635   5.630  24.064  0.4517 -0.2722  0.0702
  102OSM   H13S10301   1.542   5.646  24.122 -0.0253 -0.4090 -0.6455
  102OSM   H13T10302   1.599   5.598  23.964  3.5159 -0.5440 -1.0487
  102OSM   C14S10303   1.710   5.763  24.066  0.4907 -0.4192  0.2950
  102OSM   H14S10304   1.781   5.755  23.980 -1.5202 -2.9067 -1.2466
  102OSM   H14T10305   1.767   5.788  24.158  0.9261 -0.5297  0.0614
  102OSM   C15S10306   1.609   5.878  24.043  0.4079 -0.5989 -0.2768
  102OSM   H15S10307   1.658   5.977  24.055  2.1162 -1.6269  2.2958
  102OSM   H15T10308   1.538   5.869  24.128 -0.1366 -1.0528 -0.7761
  102OSM   C16S10309   1.525   5.879  23.913 -0.2368  0.6031  0.0170
  102OSM   H16S10310   1.435   5.943  23.925 -0.0617  0.4727  2.4538
  102OSM   H16T10311   1.494   5.775  23.891  1.9742 -0.6161  2.1881
  102OSM   C17S10312   1.614   5.928  23.801 -0.4870  0.3474  1.1204
  102OSM   H17S10313   1.702   5.861  23.812 -0.8616 -0.6056 -1.0498
  102OSM   H17T10314   1.625   6.036  23.823  2.9964 -0.0796  2.0975
  102OSM   C18S10315   1.564   5.899  23.658 -0.1098  0.2148 -0.5863
  102OSM   H18S10316   1.546   5.790  23.639 -0.3474  0.3871 -1.4048
  102OSM   H18T10317   1.640   5.925  23.581 -0.6171 -1.2225 -1.6354
  102OSM   H18U10318   1.469   5.952  23.636 -0.5576 -0.4678 -0.3437
  102OSM    C1F10319   1.086   4.874  24.708 -0.0335  0.5912  0.4293
  102OSM     OF10320   1.050   4.917  24.817  0.0835  0.2166  0.2478
  102OSM    C2F10321   1.026   4.943  24.578 -0.7336  0.7700  0.3133
  102OSM    H2F10322   0.915   4.930  24.578 -0.7031  0.3492  1.2155
  102OSM    H2G10323   1.052   4.883  24.488 -0.4784  2.4047 -0.7322
  102OSM    C3F10324   1.086   5.083  24.563  0.6265  0.6162  0.1723
  102OSM    H3F10325   1.197   5.085  24.562  0.6471  2.3407 -2.2591
  102OSM    H3G10326   1.053   5.141  24.652 -0.3441 -0.3115  0.4424
  102OSM    C4F10327   1.029   5.143  24.433 -0.6427 -0.0533  0.1469
  102OSM    H4F10328   1.034   5.254  24.430  2.6575 -0.1191 -1.3088
  102OSM    H4G10329   0.921   5.121  24.418 -0.8478  0.2169  1.2001
  102OSM    C5F10330   1.112   5.096  24.312 -0.7713 -0.1015  0.7268
  102OSM    H5F10331   1.086   4.988  24.304 -0.7102 -0.0935  0.4226
  102OSM    H5G10332   1.220   5.099  24.335 -0.4659  0.0500 -0.6688
  102OSM    C6F10333   1.098   5.179  24.182  0.4405 -0.9036 -0.4990
  102OSM    H6F10334   0.991   5.204  24.165  0.3683 -0.0902  0.9505
  102OSM    H6G10335   1.125   5.120  24.092  1.6650 -0.7366 -0.2534
  102OSM    C7F10336   1.183   5.310  24.183  0.2341 -0.4009  0.4313
  102OSM    H7F10337   1.288   5.279  24.198  0.4588 -0.4966 -1.1893
  102OSM    H7G10338   1.160   5.376  24.269 -0.1903 -0.3939  0.3146
  102OSM    C8F10339   1.185   5.390  24.042 -0.3160  0.0118 -0.2390
  102OSM    H8F10340   1.086   5.395  23.992  0.0833  1.7707 -0.9527
  102OSM    H8G10341   1.239   5.329  23.966 -2.1335  0.0334 -1.6256
  102OSM    C9F10342   1.255   5.529  24.054 -0.7936  0.1282 -0.6683
  102OSM    H9F10343   1.354   5.526  24.103 -1.5307  1.0293  0.9334
  102OSM   C10F10344   1.206   5.650  24.025  0.1167  0.7143  0.0734
  102OSM   H10F10345   1.272   5.738  24.025  0.2589  0.6596 -2.0843
  102OSM   C11F10346   1.071   5.680  23.975  0.1185 -0.4137  0.0133
  102OSM   H11F10347   0.994   5.607  24.009 -0.5856  0.1660 -0.3239
  102OSM   H11G10348   1.062   5.679  23.865 -0.6527  0.3102  0.0651
  102OSM   C12F10349   1.020   5.813  24.026 -0.0870  0.8629 -0.2769
  102OSM   H12F10350   1.104   5.884  24.015 -0.7437  1.3983 -2.3095
  102OSM   H12G10351   1.005   5.818  24.136  1.6822  1.8839 -0.0537
  102OSM   C13F10352   0.901   5.868  23.949  0.1418 -0.0200 -1.0622
  102OSM   H13F10353   0.816   5.797  23.936 -0.3457  0.3260  0.1109
  102OSM   H13G10354   0.932   5.897  23.846  0.0246 -1.0460 -1.4001
  102OSM   C14F10355   0.840   5.984  24.022  0.6617  0.3145 -0.7468
  102OSM   H14F10356   0.908   6.073  24.020 -0.6593  1.3360 -1.8658
  102OSM   H14G10357   0.820   5.969  24.130 -0.9758  1.1799 -0.9054
  102OSM   C15F10358   0.704   6.024  23.959  0.2878  0.6799 -0.3736
  102OSM   H15F10359   0.643   6.084  24.030  1.7038  1.4306  0.2640
  102OSM   H15G10360   0.645   5.935  23.928  1.6595  0.1395 -1.5519
  102OSM   C16F10361   0.711   6.117  23.837 -0.7254 -0.0069 -0.5058
  102OSM   H16F10362   0.771   6.060  23.762  0.0948  0.0056  0.1358
  102OSM   H16G10363   0.769   6.205  23.873  4.0446 -2.5966 -0.9464
  102OSM   C17F10364   0.574   6.171  23.781 -1.0442  0.1375  0.7852
  102OSM   H17F10365   0.516   6.228  23.856 -1.4659  0.8836 -0.0887
  102OSM   H17G10366   0.507   6.085  23.756 -0.3549 -0.0338 -0.5694
  102OSM   C18F10367   0.580   6.270  23.654 -0.1439 -0.0502 -0.0193
  102OSM   H18F10368   0.629   6.367  23.679  1.8837 -1.1498  0.4623
  102OSM   H18G10369   0.474   6.279  23.621  0.1682  1.8035 -0.6502
  102OSM   H18H10370   0.640   6.220  23.575 -0.9985 -1.8166  0.4000
  103OSM      N10371   1.194   3.869  27.671 -0.4100  0.0368  0.0990
  103OSM    C1510372   1.065   3.803  27.732  0.3602 -0.3088 -0.0968
  103OSM   H15A10373   0.972   3.839  27.690 -0.6406 -2.7062 -0.0969
  103OSM   H15B10374   1.066   3.824  27.838  0.2435  1.7756 -0.4672
  103OSM   H15C10375   1.068   3.697  27.710  1.9007 -1.2385  3.7431
  103OSM    C1410376   1.206   4.012  27.718  0.4893 -0.3283  0.5117
  103OSM   H14A10377   1.224   4.016  27.824 -0.3036  4.1861  0.6568
  103OSM   H14B10378   1.112   4.064  27.708  2.1477  3.0506  1.1101
  103OSM   H14C10379   1.289   4.063  27.672  0.5077 -0.3618  0.5081
  103OSM    C1310380   1.317   3.796  27.718 -0.6182  0.8340 -0.2807
  103OSM   H13A10381   1.332   3.714  27.649 -0.8026  0.5272  0.0420
  103OSM   H13B10382   1.329   3.776  27.823 -0.3378  0.4709 -0.3803
  103OSM   H13C10383   1.406   3.844  27.680 -0.6026 -0.7374 -2.4539
  103OSM    C1210384   1.204   3.861  27.521  0.4589 -0.4236 -0.3653
  103OSM   H12A10385   1.300   3.898  27.487  0.5747  0.6448  1.0488
  103OSM   H12B10386   1.116   3.909  27.480  0.3161 -0.4161 -0.0473
  103OSM    C1110387   1.179   3.714  27.475  0.6567  0.0134 -0.2401
  103OSM   H11A10388   1.172   3.715  27.364  2.2145  1.6221 -0.3771
  103OSM   H11B10389   1.077   3.680  27.504  0.2862 -1.2320 -2.7150
  103OSM      P10390   1.235   3.476  27.552  0.0869  0.6490 -0.4368
  103OSM    O1310391   1.345   3.404  27.606 -0.3509  0.6853 -0.4795
  103OSM    O1410392   1.126   3.491  27.645  0.4653 -0.4026 -0.4748
  103OSM    O1110393   1.166   3.413  27.421 -0.0006  0.1379 -0.1588
  103OSM    O1210394   1.282   3.623  27.508 -0.4896 -0.4317 -0.2771
  103OSM    C1S10395   1.242   3.330  27.337  0.1553  1.1553 -0.3292
  103OSM    H1S10396   1.352   3.340  27.341  0.7344 -3.5746  0.8520
  103OSM    H1T10397   1.214   3.360  27.234 -3.0540  0.8581  0.3332
  103OSM     NF10398   1.304   3.083  27.271 -0.3164 -0.5478 -0.4722
  103OSM    HNF10399   1.266   3.058  27.182 -0.5314 -0.4694 -0.4022
  103OSM    C2S10400   1.220   3.176  27.355 -0.7524  0.3101  0.0848
  103OSM    H2S10401   1.236   3.156  27.463 -2.5430  0.2736  0.3868
  103OSM    C3S10402   1.069   3.158  27.331  0.4799  0.1551 -0.4132
  103OSM    H3S10403   1.039   3.187  27.228 -0.9118  0.3358  0.0284
  103OSM     O310404   0.980   3.246  27.405 -0.2283  0.8373 -0.0852
  103OSM    HO310405   1.051   3.302  27.437  1.8677 -1.2784 -0.7692
  103OSM    C4S10406   1.027   3.018  27.359  0.3457  0.1526 -0.4751
  103OSM    H4S10407   1.000   2.994  27.463  0.9908 -1.0077 -0.5521
  103OSM    C5S10408   1.005   2.920  27.271 -0.8819 -0.6543 -0.5137
  103OSM    H5S10409   1.029   2.943  27.166 -0.2383 -1.8080 -0.6318
  103OSM    C6S10410   0.946   2.781  27.297 -0.4735 -0.0453  0.4002
  103OSM    H6S10411   0.972   2.750  27.401 -0.6586  0.4062  0.5829
  103OSM    H6T10412   0.972   2.705  27.220 -0.3941  1.2506 -0.8768
  103OSM    C7S10413   0.789   2.787  27.300  0.1177  0.1486 -1.0173
  103OSM    H7S10414   0.782   2.873  27.370  3.4037  0.0761 -0.4370
  103OSM    H7T10415   0.746   2.699  27.352  0.7910 -0.3740 -1.3212
  103OSM    C8S10416   0.727   2.819  27.166 -0.0946 -0.2504  0.9327
  103OSM    H8S10417   0.771   2.912  27.124  0.0402 -0.5014  0.5090
  103OSM    H8T10418   0.619   2.828  27.189 -0.0766  1.3621  0.4933
  103OSM    C9S10419   0.745   2.708  27.068  0.0556  0.2234  0.8485
  103OSM    H9S10420   0.724   2.608  27.112 -1.1793  0.1607  0.1668
  103OSM    H9T10421   0.849   2.684  27.036  0.2511  0.3276  1.3988
  103OSM   C10S10422   0.645   2.721  26.954 -0.0816  0.1273  0.0739
  103OSM   H10S10423   0.646   2.821  26.906 -0.0978  1.7372  3.1678
  103OSM   H10T10424   0.543   2.708  26.996 -0.1009 -2.5457 -0.6175
  103OSM   C11S10425   0.676   2.612  26.838  0.1564 -0.5302 -0.5294
  103OSM   H11S10426   0.696   2.516  26.890 -1.0895 -0.0006  1.0098
  103OSM   H11T10427   0.769   2.637  26.782  0.8002 -1.3112  0.1764
  103OSM   C12S10428   0.561   2.608  26.745  0.8173  0.8049 -0.7429
  103OSM   H12S10429   0.540   2.711  26.708  1.6512  0.7199 -1.4918
  103OSM   H12T10430   0.473   2.553  26.782  1.4129  0.2498 -0.1335
  103OSM   C13S10431   0.604   2.534  26.617  0.0405 -0.1883  0.0519
  103OSM   H13S10432   0.683   2.458  26.634 -0.4896 -0.9947 -0.9326
  103OSM   H13T10433   0.635   2.605  26.538  0.1851 -0.2112  0.0890
  103OSM   C14S10434   0.494   2.453  26.542  0.0393  0.4791  0.3829
  103OSM   H14S10435   0.417   2.526  26.509  0.0753  0.7108  0.7940
  103OSM   H14T10436   0.447   2.392  26.622  1.5880 -1.5513 -0.1684
  103OSM   C15S10437   0.553   2.373  26.433  0.4912  0.1592  0.6988
  103OSM   H15S10438   0.619   2.300  26.484  2.0030  0.3503 -0.8847
  103OSM   H15T10439   0.599   2.439  26.356 -2.1917  1.3683  0.0112
  103OSM   C16S10440   0.451   2.288  26.351  0.4618  0.6489 -0.1075
  103OSM   H16S10441   0.403   2.365  26.288  2.6903  1.6542 -0.6993
  103OSM   H16T10442   0.370   2.253  26.419 -2.1503  1.4217 -2.6526
  103OSM   C17S10443   0.487   2.184  26.244  0.3983 -0.0704  0.6653
  103OSM   H17S10444   0.527   2.238  26.156  0.0123 -1.1247 -0.1790
  103OSM   H17T10445   0.394   2.137  26.206 -0.2035  0.2448  1.6981
  103OSM   C18S10446   0.599   2.079  26.294  0.0252 -0.0111  0.1003
  103OSM   H18S10447   0.604   2.006  26.211 -0.8303 -0.6730  0.6083
  103OSM   H18T10448   0.550   2.022  26.376 -0.3140  0.3063  0.1238
  103OSM   H18U10449   0.695   2.129  26.319 -0.9800  2.5842 -0.7944
  103OSM    C1F10450   1.433   3.081  27.292  0.0282 -0.3755  0.7566
  103OSM     OF10451   1.482   3.132  27.388 -0.3112  0.1842  0.3267
  103OSM    C2F10452   1.526   3.008  27.195 -0.1616 -0.0601  0.2743
  103OSM    H2F10453   1.602   3.076  27.152 -0.5842 -0.2326 -0.7799
  103OSM    H2G10454   1.462   2.977  27.110 -0.2330 -0.0167  0.3121
  103OSM    C3F10455   1.591   2.891  27.264  0.0570  0.5484  0.0998
  103OSM    H3F10456   1.533   2.804  27.302 -1.9046  1.1549 -1.3421
  103OSM    H3G10457   1.655   2.932  27.345  1.6219 -0.1889 -0.7282
  103OSM    C4F10458   1.683   2.810  27.171 -0.8259  0.1624 -0.5960
  103OSM    H4F10459   1.725   2.882  27.097  0.0379  1.5929  1.1964
  103OSM    H4G10460   1.628   2.734  27.112  0.6694 -1.3832 -0.0780
  103OSM    C5F10461   1.809   2.745  27.242 -0.4306  0.2124 -0.4199
  103OSM    H5F10462   1.768   2.683  27.325 -0.2192 -0.9083 -1.1213
  103OSM    H5G10463   1.875   2.823  27.286 -0.8914  0.7968 -0.7541
  103OSM    C6F10464   1.899   2.646  27.157  0.2566  0.0911  0.5471
  103OSM    H6F10465   1.925   2.704  27.065 -0.5102 -0.4274 -0.0062
  103OSM    H6G10466   1.845   2.558  27.117 -0.8529  1.6033 -1.5013
  103OSM    C7F10467   2.039   2.601  27.212 -0.0372 -0.1424  0.1295
  103OSM    H7F10468   2.099   2.691  27.240 -1.0656  0.6999 -0.3073
  103OSM    H7G10469   2.100   2.545  27.138 -1.8706  0.1508 -1.6632
  103OSM    C8F10470   2.040   2.506  27.337  0.2948  0.3564  0.3148
  103OSM    H8F10471   1.962   2.562  27.393 -0.1813  0.2455 -0.2337
  103OSM    H8G10472   2.137   2.511  27.392  0.3763  1.4671  0.1088
  103OSM    C9F10473   2.001   2.371  27.305  0.0413  0.3768 -0.8923
  103OSM    H9F10474   2.073   2.316  27.243 -0.1727 -0.2840 -0.5703
  103OSM   C10F10475   1.881   2.317  27.332 -0.8588 -0.3266 -0.2227
  103OSM   H10F10476   1.873   2.208  27.321 -2.0723 -0.6575  2.8207
  103OSM   C11F10477   1.756   2.378  27.400 -0.0624  0.3627  0.4986
  103OSM   H11F10478   1.688   2.397  27.313  0.8690 -1.2012 -0.6237
  103OSM   H11G10479   1.786   2.463  27.465  3.9397 -1.0793  0.7486
  103OSM   C12F10480   1.688   2.270  27.488  0.2729 -0.2262  0.2818
  103OSM   H12F10481   1.749   2.245  27.577 -0.6210 -0.8939  0.7307
  103OSM   H12G10482   1.660   2.182  27.426  2.5890 -0.5201 -0.4247
  103OSM   C13F10483   1.562   2.329  27.553  0.3815  0.7875 -0.6585
  103OSM   H13F10484   1.490   2.359  27.474  0.8451  1.2788 -0.8969
  103OSM   H13G10485   1.583   2.424  27.605 -1.1753  1.2632 -0.8505
  103OSM   C14F10486   1.488   2.232  27.654 -0.5738  0.4312  0.3201
  103OSM   H14F10487   1.487   2.273  27.757 -1.6562  0.5881  0.2597
  103OSM   H14G10488   1.549   2.139  27.651 -1.1872 -0.0151  1.0232
  103OSM   C15F10489   1.337   2.222  27.632  0.4858  0.2378 -0.3927
  103OSM   H15F10490   1.311   2.196  27.527 -0.0066 -1.5531  0.1328
  103OSM   H15G10491   1.290   2.320  27.655 -2.1060 -1.3209  1.5307
  103OSM   C16F10492   1.275   2.109  27.719 -0.3386  0.4623 -0.2964
  103OSM   H16F10493   1.294   2.005  27.684  0.1303 -0.2222  1.8783
  103OSM   H16G10494   1.164   2.115  27.722 -0.4657 -0.8641 -1.4286
  103OSM   C17F10495   1.314   2.115  27.868 -0.5386 -0.2705  0.4424
  103OSM   H17F10496   1.264   2.209  27.902  1.6339  2.7465 -3.8173
  103OSM   H17G10497   1.424   2.125  27.881 -0.3879 -1.0063 -0.2221
  103OSM   C18F10498   1.257   1.989  27.939  0.1417 -0.0514  0.2363
  103OSM   H18F10499   1.147   1.978  27.932  0.0262  0.1491  1.5577
  103OSM   H18G10500   1.289   2.002  28.045  2.3495 -1.1392 -0.2462
  103OSM   H18H10501   1.294   1.897  27.890  0.6239 -0.5620  1.5126
  104OSM      N10502   2.596   3.722  28.129 -0.5748  0.0050 -0.3654
  104OSM    C1510503   2.541   3.633  28.028  0.0189  0.4212  0.2472
  104OSM   H15A10504   2.444   3.597  28.061 -0.4898  2.0083  0.5661
  104OSM   H15B10505   2.603   3.545  28.022 -0.0926  0.3999 -0.7340
  104OSM   H15C10506   2.543   3.670  27.926  2.0111  2.4031  0.9343
  104OSM    C1410507   2.564   3.669  28.266 -0.3796 -0.5010 -0.2667
  104OSM   H14A10508   2.459   3.685  28.286  0.0514  1.9997  0.3715
  104OSM   H14B10509   2.617   3.721  28.344 -3.1320 -1.1548  2.2072
  104OSM   H14C10510   2.577   3.563  28.280  0.9156 -0.5245 -1.4295
  104OSM    C1310511   2.746   3.712  28.107  0.7274 -0.3379 -0.7073
  104OSM   H13A10512   2.766   3.744  28.005 -0.0333 -0.4727 -0.9069
  104OSM   H13B10513   2.775   3.608  28.099 -0.8843 -0.7705 -1.2284
  104OSM   H13C10514   2.807   3.766  28.177  0.2054  0.2928 -0.7251
  104OSM    C1210515   2.561   3.865  28.113  0.3869 -0.2923 -0.4207
  104OSM   H12A10516   2.609   3.917  28.194 -2.6302 -0.2126  1.5022
  104OSM   H12B10517   2.455   3.888  28.120  0.8172  2.7982 -2.1370
  104OSM    C1110518   2.600   3.940  27.988  0.1783  0.2328 -0.2763
  104OSM   H11A10519   2.547   4.038  27.993  3.7048  2.2442  1.6065
  104OSM   H11B10520   2.560   3.886  27.899  0.8501 -2.4428  0.9591
  104OSM      P10521   2.803   4.094  27.990  0.0087  0.0891 -0.5039
  104OSM    O1310522   2.949   4.071  28.012 -0.1380  0.3085 -0.9361
  104OSM    O1410523   2.768   4.163  27.870 -0.2028 -0.5479  0.3410
  104OSM    O1110524   2.726   4.143  28.126 -0.5106  0.8847 -0.4196
  104OSM    O1210525   2.738   3.953  27.975  0.4939 -0.4670 -0.2280
  104OSM    C1S10526   2.701   4.282  28.158  0.1616 -0.0625  0.7268
  104OSM    H1S10527   2.730   4.343  28.070 -1.5308 -1.1629 -0.6772
  104OSM    H1T10528   2.762   4.332  28.236 -0.2330  0.0780  0.9467
  104OSM     NF10529   2.549   4.462  28.217  0.7020 -0.1582 -0.3557
  104OSM    HNF10530   2.544   4.488  28.313 -1.6374 -1.2370 -0.0916
  104OSM    C2S10531   2.557   4.321  28.200  0.0637  0.1277 -0.2701
  104OSM    H2S10532   2.496   4.290  28.112 -0.1328 -1.4023  0.3798
  104OSM    C3S10533   2.512   4.239  28.324 -0.2039 -0.4665 -0.2130
  104OSM    H3S10534   2.571   4.284  28.406 -2.5317  1.5674  0.4744
  104OSM     O310535   2.550   4.098  28.318  0.5016 -0.1143 -0.2489
  104OSM    HO310536   2.627   4.095  28.261 -0.7526 -0.5297 -2.0427
  104OSM    C4S10537   2.374   4.250  28.354  0.3770  0.1817  0.1972
  104OSM    H4S10538   2.351   4.309  28.443  1.5406  0.4680  0.3112
  104OSM    C5S10539   2.272   4.189  28.288 -0.8157  0.4688  0.5716
  104OSM    H5S10540   2.304   4.122  28.206 -0.3834  2.9838 -1.4395
  104OSM    C6S10541   2.129   4.201  28.316 -0.0168  0.2625  0.0718
  104OSM    H6S10542   2.112   4.288  28.383  0.2435  1.0620 -0.8870
  104OSM    H6T10543   2.100   4.112  28.376 -1.8419  0.5399 -0.3336
  104OSM    C7S10544   2.043   4.211  28.184 -0.2040  0.1211  0.2274
  104OSM    H7S10545   1.944   4.162  28.200  1.2273 -2.3549  2.5646
  104OSM    H7T10546   2.091   4.147  28.107  1.9390 -0.4554  1.9368
  104OSM    C8S10547   2.033   4.360  28.140  0.3753  0.1773  0.3370
  104OSM    H8S10548   2.065   4.422  28.226 -0.3522  1.5113 -0.3256
  104OSM    H8T10549   1.928   4.386  28.115  1.0572  2.4284 -0.4388
  104OSM    C9S10550   2.138   4.401  28.030 -0.4842 -0.6877  0.2330
  104OSM    H9S10551   2.143   4.328  27.947  1.1538 -0.0873 -0.2244
  104OSM    H9T10552   2.236   4.399  28.083 -0.0889 -0.3470 -0.4791
  104OSM   C10S10553   2.127   4.540  27.962  0.3097  0.0044  0.4016
  104OSM   H10S10554   2.149   4.624  28.031 -0.4624  0.6581 -0.1300
  104OSM   H10T10555   2.026   4.536  27.917 -0.4225 -1.1137  2.0475
  104OSM   C11S10556   2.228   4.572  27.844  0.0354  0.3510  0.1396
  104OSM   H11S10557   2.203   4.496  27.767  1.1365  0.9872 -0.8730
  104OSM   H11T10558   2.338   4.568  27.857  0.3750  0.2520 -2.3712
  104OSM   C12S10559   2.196   4.711  27.783 -0.2138  0.4900  0.1911
  104OSM   H12S10560   2.265   4.721  27.696 -0.9374  1.2719 -0.3169
  104OSM   H12T10561   2.219   4.786  27.861 -2.1201  2.4750 -1.0542
  104OSM   C13S10562   2.052   4.735  27.745  0.2257  0.4645 -0.0923
  104OSM   H13S10563   2.008   4.794  27.828 -0.0539  0.5068 -0.2679
  104OSM   H13T10564   1.994   4.643  27.720 -0.6978  1.3767 -1.5045
  104OSM   C14S10565   2.040   4.825  27.620 -0.3676  0.7258 -0.8643
  104OSM   H14S10566   2.087   4.772  27.535 -2.9700 -2.5055 -0.4738
  104OSM   H14T10567   2.089   4.925  27.628 -0.3837  0.8949 -2.5208
  104OSM   C15S10568   1.891   4.845  27.575 -0.1645 -0.4912  0.0866
  104OSM   H15S10569   1.864   4.945  27.615  2.1951  1.1710 -2.1126
  104OSM   H15T10570   1.832   4.763  27.621  0.4254 -0.9814 -0.0150
  104OSM   C16S10571   1.866   4.831  27.421 -0.4177  0.6860  0.5154
  104OSM   H16S10572   1.880   4.728  27.382 -0.6488  0.7051  0.3817
  104OSM   H16T10573   1.940   4.897  27.370  0.2715 -0.2305  0.3044
  104OSM   C17S10574   1.733   4.864  27.376  0.2995 -0.1896  0.2711
  104OSM   H17S10575   1.682   4.945  27.432  0.8059  0.6212 -0.4063
  104OSM   H17T10576   1.658   4.781  27.380 -2.6650  2.2805 -0.1117
  104OSM   C18S10577   1.740   4.892  27.225  1.1240 -0.1969  0.0095
  104OSM   H18S10578   1.639   4.922  27.191  0.9439 -1.7268 -0.8846
  104OSM   H18T10579   1.775   4.806  27.164  1.7758  0.6300 -0.8275
  104OSM   H18U10580   1.808   4.979  27.210 -2.3183  2.3691 -2.0195
  104OSM    C1F10581   2.553   4.557  28.121  0.0088  1.0300  0.2547
  104OSM     OF10582   2.589   4.534  28.006 -0.4716 -0.0544 -0.0740
  104OSM    C2F10583   2.523   4.697  28.166 -0.8391 -0.1468  0.1863
  104OSM    H2F10584   2.596   4.727  28.244 -0.7272  1.4026 -0.4619
  104OSM    H2G10585   2.422   4.692  28.210 -1.9458  0.4166 -2.1159
  104OSM    C3F10586   2.511   4.784  28.044  0.2555 -0.4505  0.4130
  104OSM    H3F10587   2.425   4.763  27.977 -1.6338  2.0000  1.9386
  104OSM    H3G10588   2.602   4.776  27.980 -0.0081 -0.8224  0.0807
  104OSM    C4F10589   2.509   4.932  28.090 -0.0053  0.0058 -0.4656
  104OSM    H4F10590   2.593   4.949  28.161 -2.2208 -0.8980  2.5867
  104OSM    H4G10591   2.415   4.941  28.149  1.0203  2.4913  0.9597
  104OSM    C5F10592   2.499   5.030  27.977 -0.2387 -1.0103  0.1829
  104OSM    H5F10593   2.437   4.999  27.890  1.0186  0.7833 -1.4181
  104OSM    H5G10594   2.603   5.038  27.940 -0.5560  2.7209 -0.3546
  104OSM    C6F10595   2.458   5.178  28.018 -0.2762  0.0014  1.2449
  104OSM    H6F10596   2.530   5.235  28.080 -0.6461  2.5948 -0.5631
  104OSM    H6G10597   2.356   5.175  28.062 -0.6280 -0.9207  0.4182
  104OSM    C7F10598   2.445   5.275  27.893 -0.4434 -0.2988 -1.2234
  104OSM    H7F10599   2.546   5.306  27.857  0.3449 -0.1990  0.9204
  104OSM    H7G10600   2.409   5.370  27.938  1.4946 -0.2588  0.3987
  104OSM    C8F10601   2.352   5.228  27.777  0.1836  0.0131  0.5749
  104OSM    H8F10602   2.247   5.219  27.813  0.1406 -2.1146  0.0896
  104OSM    H8G10603   2.374   5.124  27.743 -0.9938  0.5501 -2.1355
  104OSM    C9F10604   2.345   5.331  27.666 -0.6172 -0.7267  0.3660
  104OSM    H9F10605   2.420   5.326  27.585  0.0878  0.3464  0.9333
  104OSM   C10F10606   2.255   5.422  27.653 -0.0104 -0.2692  0.6434
  104OSM   H10F10607   2.266   5.502  27.578 -1.0919 -0.9572 -0.2749
  104OSM   C11F10608   2.167   5.467  27.762  0.3757 -0.5662  0.5868
  104OSM   H11F10609   2.169   5.577  27.781 -1.9228 -0.2302 -0.7207
  104OSM   H11G10610   2.184   5.419  27.861 -1.8117 -1.7345  0.4663
  104OSM   C12F10611   2.023   5.425  27.735  0.0712 -0.4028  0.5045
  104OSM   H12F10612   1.959   5.447  27.823  0.0934  3.3778 -0.2285
  104OSM   H12G10613   2.021   5.315  27.723 -1.2752 -0.3302 -0.1775
  104OSM   C13F10614   1.951   5.492  27.616 -0.7007 -0.0455 -0.5072
  104OSM   H13F10615   2.018   5.482  27.528  1.9756  0.2455  1.3681
  104OSM   H13G10616   1.931   5.601  27.626  0.0519  0.1930 -1.4183
  104OSM   C14F10617   1.814   5.431  27.590  0.1727 -0.6874  0.0373
  104OSM   H14F10618   1.755   5.423  27.684  1.9547  1.1942  1.4155
  104OSM   H14G10619   1.818   5.329  27.547 -0.3585 -0.4880 -0.5082
  104OSM   C15F10620   1.735   5.519  27.497 -0.8986  0.7986 -0.5645
  104OSM   H15F10621   1.646   5.458  27.470  0.8121 -1.0670 -2.3502
  104OSM   H15G10622   1.787   5.530  27.399 -0.8040 -1.0878 -0.7570
  104OSM   C16F10623   1.694   5.650  27.559 -0.5510  0.6899  0.0811
  104OSM   H16F10624   1.778   5.721  27.545  0.1429  1.0384  4.5121
  104OSM   H16G10625   1.673   5.632  27.667 -2.4597 -2.6496 -0.6898
  104OSM   C17F10626   1.559   5.704  27.502  0.1933  0.6780 -0.3267
  104OSM   H17F10627   1.545   5.802  27.552 -0.5191 -0.1666  1.2062
  104OSM   H17G10628   1.477   5.634  27.530  1.8612  0.1914  4.3270
  104OSM   C18F10629   1.564   5.722  27.353  0.1315  0.1438  0.4220
  104OSM   H18F10630   1.483   5.661  27.307  1.3685 -1.7754  0.7242
  104OSM   H18G10631   1.669   5.712  27.320  0.0125 -2.1616  0.6169
  104OSM   H18H10632   1.542   5.828  27.326 -0.0382  0.1067  0.4117
  105OSM      N10633   2.026   3.651  25.542  0.3174 -0.5999 -0.0967
  105OSM    C1510634   2.014   3.519  25.623  0.5977  0.2133 -0.2139
  105OSM   H15A10635   2.102   3.462  25.598  0.2739  0.5496 -2.2314
  105OSM   H15B10636   1.930   3.461  25.587  1.0093 -1.9197  1.9585
  105OSM   H15C10637   2.009   3.529  25.731  0.5711  3.5080 -0.3960
  105OSM    C1410638   2.158   3.717  25.578  0.0690 -0.4537  0.7404
  105OSM   H14A10639   2.171   3.705  25.685 -1.6392  0.6976  1.1160
  105OSM   H14B10640   2.163   3.824  25.562 -1.1817 -0.8980 -4.3078
  105OSM   H14C10641   2.241   3.654  25.551  0.9713  0.1233  2.0306
  105OSM    C1310642   2.047   3.612  25.401 -0.2385 -0.1455  0.3006
  105OSM   H13A10643   1.976   3.533  25.381  0.3019 -0.8810  1.1931
  105OSM   H13B10644   2.144   3.571  25.379 -0.1299 -0.6716  1.6471
  105OSM   H13C10645   2.016   3.692  25.335 -0.8671 -1.0716 -0.5557
  105OSM    C1210646   1.911   3.747  25.557 -0.4635  0.3767 -0.8514
  105OSM   H12A10647   1.941   3.838  25.507 -0.1447  0.5521 -0.3392
  105OSM   H12B10648   1.919   3.764  25.663  0.2770 -2.1996 -0.4294
  105OSM    C1110649   1.765   3.703  25.528  0.0046  0.1438 -0.5718
  105OSM   H11A10650   1.702   3.785  25.569  0.0025 -0.3902  0.5366
  105OSM   H11B10651   1.741   3.615  25.592 -0.6921  0.6143 -0.1663
  105OSM      P10652   1.737   3.788  25.285  0.2113  0.0267 -0.0491
  105OSM    O1310653   1.621   3.871  25.330  1.2504  0.1418  0.1852
  105OSM    O1410654   1.872   3.847  25.257  0.2219 -0.2495 -0.0797
  105OSM    O1110655   1.687   3.703  25.158  0.1873  0.1070 -0.0764
  105OSM    O1210656   1.746   3.669  25.392 -0.0405  0.3031  0.1968
  105OSM    C1S10657   1.779   3.607  25.115 -0.4964  0.2705  0.6057
  105OSM    H1S10658   1.816   3.536  25.192 -1.1897  0.1198  0.8065
  105OSM    H1T10659   1.878   3.652  25.089  0.2884 -1.5571  0.2586
  105OSM     NF10660   1.799   3.396  24.984  0.1418  1.3272 -0.9563
  105OSM    HNF10661   1.865   3.379  24.911  0.8116 -1.7156  0.2043
  105OSM    C2S10662   1.720   3.519  24.997 -1.0402  0.1400  0.7138
  105OSM    H2S10663   1.621   3.482  25.032 -1.0651 -0.4260  0.0606
  105OSM    C3S10664   1.705   3.603  24.870  0.1067  0.0201  0.0341
  105OSM    H3S10665   1.804   3.645  24.841  0.0304  0.7708  0.8250
  105OSM     O310666   1.623   3.715  24.885 -0.5781 -0.7519 -0.2059
  105OSM    HO310667   1.627   3.717  24.981  1.5855 -2.7149 -0.1707
  105OSM    C4S10668   1.662   3.525  24.746  0.3911  0.0429  0.0164
  105OSM    H4S10669   1.738   3.454  24.709  0.1937  0.6058 -1.5476
  105OSM    C5S10670   1.535   3.511  24.691  0.0231  0.0524 -0.0832
  105OSM    H5S10671   1.453   3.567  24.739 -0.4715  0.4052 -1.3101
  105OSM    C6S10672   1.504   3.415  24.574  0.5336  0.0544  0.2601
  105OSM    H6S10673   1.461   3.465  24.485  1.2428  2.4025  1.1626
  105OSM    H6T10674   1.424   3.348  24.611 -0.4836 -0.8551 -3.2260
  105OSM    C7S10675   1.615   3.327  24.522 -0.1415 -0.0268 -0.8366
  105OSM    H7S10676   1.674   3.278  24.602 -1.9250 -1.7936 -0.5315
  105OSM    H7T10677   1.689   3.384  24.462  1.1329 -0.6940  0.0566
  105OSM    C8S10678   1.568   3.202  24.441 -0.6334 -0.2114  0.3123
  105OSM    H8S10679   1.518   3.227  24.345  0.6692  0.7285 -0.1467
  105OSM    H8T10680   1.489   3.152  24.500 -1.6857 -0.3863 -1.1886
  105OSM    C9S10681   1.691   3.113  24.430  0.0995  0.3622 -0.4240
  105OSM    H9S10682   1.761   3.114  24.517  1.5646  3.2166 -1.5091
  105OSM    H9T10683   1.754   3.144  24.344 -1.1549  0.5246 -1.3062
  105OSM   C10S10684   1.659   2.964  24.411 -0.2165 -0.0830  1.0168
  105OSM   H10S10685   1.612   2.946  24.312  0.4203 -0.1756  0.7268
  105OSM   H10T10686   1.578   2.933  24.481  0.4259  1.3098  2.4198
  105OSM   C11S10687   1.791   2.876  24.406 -0.1632  0.2867  0.6240
  105OSM   H11S10688   1.863   2.915  24.482  0.2309  3.9361 -1.3770
  105OSM   H11T10689   1.838   2.887  24.307 -1.9263  2.7753 -0.0179
  105OSM   C12S10690   1.782   2.726  24.434 -0.0887 -0.1172  0.3528
  105OSM   H12S10691   1.736   2.727  24.535  2.1889  1.4193  1.4548
  105OSM   H12T10692   1.884   2.685  24.447 -0.6195 -1.6531 -0.1261
  105OSM   C13S10693   1.708   2.654  24.333  0.0177 -0.2509  0.3390
  105OSM   H13S10694   1.739   2.688  24.232  0.3052  0.5148  0.6774
  105OSM   H13T10695   1.604   2.692  24.337  0.6593  1.8430 -1.1405
  105OSM   C14S10696   1.708   2.502  24.362 -0.0059  0.9893 -0.1323
  105OSM   H14S10697   1.687   2.493  24.471  0.3739  1.8908  0.0188
  105OSM   H14T10698   1.811   2.460  24.353 -0.8340 -1.1876 -0.0555
  105OSM   C15S10699   1.601   2.432  24.275  0.1632 -0.5331  0.1431
  105OSM   H15S10700   1.527   2.495  24.221 -1.0525 -1.4188  0.7194
  105OSM   H15T10701   1.534   2.398  24.357  2.8156  1.1349  3.2098
  105OSM   C16S10702   1.660   2.331  24.179 -0.0178  0.2028 -0.5674
  105OSM   H16S10703   1.723   2.263  24.240  2.0887  1.4428 -1.2330
  105OSM   H16T10704   1.728   2.368  24.099  1.9783 -1.4234  0.2751
  105OSM   C17S10705   1.540   2.244  24.123 -0.2615  0.1975  0.3597
  105OSM   H17S10706   1.463   2.314  24.083 -1.3390 -1.6742 -0.9934
  105OSM   H17T10707   1.498   2.181  24.204  0.9404 -0.9772  0.1026
  105OSM   C18S10708   1.587   2.138  24.025 -0.1119 -0.1449  0.4356
  105OSM   H18S10709   1.502   2.080  23.984  0.4680 -0.2406 -0.6772
  105OSM   H18T10710   1.662   2.074  24.076  2.2445  1.5007 -0.7571
  105OSM   H18U10711   1.631   2.185  23.934 -0.8762 -0.0955  0.0796
  105OSM    C1F10712   1.770   3.295  25.073 -0.1800  0.3400  0.0456
  105OSM     OF10713   1.678   3.299  25.159 -0.5812  0.3855 -0.3609
  105OSM    C2F10714   1.847   3.169  25.043  0.0815  0.3038 -0.1925
  105OSM    H2F10715   1.839   3.115  25.140 -0.8928  0.4253 -0.1945
  105OSM    H2G10716   1.956   3.190  25.029  0.3276 -0.1644  0.8686
  105OSM    C3F10717   1.789   3.080  24.924 -0.4562  0.3177 -0.3751
  105OSM    H3F10718   1.787   3.145  24.834 -0.8460  0.1420 -0.4945
  105OSM    H3G10719   1.689   3.044  24.954 -0.1096  1.3520  2.3206
  105OSM    C4F10720   1.881   2.958  24.899  0.1680 -0.8169  0.0587
  105OSM    H4F10721   1.969   2.972  24.965 -0.1146  1.3962  0.0462
  105OSM    H4G10722   1.922   2.983  24.798 -1.0438  1.4786  0.0556
  105OSM    C5F10723   1.817   2.817  24.947 -0.1638 -0.3901 -0.0518
  105OSM    H5F10724   1.711   2.826  24.914 -0.4033 -1.0031  0.5220
  105OSM    H5G10725   1.817   2.816  25.058  2.0491  0.0400 -0.0086
  105OSM    C6F10726   1.894   2.692  24.895 -0.0944 -0.4557  0.2156
  105OSM    H6F10727   2.002   2.719  24.899  0.4155 -2.0876 -1.0951
  105OSM    H6G10728   1.860   2.697  24.789 -0.0738  0.5710  0.2500
  105OSM    C7F10729   1.856   2.565  24.965  0.3097  0.0769  0.6772
  105OSM    H7F10730   1.872   2.580  25.074  0.5935  0.1923  0.6200
  105OSM    H7G10731   1.927   2.486  24.933  1.1732  0.8550  0.6080
  105OSM    C8F10732   1.720   2.515  24.914 -0.7691 -0.1924 -0.1727
  105OSM    H8F10733   1.732   2.466  24.815 -0.3087  0.7953 -0.6224
  105OSM    H8G10734   1.651   2.602  24.906  0.2415  0.6098 -0.3324
  105OSM    C9F10735   1.673   2.410  25.006 -0.7752  0.2427 -0.0847
  105OSM    H9F10736   1.614   2.437  25.095  0.1869 -1.6687  1.1702
  105OSM   C10F10737   1.681   2.279  24.981 -0.2873 -0.3000  0.1449
  105OSM   H10F10738   1.627   2.207  25.044  3.5880 -2.9009  0.8045
  105OSM   C11F10739   1.741   2.214  24.857 -0.0473  0.5466  0.3312
  105OSM   H11F10740   1.798   2.130  24.901  0.8884  0.8884 -0.1957
  105OSM   H11G10741   1.821   2.276  24.810  0.2341  1.6815  2.2146
  105OSM   C12F10742   1.632   2.180  24.748  0.5923  0.0282 -0.0270
  105OSM   H12F10743   1.579   2.273  24.716  1.1861  0.6441  0.7266
  105OSM   H12G10744   1.554   2.112  24.789 -0.1442  1.0165  0.2673
  105OSM   C13F10745   1.699   2.125  24.623  0.5105  0.1102  0.1327
  105OSM   H13F10746   1.769   2.040  24.632  1.8659  0.9767 -1.6336
  105OSM   H13G10747   1.762   2.207  24.581  1.3671 -0.2951  0.5963
  105OSM   C14F10748   1.598   2.088  24.519 -0.0821 -0.7439  1.0203
  105OSM   H14F10749   1.653   2.084  24.422 -0.8049  2.2231  0.3767
  105OSM   H14G10750   1.531   2.174  24.500  1.5999  0.1559 -1.3658
  105OSM   C15F10751   1.523   1.960  24.539  0.0950 -0.1978  0.4309
  105OSM   H15F10752   1.452   1.973  24.624 -1.6896 -0.1063 -1.0081
  105OSM   H15G10753   1.601   1.883  24.555  0.0295 -0.6294 -1.1642
  105OSM   C16F10754   1.455   1.897  24.412 -0.0583 -0.2125  0.1704
  105OSM   H16F10755   1.427   1.792  24.432 -1.6141 -0.0226 -0.8291
  105OSM   H16G10756   1.529   1.897  24.329  0.9013 -0.0428  1.0032
  105OSM   C17F10757   1.331   1.977  24.367 -0.4289  0.0393  0.2463
  105OSM   H17F10758   1.347   2.086  24.384  0.2114 -0.1348  0.8013
  105OSM   H17G10759   1.252   1.960  24.444 -0.1180  1.1907  0.8425
  105OSM   C18F10760   1.280   1.956  24.230  1.2222  0.8991 -0.2247
  105OSM   H18F10761   1.240   2.046  24.177  1.7904  0.5583 -1.2603
  105OSM   H18G10762   1.192   1.889  24.230  1.8793 -0.0358  1.7633
  105OSM   H18H10763   1.356   1.914  24.160 -1.3645 -1.5510 -1.7551
  106OSM      N10764   1.272   3.768  25.806  0.6730 -0.1320  0.1782
  106OSM    C1510765   1.144   3.703  25.788 -0.3458 -0.3253 -0.1686
  106OSM   H15A10766   1.137   3.605  25.832  2.7314 -0.3374  0.5500
  106OSM   H15B10767   1.127   3.684  25.683 -0.1170 -1.6496  0.0180
  106OSM   H15C10768   1.057   3.752  25.827 -0.7665 -1.8339  0.8765
  106OSM    C1410769   1.250   3.919  25.771 -0.4886  0.3874 -0.2578
  106OSM   H14A10770   1.338   3.983  25.775 -1.4749  1.9162 -1.4921
  106OSM   H14B10771   1.177   3.958  25.840 -2.4965  0.3214 -2.2277
  106OSM   H14C10772   1.201   3.915  25.675 -1.1226 -2.1328  0.1055
  106OSM    C1310773   1.314   3.761  25.943  0.1619 -0.1192  0.6385
  106OSM   H13A10774   1.394   3.691  25.963  1.7933  0.9925 -1.5589
  106OSM   H13B10775   1.227   3.733  26.001 -1.0253 -2.1871 -1.9162
  106OSM   H13C10776   1.339   3.857  25.986 -0.6690  0.8284 -0.9072
  106OSM    C1210777   1.385   3.711  25.716 -0.1690 -0.1309  0.1039
  106OSM   H12A10778   1.399   3.611  25.755  2.4799  0.5002  0.9883
  106OSM   H12B10779   1.477   3.763  25.737 -0.4022 -0.0850  1.0625
  106OSM    C1110780   1.357   3.714  25.560 -0.2940  0.9232 -0.1510
  106OSM   H11A10781   1.451   3.672  25.519 -0.2465  1.5505 -0.7129
  106OSM   H11B10782   1.343   3.820  25.528  0.6408  0.3608 -2.6460
  106OSM      P10783   1.181   3.618  25.386 -0.1412  0.4039  0.3496
  106OSM    O1310784   1.092   3.497  25.402  0.2215 -0.3038 -0.7563
  106OSM    O1410785   1.118   3.749  25.356 -0.4042  0.3611  0.7842
  106OSM    O1110786   1.300   3.585  25.291  0.2710 -0.2613  0.2134
  106OSM    O1210787   1.252   3.625  25.519  0.9569 -0.7541 -0.4756
  106OSM    C1S10788   1.387   3.475  25.301  0.5474 -0.0050 -0.0806
  106OSM    H1S10789   1.412   3.443  25.404  1.1854 -2.5632 -0.9482
  106OSM    H1T10790   1.476   3.513  25.248  0.2887 -1.4795 -1.6911
  106OSM     NF10791   1.417   3.239  25.267  0.1720 -0.0294 -0.0081
  106OSM    HNF10792   1.505   3.238  25.220  0.3041  2.1016  0.1338
  106OSM    C2S10793   1.338   3.351  25.219 -0.3582 -0.1615 -0.6178
  106OSM    H2S10794   1.231   3.338  25.246  0.0206 -2.2562  0.1161
  106OSM    C3S10795   1.346   3.387  25.062  0.0461 -0.2120 -0.7006
  106OSM    H3S10796   1.451   3.406  25.031  0.2878  2.5570  1.4783
  106OSM     O310797   1.284   3.512  25.017 -0.5879 -0.1569 -0.1422
  106OSM    HO310798   1.261   3.559  25.098 -1.4994 -1.9530  0.7127
  106OSM    C4S10799   1.307   3.275  24.982  0.1927  0.0204  0.2425
  106OSM    H4S10800   1.200   3.248  24.981  0.0131  0.4621 -2.9609
  106OSM    C5S10801   1.376   3.214  24.885 -0.2170  0.1552 -0.2708
  106OSM    H5S10802   1.469   3.263  24.851  0.1430 -0.6433 -0.4540
  106OSM    C6S10803   1.326   3.106  24.789  0.1361 -0.6058 -0.7585
  106OSM    H6S10804   1.326   3.151  24.687 -0.1846 -0.0335 -0.5099
  106OSM    H6T10805   1.225   3.074  24.821  0.9779 -1.6648  0.9414
  106OSM    C7S10806   1.415   2.985  24.796 -0.0453  0.6257  0.9185
  106OSM    H7S10807   1.436   2.942  24.896 -0.2016 -0.1937  0.6015
  106OSM    H7T10808   1.518   3.008  24.760 -0.3993 -1.4117 -1.6902
  106OSM    C8S10809   1.369   2.872  24.699  0.5205  0.0474  0.3164
  106OSM    H8S10810   1.372   2.904  24.593  0.4638  1.1600  0.6419
  106OSM    H8T10811   1.262   2.845  24.716 -0.2447  2.3542 -0.4410
  106OSM    C9S10812   1.468   2.751  24.693  0.7768  0.2476  0.3272
  106OSM    H9S10813   1.484   2.703  24.793  1.0284 -0.1253  0.1113
  106OSM    H9T10814   1.564   2.785  24.648  0.5791  1.1667  0.5813
  106OSM   C10S10815   1.435   2.637  24.602  0.0407  0.2879 -0.4500
  106OSM   H10S10816   1.511   2.557  24.619 -0.0018  0.0440 -1.4011
  106OSM   H10T10817   1.438   2.675  24.498 -0.6706 -1.8831 -1.3068
  106OSM   C11S10818   1.301   2.568  24.642 -0.5350 -0.7386  0.2536
  106OSM   H11S10819   1.217   2.616  24.588 -0.3103  2.2838  2.3241
  106OSM   H11T10820   1.285   2.576  24.751  1.2209 -1.1591  0.5800
  106OSM   C12S10821   1.308   2.418  24.626  0.5800 -0.0305 -0.1780
  106OSM   H12S10822   1.374   2.388  24.710  1.0613  3.2413  0.7550
  106OSM   H12T10823   1.359   2.389  24.531 -2.6035  0.5498 -2.2081
  106OSM   C13S10824   1.169   2.343  24.638 -0.0259  0.1544 -0.1226
  106OSM   H13S10825   1.099   2.398  24.705 -0.6725  0.0197 -0.6732
  106OSM   H13T10826   1.189   2.239  24.671 -0.5894 -0.3841 -1.4164
  106OSM   C14S10827   1.106   2.334  24.497 -0.7363 -0.3831  0.1637
  106OSM   H14S10828   1.191   2.299  24.435  0.5721  2.6739  0.0396
  106OSM   H14T10829   1.074   2.438  24.473 -0.2642 -0.1608  0.4959
  106OSM   C15S10830   0.984   2.244  24.493  0.2256 -0.5074 -0.3043
  106OSM   H15S10831   0.900   2.296  24.544 -0.0839 -0.3332 -0.9875
  106OSM   H15T10832   1.015   2.149  24.542  2.6194  0.6030  0.4866
  106OSM   C16S10833   0.922   2.207  24.358 -0.2507 -0.5601  0.3467
  106OSM   H16S10834   0.997   2.159  24.292  0.5336 -0.8596  1.4387
  106OSM   H16T10835   0.873   2.294  24.310 -1.1588 -1.5819 -0.6447
  106OSM   C17S10836   0.809   2.096  24.375  0.0470  0.2740 -0.8553
  106OSM   H17S10837   0.748   2.085  24.283 -0.4721 -1.4290 -0.3454
  106OSM   H17T10838   0.750   2.132  24.461  1.2022 -0.4133  0.2527
  106OSM   C18S10839   0.863   1.954  24.412  0.1256  0.0367 -0.2642
  106OSM   H18S10840   0.949   1.921  24.351  2.2189 -0.3900  2.6871
  106OSM   H18T10841   0.778   1.883  24.407 -0.8263  1.1980 -1.3082
  106OSM   H18U10842   0.910   1.955  24.513 -0.2370 -0.3230 -0.0912
  106OSM    C1F10843   1.393   3.169  25.384  0.4822 -0.9329 -0.3340
  106OSM     OF10844   1.292   3.199  25.450  0.2621 -0.5821  0.1790
  106OSM    C2F10845   1.509   3.084  25.432  0.1110  0.3628 -0.0535
  106OSM    H2F10846   1.555   3.146  25.512 -0.5626  1.4306 -0.4857
  106OSM    H2G10847   1.579   3.072  25.346  1.6317  0.5217  1.1125
  106OSM    C3F10848   1.463   2.950  25.494  0.4667 -0.0122 -0.2461
  106OSM    H3F10849   1.382   2.974  25.566  0.2232  2.2532 -1.1932
  106OSM    H3G10850   1.556   2.923  25.549 -0.4421  1.6026  2.2547
  106OSM    C4F10851   1.411   2.852  25.388 -0.7272 -1.0016 -0.1993
  106OSM    H4F10852   1.357   2.917  25.316 -1.2788  1.5476  2.3306
  106OSM    H4G10853   1.337   2.780  25.429  0.9295 -2.1353  0.9298
  106OSM    C5F10854   1.526   2.788  25.315  0.1698  0.4306  0.0186
  106OSM    H5F10855   1.600   2.743  25.385  0.6195 -0.3897 -0.9582
  106OSM    H5G10856   1.576   2.868  25.256  1.8817 -1.0673 -0.6797
  106OSM    C6F10857   1.476   2.672  25.238 -0.1020  0.4308  0.0318
  106OSM    H6F10858   1.435   2.601  25.313  0.0412  0.3447  0.0303
  106OSM    H6G10859   1.557   2.610  25.193 -1.3084 -1.6537  0.5971
  106OSM    C7F10860   1.376   2.708  25.126  0.7219  0.5824  0.1803
  106OSM    H7F10861   1.443   2.753  25.050  1.4654  0.2304  0.6034
  106OSM    H7G10862   1.296   2.782  25.146 -0.3793 -0.8284  1.1746
  106OSM    C8F10863   1.325   2.579  25.063 -0.0799  0.4437 -0.2222
  106OSM    H8F10864   1.410   2.514  25.033 -0.0483 -0.1867  1.1521
  106OSM    H8G10865   1.275   2.600  24.966 -2.1955  0.8392  0.8958
  106OSM    C9F10866   1.223   2.505  25.145 -0.3377 -0.3473 -0.1160
  106OSM    H9F10867   1.158   2.556  25.217  0.8344  0.6268  0.2895
  106OSM   C10F10868   1.214   2.371  25.133 -0.3565  0.4694 -0.2803
  106OSM   H10F10869   1.142   2.314  25.194  0.0362  0.5281  0.2365
  106OSM   C11F10870   1.283   2.291  25.025  0.3298  0.7597 -0.4367
  106OSM   H11F10871   1.379   2.248  25.060  0.1825  0.5396 -0.3035
  106OSM   H11G10872   1.300   2.353  24.934  3.7504 -0.1375 -0.5651
  106OSM   C12F10873   1.203   2.169  24.978 -0.2467  0.0576 -0.6817
  106OSM   H12F10874   1.107   2.203  24.934  0.3121  0.8670 -1.3209
  106OSM   H12G10875   1.181   2.097  25.059  0.4302 -1.2788 -1.6573
  106OSM   C13F10876   1.278   2.077  24.879 -0.4881 -0.7072  0.5022
  106OSM   H13F10877   1.351   2.012  24.931 -1.0413 -3.5199 -2.0003
  106OSM   H13G10878   1.335   2.138  24.806 -1.2515 -1.3387 -0.6690
  106OSM   C14F10879   1.201   1.978  24.797  0.6412  0.4732  0.2973
  106OSM   H14F10880   1.255   1.963  24.701  2.0761 -0.9530  1.2586
  106OSM   H14G10881   1.103   2.017  24.765  0.1821 -1.9392 -1.4767
  106OSM   C15F10882   1.158   1.851  24.868 -0.8477  0.3439  0.0509
  106OSM   H15F10883   1.088   1.790  24.808  0.1750 -1.0566  0.2192
  106OSM   H15G10884   1.105   1.872  24.963 -1.4883  1.1251 -0.4685
  106OSM   C16F10885   1.274   1.749  24.897 -0.4166 -0.1851 -0.3344
  106OSM   H16F10886   1.364   1.813  24.916 -0.5314 -0.3566  0.8810
  106OSM   H16G10887   1.296   1.689  24.807  0.7432 -0.2053 -0.0539
  106OSM   C17F10888   1.233   1.651  25.016  0.1689  0.3517 -0.7875
  106OSM   H17F10889   1.135   1.604  24.994  0.6314  0.1132 -2.4683
  106OSM   H17G10890   1.229   1.704  25.114  0.5006  1.2530 -1.2441
  106OSM   C18F10891   1.345   1.536  25.028 -0.1522 -0.1871 -0.3679
  106OSM   H18F10892   1.350   1.489  24.927  1.4144  3.3741 -2.1403
  106OSM   H18G10893   1.325   1.470  25.115 -0.6592  1.3262  0.7221
  106OSM   H18H10894   1.437   1.590  25.060  0.2607 -1.3844  0.5010
  107OSM      N10895   3.899   1.540  31.552 -0.1099 -0.0954 -0.0993
  107OSM    C1510896   4.048   1.545  31.571  0.1607 -0.1852 -0.4390
  107OSM   H15A10897   4.070   1.595  31.664 -0.2286  0.8546 -0.9024
  107OSM   H15B10898   4.104   1.596  31.494 -0.4022 -1.5426 -1.8011
  107OSM   H15C10899   4.086   1.444  31.581  1.8420  0.4462 -0.1499
  107OSM    C1410900   3.872   1.449  31.435 -0.3279 -0.0983  0.0823
  107OSM   H14A10901   3.919   1.354  31.453  0.9026  0.1316 -1.6381
  107OSM   H14B10902   3.915   1.495  31.347  2.1975 -0.0068  1.2814
  107OSM   H14C10903   3.768   1.429  31.415 -0.3469 -0.6399  0.6925
  107OSM    C1310904   3.840   1.481  31.676  0.7893  0.1360  0.2726
  107OSM   H13A10905   3.857   1.547  31.760  1.3566  0.2823  0.0475
  107OSM   H13B10906   3.876   1.383  31.704 -1.4009 -0.9795 -0.6330
  107OSM   H13C10907   3.739   1.454  31.650  2.0705 -4.1273 -1.2724
  107OSM    C1210908   3.829   1.676  31.529 -0.1649 -1.0291  0.0410
  107OSM   H12A10909   3.853   1.740  31.613 -1.1389  1.9744 -1.8217
  107OSM   H12B10910   3.722   1.659  31.527 -0.7560  1.4393  2.9349
  107OSM    C1110911   3.873   1.754  31.402 -0.4328 -0.3142 -0.1112
  107OSM   H11A10912   3.814   1.846  31.387 -1.5886 -1.3454 -2.3592
  107OSM   H11B10913   3.851   1.692  31.312 -0.9568 -1.8081  0.9996
  107OSM      P10914   4.074   1.890  31.491 -0.1176  0.2825 -0.7161
  107OSM    O1310915   3.966   1.932  31.583 -0.5929  0.4175  0.9757
  107OSM    O1410916   4.189   1.829  31.559 -0.2447 -0.4463 -0.0712
  107OSM    O1110917   4.114   2.011  31.403  1.0794  0.0701 -0.5837
  107OSM    O1210918   4.011   1.783  31.397 -0.1688 -0.3841 -0.0648
  107OSM    C1S10919   4.026   2.077  31.314  0.4518 -0.6479 -0.2033
  107OSM    H1S10920   3.921   2.074  31.350  0.3928 -1.0147 -0.4008
  107OSM    H1T10921   4.015   2.029  31.215 -0.4760  0.6050 -0.7457
  107OSM     NF10922   3.949   2.288  31.215 -0.3602 -0.2629  0.1269
  107OSM    HNF10923   3.963   2.353  31.141  0.0503  0.0683  0.4850
  107OSM    C2S10924   4.065   2.221  31.276  0.0495  0.1672  0.1421
  107OSM    H2S10925   4.086   2.279  31.369  1.2297 -0.7397  0.4548
  107OSM    C3S10926   4.195   2.223  31.188  0.7128 -0.2671 -0.6347
  107OSM    H3S10927   4.157   2.161  31.103 -2.3018  0.1081  0.2936
  107OSM     O310928   4.311   2.158  31.241  0.3895  0.0593 -0.1836
  107OSM    HO310929   4.280   2.096  31.308 -0.7834  1.4133  0.5668
  107OSM    C4S10930   4.235   2.359  31.146 -0.3005  0.3277 -0.5755
  107OSM    H4S10931   4.285   2.417  31.224 -1.8009  0.3815  0.3851
  107OSM    C5S10932   4.226   2.418  31.027 -0.8547  0.4211  0.4614
  107OSM    H5S10933   4.197   2.356  30.940 -2.0958  2.7227 -0.8644
  107OSM    C6S10934   4.278   2.547  30.976  0.7657 -0.1751  0.4764
  107OSM    H6S10935   4.199   2.624  30.992  0.6130  0.3691 -2.3887
  107OSM    H6T10936   4.292   2.556  30.867 -0.1273  0.0405  0.3722
  107OSM    C7S10937   4.403   2.610  31.046  0.3454  0.3929 -0.3557
  107OSM    H7S10938   4.480   2.530  31.048  0.3007  0.3588  0.9170
  107OSM    H7T10939   4.374   2.641  31.148  0.3831 -0.7570  0.0246
  107OSM    C8S10940   4.458   2.729  30.968  0.1215  0.2123  0.3909
  107OSM    H8S10941   4.538   2.769  31.033  0.9316  0.6482 -0.8504
  107OSM    H8T10942   4.384   2.811  30.962  0.0998  0.3798  2.2534
  107OSM    C9S10943   4.514   2.698  30.828 -0.2302 -0.4655 -0.6404
  107OSM    H9S10944   4.448   2.641  30.759  1.0775 -1.4276 -1.1367
  107OSM    H9T10945   4.609   2.640  30.828  0.2972  0.3740 -1.4793
  107OSM   C10S10946   4.543   2.844  30.772  0.4785 -0.1449  0.0366
  107OSM   H10S10947   4.616   2.900  30.833  0.3088 -2.5301  2.6187
  107OSM   H10T10948   4.451   2.905  30.757 -1.1645 -2.6625 -0.8201
  107OSM   C11S10949   4.600   2.840  30.626  0.1588 -0.5795  0.1742
  107OSM   H11S10950   4.687   2.772  30.636  0.1293 -0.3490  2.4828
  107OSM   H11T10951   4.639   2.941  30.601  0.2100 -1.5254 -4.5915
  107OSM   C12S10952   4.505   2.777  30.520 -0.5577 -0.0313  0.7433
  107OSM   H12S10953   4.405   2.826  30.518  0.8314  3.0480 -1.9614
  107OSM   H12T10954   4.498   2.668  30.541  1.0393 -0.0624  1.1912
  107OSM   C13S10955   4.562   2.787  30.377  1.2023  0.2536 -0.0924
  107OSM   H13S10956   4.667   2.751  30.378  1.7615  1.8160 -0.4082
  107OSM   H13T10957   4.564   2.889  30.333  2.4185  0.7085  0.9774
  107OSM   C14S10958   4.480   2.696  30.280 -0.0365 -0.1628  0.2567
  107OSM   H14S10959   4.382   2.746  30.273  0.0518  0.4290  2.3904
  107OSM   H14T10960   4.477   2.593  30.322 -1.9744 -0.4893 -0.6130
  107OSM   C15S10961   4.540   2.692  30.140 -0.9791  0.7421  0.0938
  107OSM   H15S10962   4.549   2.796  30.102  2.7694  0.6720  0.4591
  107OSM   H15T10963   4.470   2.633  30.076  1.3514 -0.4252 -1.5428
  107OSM   C16S10964   4.677   2.623  30.127  0.0546  0.5503 -0.2532
  107OSM   H16S10965   4.689   2.517  30.156 -3.9119 -0.5080 -1.8258
  107OSM   H16T10966   4.752   2.670  30.194  0.5635 -2.7922  1.7222
  107OSM   C17S10967   4.743   2.628  29.986  0.0103  0.8622  0.7313
  107OSM   H17S10968   4.745   2.732  29.947 -1.1884 -0.1300 -2.2161
  107OSM   H17T10969   4.672   2.577  29.918 -1.5232  1.4825  1.8135
  107OSM   C18S10970   4.881   2.574  29.985  0.0034  0.0491 -0.5122
  107OSM   H18S10971   4.889   2.465  30.009 -0.5164 -0.1939 -1.4034
  107OSM   H18T10972   4.940   2.616  30.069 -0.5307 -1.9646  0.9368
  107OSM   H18U10973   4.931   2.599  29.888 -1.0803  2.7986 -0.4570
  107OSM    C1F10974   3.832   2.296  31.275  0.0086 -0.0083  0.9461
  107OSM     OF10975   3.814   2.282  31.395  0.5922 -0.1772 -0.2358
  107OSM    C2F10976   3.715   2.311  31.189 -0.2697  0.0999  0.3004
  107OSM    H2F10977   3.745   2.322  31.083 -1.2747 -1.6406 -0.2061
  107OSM    H2G10978   3.664   2.404  31.222  0.6746  0.5900  0.4247
  107OSM    C3F10979   3.609   2.199  31.193  0.1652  0.8623 -0.2705
  107OSM    H3F10980   3.579   2.187  31.299 -0.5459  0.1830 -0.5381
  107OSM    H3G10981   3.658   2.109  31.149  1.2822  2.1356 -1.7688
  107OSM    C4F10982   3.486   2.237  31.111  0.1389 -0.1827 -0.0484
  107OSM    H4F10983   3.456   2.343  31.131 -1.3315 -0.9651  2.2575
  107OSM    H4G10984   3.401   2.172  31.140 -0.3077  1.4988  2.8246
  107OSM    C5F10985   3.522   2.233  30.961  0.7060  0.3042 -0.4684
  107OSM    H5F10986   3.544   2.131  30.923  2.4363  1.1280 -1.8250
  107OSM    H5G10987   3.612   2.296  30.943  2.0461 -1.1298  0.9854
  107OSM    C6F10988   3.410   2.283  30.873  0.4173 -0.0448  0.5084
  107OSM    H6F10989   3.388   2.390  30.895 -3.8412 -0.4934 -0.6165
  107OSM    H6G10990   3.319   2.227  30.904 -0.5651  1.5598  0.6377
  107OSM    C7F10991   3.440   2.264  30.719  0.2426  0.5104  0.0827
  107OSM    H7F10992   3.503   2.173  30.708  0.8215  0.9619 -0.3580
  107OSM    H7G10993   3.505   2.345  30.681  0.3533 -0.1179 -1.0994
  107OSM    C8F10994   3.313   2.256  30.640  0.0934  0.0444  0.0285
  107OSM    H8F10995   3.245   2.187  30.693  0.6127 -1.1819 -0.8504
  107OSM    H8G10996   3.333   2.226  30.535  0.3363 -0.6801  0.2783
  107OSM    C9F10997   3.257   2.395  30.642  0.0302 -0.1499 -0.6484
  107OSM    H9F10998   3.211   2.420  30.739 -1.0930  0.7670 -1.3833
  107OSM   C10F10999   3.252   2.491  30.552 -0.7285 -0.3826 -0.4394
  107OSM   H10F11000   3.195   2.581  30.582 -2.4512 -1.0093 -1.6809
  107OSM   C11F11001   3.310   2.501  30.421 -0.6577  0.5370 -0.6042
  107OSM   H11F11002   3.244   2.447  30.350 -0.7920  0.5541 -0.4925
  107OSM   H11G11003   3.409   2.451  30.422 -0.8383  0.1800 -0.0414
  107OSM   C12F11004   3.334   2.645  30.359 -0.5774 -0.0192  0.5219
  107OSM   H12F11005   3.414   2.699  30.414 -0.3677  0.2010  0.0138
  107OSM   H12G11006   3.241   2.705  30.349 -0.5085  0.0728  0.4244
  107OSM   C13F11007   3.400   2.630  30.220  0.0179 -0.6896 -0.0133
  107OSM   H13F11008   3.330   2.579  30.151  0.0446  1.8870 -2.0914
  107OSM   H13G11009   3.491   2.566  30.221  0.3707 -0.2033  1.1976
  107OSM   C14F11010   3.435   2.762  30.150  0.1814 -0.4047 -0.6028
  107OSM   H14F11011   3.498   2.830  30.211  1.6398 -1.1378 -1.2353
  107OSM   H14G11012   3.337   2.810  30.131  0.4559  0.2682 -0.3459
  107OSM   C15F11013   3.500   2.739  30.013  0.5960  0.6025 -0.3364
  107OSM   H15F11014   3.498   2.840  29.966 -0.2522  2.2969  3.0232
  107OSM   H15G11015   3.441   2.670  29.948  1.0419 -0.5129  0.4209
  107OSM   C16F11016   3.644   2.682  30.026 -0.5732  0.1156  0.1898
  107OSM   H16F11017   3.635   2.579  30.066 -0.9090 -0.3654 -1.0796
  107OSM   H16G11018   3.687   2.748  30.104 -2.1843  0.7493  0.5863
  107OSM   C17F11019   3.731   2.668  29.896  0.6182  0.6198  0.0222
  107OSM   H17F11020   3.836   2.643  29.925  0.6915  0.2405 -0.5609
  107OSM   H17G11021   3.739   2.763  29.839 -0.1068 -0.1086 -1.3383
  107OSM   C18F11022   3.681   2.564  29.799 -0.3103  0.3832 -0.0866
  107OSM   H18F11023   3.586   2.584  29.745 -0.5455 -0.5492 -0.0286
  107OSM   H18G11024   3.663   2.465  29.847  2.1314  0.0545  0.2782
  107OSM   H18H11025   3.757   2.538  29.722 -1.0634  0.5019 -0.8790
  108OSM      N11026   2.221   3.719  26.559  0.2615 -0.5385 -0.0182
  108OSM    C1511027   2.208   3.597  26.482  0.5479  0.4097 -0.3746
  108OSM   H15A11028   2.298   3.539  26.496 -0.3543 -0.9926 -0.2469
  108OSM   H15B11029   2.208   3.623  26.377 -3.6223 -1.1237 -0.9419
  108OSM   H15C11030   2.123   3.537  26.511 -0.1852  1.4755 -0.2545
  108OSM    C1411031   2.124   3.816  26.502 -0.1488 -0.3454  0.6582
  108OSM   H14A11032   2.169   3.865  26.417 -3.0237  3.6297  1.1297
  108OSM   H14B11033   2.110   3.893  26.577 -0.0766  0.6644 -0.3451
  108OSM   H14C11034   2.031   3.763  26.491  1.4712 -3.0423 -1.3822
  108OSM    C1311035   2.189   3.677  26.703  0.7040 -0.2521 -0.5203
  108OSM   H13A11036   2.241   3.587  26.733  0.8107 -0.7157 -2.0323
  108OSM   H13B11037   2.087   3.643  26.710  0.7741 -0.3075  0.3604
  108OSM   H13C11038   2.200   3.756  26.776 -1.0521 -1.4609  1.1716
  108OSM    C1211039   2.368   3.768  26.546  1.0129 -0.1079  0.1518
  108OSM   H12A11040   2.372   3.866  26.592  0.4791  1.0912 -2.2306
  108OSM   H12B11041   2.382   3.783  26.440 -1.1125 -0.6807 -0.2689
  108OSM    C1111042   2.477   3.687  26.610  0.5683  0.2453 -0.1646
  108OSM   H11A11043   2.462   3.674  26.719  0.7257 -0.3332 -0.2074
  108OSM   H11B11044   2.568   3.749  26.600  0.1542  1.1257  1.1986
  108OSM      P11045   2.572   3.509  26.437  0.1326 -0.2481  0.2690
  108OSM    O1311046   2.490   3.533  26.316 -0.1451  0.3106  1.1511
  108OSM    O1411047   2.711   3.556  26.447 -0.2571 -0.3224 -0.1488
  108OSM    O1111048   2.570   3.349  26.455  0.7892 -0.1602 -0.0082
  108OSM    O1211049   2.494   3.558  26.557  0.0175  0.0685  0.0512
  108OSM    C1S11050   2.435   3.297  26.480  0.7050 -0.4706  0.1959
  108OSM    H1S11051   2.370   3.320  26.393  2.4125  1.6365 -0.6220
  108OSM    H1T11052   2.389   3.337  26.573 -2.2525 -3.1159  0.0215
  108OSM     NF11053   2.332   3.071  26.474  0.2395  0.1880  0.8098
  108OSM    HNF11054   2.266   3.049  26.546 -0.8790  2.1432  0.4425
  108OSM    C2S11055   2.453   3.148  26.514  0.4922 -0.4448 -0.0144
  108OSM    H2S11056   2.534   3.118  26.444 -1.1185  0.2436 -2.2785
  108OSM    C3S11057   2.487   3.125  26.659  0.1973 -0.1046  0.0179
  108OSM    H3S11058   2.390   3.125  26.713  0.5445 -0.7286  0.6586
  108OSM     O311059   2.568   3.222  26.725  0.4036  0.0824  0.1993
  108OSM    HO311060   2.589   3.281  26.652 -0.5556 -1.0500 -1.0435
  108OSM    C4S11061   2.555   2.993  26.666  0.2234  0.0090  1.1301
  108OSM    H4S11062   2.624   2.974  26.582 -1.8705 -2.2834 -0.1823
  108OSM    C5S11063   2.570   2.916  26.776  0.3776 -0.3601 -0.2330
  108OSM    H5S11064   2.513   2.939  26.868  1.6237 -0.2275  0.5228
  108OSM    C6S11065   2.661   2.800  26.782 -0.3344 -0.0744 -0.3148
  108OSM    H6S11066   2.706   2.794  26.883 -2.0377 -0.8416  0.4372
  108OSM    H6T11067   2.739   2.807  26.703  1.3332  1.2971  1.3470
  108OSM    C7S11068   2.575   2.668  26.777 -0.3633  0.0919  0.5940
  108OSM    H7S11069   2.534   2.674  26.674  2.2272  2.9235 -0.4191
  108OSM    H7T11070   2.490   2.658  26.848 -0.7813 -3.2227 -0.1787
  108OSM    C8S11071   2.660   2.540  26.789 -0.5077 -0.0413  0.2869
  108OSM    H8S11072   2.720   2.564  26.880  2.8975 -0.2600 -1.7339
  108OSM    H8T11073   2.730   2.543  26.703 -3.0922  1.3293 -1.8976
  108OSM    C9S11074   2.585   2.404  26.803 -0.5622  0.5015 -0.2649
  108OSM    H9S11075   2.517   2.394  26.716 -1.8994  1.7519  0.5924
  108OSM    H9T11076   2.526   2.406  26.897  2.5699  0.8160  1.8372
  108OSM   C10S11077   2.671   2.278  26.806  0.0622  1.0538  0.7167
  108OSM   H10S11078   2.705   2.251  26.704  0.6058  1.0672  0.8904
  108OSM   H10T11079   2.604   2.197  26.839  2.0931 -0.6408  0.8936
  108OSM   C11S11080   2.784   2.280  26.909 -0.3615 -0.3559  0.0863
  108OSM   H11S11081   2.753   2.343  26.996  1.4779  2.9144 -1.4271
  108OSM   H11T11082   2.872   2.340  26.877 -1.0819  0.5196 -0.3164
  108OSM   C12S11083   2.820   2.140  26.970 -0.0528  0.5914  0.2018
  108OSM   H12S11084   2.727   2.092  27.006 -0.4521 -0.1124 -1.6657
  108OSM   H12T11085   2.883   2.161  27.060 -0.1622  1.6416  0.0429
  108OSM   C13S11086   2.883   2.034  26.870  0.0697  0.3713  0.2224
  108OSM   H13S11087   2.972   2.075  26.818 -0.6631 -0.8083 -2.0614
  108OSM   H13T11088   2.811   2.025  26.786  0.8673  2.1541 -0.6947
  108OSM   C14S11089   2.910   1.891  26.924 -0.0098  1.2215 -0.0670
  108OSM   H14S11090   2.972   1.829  26.857 -1.6854 -0.5417 -0.0771
  108OSM   H14T11091   2.812   1.839  26.934  0.0258  1.2331  0.3780
  108OSM   C15S11092   2.985   1.913  27.056  0.5692  0.1525  0.5954
  108OSM   H15S11093   2.910   1.959  27.122 -0.3702  1.1108 -1.0738
  108OSM   H15T11094   3.065   1.988  27.037 -0.1697  0.4246 -1.7402
  108OSM   C16S11095   3.039   1.785  27.120  0.1371  0.4889 -0.3378
  108OSM   H16S11096   3.075   1.722  27.036  2.7481 -1.0151  1.7588
  108OSM   H16T11097   2.947   1.739  27.162  1.4329 -1.0420  0.9752
  108OSM   C17S11098   3.148   1.809  27.222  0.4171 -0.4922 -0.0887
  108OSM   H17S11099   3.237   1.852  27.172  1.0160 -0.9475  0.5574
  108OSM   H17T11100   3.178   1.710  27.261  2.2560 -0.4744 -1.3147
  108OSM   C18S11101   3.099   1.889  27.342 -0.1061  0.3154  0.0451
  108OSM   H18S11102   3.189   1.918  27.401  1.1828  0.4126 -1.8919
  108OSM   H18T11103   3.029   1.820  27.395 -0.6125  1.2953  0.6671
  108OSM   H18U11104   3.053   1.981  27.302 -0.2192  0.0807 -0.3779
  108OSM    C1F11105   2.299   3.053  26.348 -0.7047 -0.1691  0.4610
  108OSM     OF11106   2.389   3.064  26.267  0.1646 -0.0964  0.4408
  108OSM    C2F11107   2.157   3.047  26.310 -0.4580  0.0536 -0.8331
  108OSM    H2F11108   2.103   3.143  26.306 -0.7488 -0.1381 -1.6076
  108OSM    H2G11109   2.093   2.977  26.368 -0.4837 -1.7755 -2.9153
  108OSM    C3F11110   2.128   3.020  26.158  0.1471  0.2449 -0.4160
  108OSM    H3F11111   2.161   3.111  26.102 -0.2899  0.9837  0.4961
  108OSM    H3G11112   2.018   3.025  26.147  0.0738 -1.3374 -0.6296
  108OSM    C4F11113   2.181   2.893  26.094 -0.2346  0.8407  0.3620
  108OSM    H4F11114   2.292   2.888  26.104 -0.3076  0.7908  1.2683
  108OSM    H4G11115   2.141   2.889  25.991 -1.3718  0.3186  0.8036
  108OSM    C5F11116   2.132   2.766  26.159 -0.5146  0.1088  0.4458
  108OSM    H5F11117   2.023   2.785  26.169 -0.5317  0.1119  0.2641
  108OSM    H5G11118   2.180   2.755  26.259  1.2024 -0.3991 -0.3837
  108OSM    C6F11119   2.166   2.645  26.071  0.5513  0.1168 -0.1040
  108OSM    H6F11120   2.276   2.649  26.054  0.7169 -2.4802 -0.0532
  108OSM    H6G11121   2.118   2.640  25.971 -0.9695 -1.2687  0.6364
  108OSM    C7F11122   2.107   2.510  26.127  0.4654  0.1813  0.2527
  108OSM    H7F11123   1.996   2.514  26.128  0.4321  0.8123 -1.5475
  108OSM    H7G11124   2.137   2.496  26.233 -2.0585 -3.7145  0.6410
  108OSM    C8F11125   2.164   2.386  26.047  0.3225  0.2799 -0.0759
  108OSM    H8F11126   2.140   2.414  25.942 -0.9490  0.9907  0.3758
  108OSM    H8G11127   2.105   2.297  26.080  3.0414 -0.9997  1.6605
  108OSM    C9F11128   2.310   2.371  26.067  0.0555 -0.0481 -0.6170
  108OSM    H9F11129   2.372   2.461  26.060  0.2219 -0.2208 -1.4992
  108OSM   C10F11130   2.367   2.259  26.116 -0.2759 -0.0650  0.9267
  108OSM   H10F11131   2.477   2.249  26.116 -0.4232 -2.2741 -0.6353
  108OSM   C11F11132   2.295   2.132  26.150  0.8942  0.9259 -0.3578
  108OSM   H11F11133   2.211   2.105  26.083  0.6482 -1.3728  0.7619
  108OSM   H11G11134   2.259   2.143  26.255 -1.4578  0.3405 -1.0406
  108OSM   C12F11135   2.397   2.010  26.130 -0.2376  0.5253  0.1865
  108OSM   H12F11136   2.472   2.018  26.212  0.6109 -2.4014 -0.2024
  108OSM   H12G11137   2.444   2.009  26.030 -0.7132 -0.8124 -0.0359
  108OSM   C13F11138   2.332   1.870  26.139  0.1934  0.6058  0.1753
  108OSM   H13F11139   2.240   1.871  26.076  0.1934  0.0039  0.1637
  108OSM   H13G11140   2.314   1.857  26.248  1.8169 -2.8285  0.1591
  108OSM   C14F11141   2.434   1.762  26.102 -0.5640  0.5223 -0.1389
  108OSM   H14F11142   2.539   1.778  26.134  0.5115 -3.6804 -0.9946
  108OSM   H14G11143   2.441   1.746  25.992  3.7841  1.0021 -0.0992
  108OSM   C15F11144   2.385   1.633  26.167 -0.8445 -0.4323 -0.3253
  108OSM   H15F11145   2.278   1.605  26.159 -1.0852  0.1862  0.5106
  108OSM   H15G11146   2.415   1.638  26.274  0.2986 -1.7206 -0.5523
  108OSM   C16F11147   2.461   1.509  26.114 -0.3300 -0.1294 -0.1653
  108OSM   H16F11148   2.564   1.521  26.156 -0.1979  1.2512 -0.8025
  108OSM   H16G11149   2.465   1.512  26.003  1.6567  0.4139 -0.1133
  108OSM   C17F11150   2.405   1.374  26.160  0.4597 -0.6671 -0.4629
  108OSM   H17F11151   2.300   1.355  26.129  0.3867  0.7158 -1.1297
  108OSM   H17G11152   2.407   1.386  26.270 -0.2817  0.1205 -0.5275
  108OSM   C18F11153   2.491   1.257  26.116 -0.4049 -0.2297  1.0251
  108OSM   H18F11154   2.501   1.246  26.005 -2.0916  1.2881  0.6731
  108OSM   H18G11155   2.450   1.165  26.164 -0.9118 -0.2639  0.5436
  108OSM   H18H11156   2.593   1.255  26.159 -0.0514  0.2037  0.2452
  109OSM      N11157   3.096   3.597  29.030  0.1394  0.6383 -0.2834
  109OSM    C1511158   3.054   3.461  28.974  0.0582  0.3213  0.9012
  109OSM   H15A11159   2.971   3.458  28.906 -0.8308  0.8888  1.9234
  109OSM   H15B11160   3.031   3.394  29.056  2.8230 -0.7907  0.8663
  109OSM   H15C11161   3.136   3.415  28.921  0.4379 -0.3036  1.9880
  109OSM    C1411162   3.107   3.693  28.916 -0.1795  0.2598  0.3682
  109OSM   H14A11163   3.117   3.792  28.957 -0.1284 -0.5756  2.5082
  109OSM   H14B11164   3.013   3.685  28.863 -2.2281 -1.8813  3.9157
  109OSM   H14C11165   3.194   3.682  28.853 -0.5325  0.6078 -0.1909
  109OSM    C1311166   2.985   3.643  29.116 -0.0788 -0.2089 -0.1914
  109OSM   H13A11167   2.888   3.641  29.068 -0.5319  2.9245  0.3368
  109OSM   H13B11168   3.001   3.744  29.150 -1.2682 -0.4642  1.2601
  109OSM   H13C11169   2.974   3.580  29.203 -1.2241  2.2722  1.6005
  109OSM    C1211170   3.232   3.583  29.105 -0.1003 -0.3546  0.0486
  109OSM   H12A11171   3.304   3.523  29.051  0.5734  0.1192  0.3997
  109OSM   H12B11172   3.222   3.523  29.194 -3.8052  1.9458  1.4080
  109OSM    C1111173   3.304   3.720  29.148  0.7481 -0.3465 -0.2057
  109OSM   H11A11174   3.303   3.788  29.060  0.4432 -0.4819 -0.3082
  109OSM   H11B11175   3.409   3.719  29.182  1.0641 -0.4894 -1.1380
  109OSM      P11176   3.242   3.784  29.386 -0.1219 -0.5779 -0.3153
  109OSM    O1311177   3.113   3.790  29.459  0.0854  0.3829  0.4625
  109OSM    O1411178   3.333   3.671  29.414 -0.5398  1.0251 -0.4127
  109OSM    O1111179   3.314   3.910  29.439  0.6105 -0.3666  0.4205
  109OSM    O1211180   3.218   3.797  29.237  0.0009  0.2783 -0.4465
  109OSM    C1S11181   3.340   4.016  29.344  0.3439 -0.6501 -0.0555
  109OSM    H1S11182   3.255   4.087  29.349  0.2228 -0.7594 -0.5058
  109OSM    H1T11183   3.352   3.988  29.237  0.9446 -0.4351 -0.0467
  109OSM     NF11184   3.468   4.224  29.335  0.1511  0.5202 -0.3025
  109OSM    HNF11185   3.532   4.234  29.259  0.9779 -1.1595  0.1146
  109OSM    C2S11186   3.468   4.096  29.391  0.0668  0.4973 -0.0350
  109OSM    H2S11187   3.449   4.101  29.500 -2.1318  2.5516 -0.4313
  109OSM    C3S11188   3.599   4.014  29.377 -0.3398  0.0097  0.4960
  109OSM    H3S11189   3.611   3.991  29.269 -2.1973 -0.0271  0.2708
  109OSM     O311190   3.597   3.883  29.439  0.0492  0.1436 -0.5748
  109OSM    HO311191   3.504   3.862  29.452 -0.0547  1.8789  2.3703
  109OSM    C4S11192   3.717   4.084  29.437 -0.1038 -0.0645  0.2786
  109OSM    H4S11193   3.702   4.113  29.542 -0.0053  1.8082 -0.1963
  109OSM    C5S11194   3.824   4.143  29.377  0.1851  0.2251 -0.3460
  109OSM    H5S11195   3.843   4.138  29.269  1.9590  2.1549 -0.1877
  109OSM    C6S11196   3.926   4.228  29.447  0.1149 -0.1658  0.0916
  109OSM    H6S11197   4.021   4.173  29.463 -1.2514 -2.0459  2.3022
  109OSM    H6T11198   3.897   4.259  29.550 -0.0246  2.0630 -0.5563
  109OSM    C7S11199   3.949   4.361  29.377  0.6397 -0.0425  0.4281
  109OSM    H7S11200   3.854   4.418  29.370  0.7986  0.2118  0.3306
  109OSM    H7T11201   3.984   4.348  29.272  0.4092 -1.4227  0.5047
  109OSM    C8S11202   4.055   4.450  29.450  0.2669  0.0494 -0.1423
  109OSM    H8S11203   4.157   4.423  29.415  0.9357  2.3245 -0.0530
  109OSM    H8T11204   4.046   4.440  29.561 -0.3794  0.0223 -0.1929
  109OSM    C9S11205   4.039   4.602  29.427  0.5074  0.4907  0.1331
  109OSM    H9S11206   3.946   4.629  29.480  0.1455 -0.0589 -0.2101
  109OSM    H9T11207   4.024   4.617  29.318  0.6224  0.5126  0.1190
  109OSM   C10S11208   4.149   4.696  29.473 -1.2177  0.6898 -0.3108
  109OSM   H10S11209   4.250   4.651  29.458  0.1663  2.4243  2.7210
  109OSM   H10T11210   4.144   4.717  29.582 -0.3936 -1.1764  0.1134
  109OSM   C11S11211   4.139   4.826  29.395 -0.6210 -0.0519 -0.0647
  109OSM   H11S11212   4.038   4.869  29.410 -0.0831  0.1770  3.6293
  109OSM   H11T11213   4.149   4.821  29.284  0.2149 -0.3612  0.0121
  109OSM   C12S11214   4.225   4.938  29.456  0.3074 -0.2775 -0.1377
  109OSM   H12S11215   4.325   4.903  29.488 -0.4618 -0.2183  2.6640
  109OSM   H12T11216   4.178   4.980  29.548 -1.6538 -1.2304 -0.6672
  109OSM   C13S11217   4.240   5.061  29.366  0.0389  0.1764 -0.3937
  109OSM   H13S11218   4.299   5.030  29.278  0.7292  1.4336 -0.4027
  109OSM   H13T11219   4.309   5.134  29.413  0.0766 -1.3209  2.0929
  109OSM   C14S11220   4.109   5.140  29.339  0.0621  0.3822 -0.3901
  109OSM   H14S11221   4.068   5.183  29.432 -3.6745  1.9731 -2.5477
  109OSM   H14T11222   4.027   5.071  29.309  0.0906  0.1421  0.0746
  109OSM   C15S11223   4.123   5.249  29.238  0.0227  0.2214  0.2945
  109OSM   H15S11224   4.029   5.270  29.183  0.6457  1.0932 -0.4756
  109OSM   H15T11225   4.197   5.218  29.160 -0.0835 -1.8824  0.9716
  109OSM   C16S11226   4.178   5.380  29.302  0.3870 -0.2083  0.3605
  109OSM   H16S11227   4.288   5.388  29.307  0.3091  0.0909  2.9099
  109OSM   H16T11228   4.145   5.377  29.408  0.4045 -0.9156  0.3500
  109OSM   C17S11229   4.123   5.511  29.241 -0.3370  0.3399  0.4019
  109OSM   H17S11230   4.124   5.496  29.131 -1.8534  0.5622  0.3487
  109OSM   H17T11231   4.178   5.596  29.288 -1.6594  0.9010  0.9971
  109OSM   C18S11232   3.980   5.541  29.278  0.9168 -0.3356 -0.5423
  109OSM   H18S11233   3.915   5.462  29.235 -1.3288  0.1386  1.7196
  109OSM   H18T11234   3.946   5.640  29.240 -3.7536 -0.5495  2.3420
  109OSM   H18U11235   3.962   5.556  29.387  1.1391  0.9942 -0.6677
  109OSM    C1F11236   3.381   4.315  29.373 -0.1368 -0.0761 -0.3075
  109OSM     OF11237   3.310   4.296  29.472  0.6404 -0.5151  0.2065
  109OSM    C2F11238   3.380   4.444  29.291  0.4826 -0.4087  0.0567
  109OSM    H2F11239   3.319   4.426  29.200  0.7161 -0.3907 -0.1041
  109OSM    H2G11240   3.483   4.471  29.263  0.5460  0.0321  0.6998
  109OSM    C3F11241   3.310   4.560  29.369  0.8446  0.4190  0.5176
  109OSM    H3F11242   3.363   4.598  29.458 -1.1671  1.9921  1.1312
  109OSM    H3G11243   3.214   4.520  29.409  0.3568  0.7404 -0.2830
  109OSM    C4F11244   3.281   4.684  29.285 -0.0012 -1.1654  0.4776
  109OSM    H4F11245   3.202   4.663  29.209  1.4828  0.4242 -1.6135
  109OSM    H4G11246   3.368   4.731  29.235 -1.8829  1.8205 -0.2175
  109OSM    C5F11247   3.230   4.804  29.366 -0.3087  0.4141 -0.0654
  109OSM    H5F11248   3.292   4.831  29.455 -1.3860  1.9366  0.2637
  109OSM    H5G11249   3.139   4.763  29.415 -1.7738  2.8848 -0.5227
  109OSM    C6F11250   3.206   4.922  29.275  0.0027 -0.2114 -0.2245
  109OSM    H6F11251   3.153   4.877  29.188  0.9631 -0.9753 -0.4310
  109OSM    H6G11252   3.299   4.961  29.228 -0.1733  2.0231  1.1403
  109OSM    C7F11253   3.122   5.028  29.338  0.2792  0.0895  0.4990
  109OSM    H7F11254   3.037   4.976  29.387  0.2203 -0.1403  0.1547
  109OSM    H7G11255   3.084   5.085  29.251  0.1244 -0.6181  0.0896
  109OSM    C8F11256   3.205   5.115  29.432 -0.4331  0.4055 -0.7736
  109OSM    H8F11257   3.216   5.040  29.514 -0.6806 -0.0857 -1.1828
  109OSM    H8G11258   3.139   5.198  29.463 -0.2104  0.1832  0.3497
  109OSM    C9F11259   3.337   5.177  29.392  0.6661  0.1362  0.3282
  109OSM    H9F11260   3.414   5.105  29.362 -1.3857 -1.1938 -2.2106
  109OSM   C10F11261   3.365   5.307  29.374  0.8754  0.6958  0.0584
  109OSM   H10F11262   3.468   5.336  29.349  1.2108 -1.0534 -0.6751
  109OSM   C11F11263   3.277   5.428  29.399 -0.0050 -0.8219 -0.4863
  109OSM   H11F11264   3.328   5.482  29.482 -0.8801 -1.2014  0.3215
  109OSM   H11G11265   3.179   5.404  29.445 -0.5158 -2.1430 -2.1494
  109OSM   C12F11266   3.265   5.524  29.274 -0.1632 -0.4509 -0.2331
  109OSM   H12F11267   3.360   5.576  29.249 -0.1739  0.2103  0.9802
  109OSM   H12G11268   3.200   5.609  29.306  0.9693 -0.5232  2.6190
  109OSM   C13F11269   3.226   5.462  29.136 -0.0665 -0.5669 -0.5121
  109OSM   H13F11270   3.131   5.408  29.156 -0.5904  0.5699  0.2138
  109OSM   H13G11271   3.312   5.405  29.097  1.0111 -0.1805  1.2164
  109OSM   C14F11272   3.189   5.571  29.036 -0.3172  0.2703  0.4377
  109OSM   H14F11273   3.122   5.642  29.089 -0.1808 -0.1744  1.2281
  109OSM   H14G11274   3.135   5.535  28.946 -0.8977  1.4309  0.3000
  109OSM   C15F11275   3.315   5.652  28.990  0.3483  0.6631  0.4048
  109OSM   H15F11276   3.377   5.590  28.921 -0.0221 -0.2337  0.8537
  109OSM   H15G11277   3.373   5.673  29.083  1.1892 -0.0712  0.0615
  109OSM   C16F11278   3.271   5.774  28.916  0.9175  0.2260  0.7855
  109OSM   H16F11279   3.355   5.845  28.901  2.5566 -1.4816  1.3771
  109OSM   H16G11280   3.204   5.826  28.987 -0.1864 -1.5766  1.1140
  109OSM   C17F11281   3.185   5.754  28.790 -0.0453  0.1568  0.0025
  109OSM   H17F11282   3.079   5.731  28.815  0.1757  1.6900  2.7569
  109OSM   H17G11283   3.219   5.663  28.735  1.4188  0.8007 -0.1927
  109OSM   C18F11284   3.193   5.873  28.695  0.0010 -0.4038  0.2425
  109OSM   H18F11285   3.142   5.847  28.599 -0.7758  2.2413 -0.1439
  109OSM   H18G11286   3.299   5.906  28.688 -0.3016  0.5582  0.0390
  109OSM   H18H11287   3.136   5.952  28.747 -0.0123 -0.8503  0.9204
  110OSM      N11288   0.551   0.357  24.265  0.3498  0.0440  0.0944
  110OSM    C1511289   0.427   0.378  24.342  0.1180  0.2681 -0.4574
  110OSM   H15A11290   0.358   0.454  24.308  0.1010  0.7309  0.5747
  110OSM   H15B11291   0.455   0.415  24.440 -0.5383  2.2241 -0.9566
  110OSM   H15C11292   0.367   0.288  24.353 -0.4690  0.7560  0.5549
  110OSM    C1411293   0.625   0.238  24.316 -0.3178  0.3848  0.4705
  110OSM   H14A11294   0.706   0.211  24.251 -0.5445  0.2006  0.2634
  110OSM   H14B11295   0.561   0.150  24.315  1.8684 -1.2759  0.2403
  110OSM   H14C11296   0.662   0.245  24.417 -1.2784 -1.9684  1.0581
  110OSM    C1311297   0.497   0.332  24.127 -0.2436 -0.1699  0.3133
  110OSM   H13A11298   0.431   0.411  24.097  0.3143  1.9867  4.0939
  110OSM   H13B11299   0.449   0.235  24.123 -2.1025  0.7394 -0.5865
  110OSM   H13C11300   0.583   0.332  24.062 -0.6651  0.5395 -0.2444
  110OSM    C1211301   0.639   0.481  24.264  0.3236 -0.2467 -1.0465
  110OSM   H12A11302   0.600   0.560  24.201 -0.4413 -0.3002 -0.6468
  110OSM   H12B11303   0.737   0.449  24.231  1.1036 -1.1179  1.8205
  110OSM    C1111304   0.661   0.551  24.404  0.2693  0.5449 -0.6001
  110OSM   H11A11305   0.573   0.616  24.419 -1.2380 -1.4327 -0.4508
  110OSM   H11B11306   0.742   0.627  24.410  0.7358 -0.0475  1.1447
  110OSM      P11307   0.827   0.415  24.559  0.7940 -0.3431  0.5875
  110OSM    O1311308   0.856   0.497  24.675  0.5595  0.2192  0.0546
  110OSM    O1411309   0.847   0.266  24.578 -0.7470 -0.0152  0.4838
  110OSM    O1111310   0.933   0.462  24.444  0.0794  0.6334  0.1181
  110OSM    O1211311   0.683   0.454  24.512  0.0503 -0.5063  1.1418
  110OSM    C1S11312   0.981   0.363  24.353  0.6919 -0.0682  0.5047
  110OSM    H1S11313   0.898   0.319  24.293  1.9387 -0.6728 -0.8408
  110OSM    H1T11314   1.041   0.281  24.397 -1.3947 -0.9353  1.9181
  110OSM     NF11315   1.105   0.325  24.133  0.1517 -0.0493  0.3518
  110OSM    HNF11316   1.187   0.270  24.149  0.6675  0.9102  1.1410
  110OSM    C2S11317   1.081   0.420  24.246  0.9281  0.5119  0.0352
  110OSM    H2S11318   1.046   0.517  24.204 -0.5936  0.3210  0.8272
  110OSM    C3S11319   1.217   0.464  24.314 -0.2451  0.3549  0.1385
  110OSM    H3S11320   1.266   0.376  24.361 -0.2858  0.0780 -0.3318
  110OSM     O311321   1.196   0.554  24.427  0.4440 -0.1913  0.2672
  110OSM    HO311322   1.109   0.533  24.461  0.7621 -0.1495  1.1209
  110OSM    C4S11323   1.313   0.527  24.218 -0.1136  0.5398 -0.6216
  110OSM    H4S11324   1.400   0.463  24.195  1.1015  1.3310  1.4274
  110OSM    C5S11325   1.314   0.653  24.174 -0.1533 -0.3902  0.0760
  110OSM    H5S11326   1.244   0.732  24.205  0.4591 -0.5706  2.0504
  110OSM    C6S11327   1.421   0.705  24.079 -1.0746  0.3569 -0.0915
  110OSM    H6S11328   1.504   0.638  24.047  0.5592  1.7126  1.1003
  110OSM    H6T11329   1.479   0.780  24.137  0.1473 -1.2110  0.7852
  110OSM    C7S11330   1.366   0.767  23.953 -0.1765 -0.5186  0.1327
  110OSM    H7S11331   1.300   0.852  23.980 -1.1420 -1.2585  0.1629
  110OSM    H7T11332   1.303   0.692  23.900 -2.0108 -0.1745  1.7296
  110OSM    C8S11333   1.483   0.820  23.864 -0.4206 -0.4921  0.0085
  110OSM    H8S11334   1.431   0.846  23.769 -0.9392 -0.9408  0.1701
  110OSM    H8T11335   1.562   0.743  23.853 -0.0984  0.0272 -1.6384
  110OSM    C9S11336   1.562   0.945  23.912  0.0049 -0.1559  0.0012
  110OSM    H9S11337   1.602   0.910  24.009 -1.5910  0.4057  0.9011
  110OSM    H9T11338   1.489   1.024  23.939  1.9506  2.0033 -0.7342
  110OSM   C10S11339   1.671   0.986  23.814 -0.1073  0.3297  0.0632
  110OSM   H10S11340   1.645   0.997  23.707  2.0344  2.6169 -0.3117
  110OSM   H10T11341   1.763   0.925  23.823 -0.1259  0.2599 -0.2065
  110OSM   C11S11342   1.732   1.121  23.845  0.2400  0.1763 -0.1444
  110OSM   H11S11343   1.776   1.133  23.947 -0.3265  0.5429  0.0611
  110OSM   H11T11344   1.640   1.182  23.842 -0.7414 -1.0492  2.2446
  110OSM   C12S11345   1.834   1.171  23.743 -0.3601 -0.0360  0.4422
  110OSM   H12S11346   1.788   1.163  23.642 -0.0588 -0.6908  0.3525
  110OSM   H12T11347   1.921   1.103  23.751 -0.2554 -0.2247 -1.6773
  110OSM   C13S11348   1.885   1.313  23.763 -0.0115 -0.6578  0.3912
  110OSM   H13S11349   1.796   1.366  23.805  0.7403  0.3196  0.7914
  110OSM   H13T11350   1.895   1.360  23.663  0.8420  1.1641  1.2814
  110OSM   C14S11351   2.012   1.324  23.853  0.7845  0.0967 -0.0947
  110OSM   H14S11352   2.089   1.277  23.789  0.2858  0.1065 -0.7157
  110OSM   H14T11353   2.003   1.251  23.937  1.2201 -1.7319 -1.5758
  110OSM   C15S11354   2.040   1.465  23.898  0.1674  0.0181 -0.3866
  110OSM   H15S11355   1.950   1.530  23.896  0.0968 -0.0734 -0.1989
  110OSM   H15T11356   2.096   1.511  23.814  2.1755 -1.8494 -0.1686
  110OSM   C16S11357   2.112   1.465  24.031  0.3975 -0.4225 -0.2605
  110OSM   H16S11358   2.192   1.388  24.034  0.4855 -0.3487 -0.7018
  110OSM   H16T11359   2.048   1.448  24.121  0.1685  2.0794  0.1269
  110OSM   C17S11360   2.186   1.603  24.052 -0.4355  0.8461  0.6495
  110OSM   H17S11361   2.205   1.589  24.160 -0.8362  1.3615  0.7879
  110OSM   H17T11362   2.111   1.683  24.037 -2.4888 -1.2835 -1.2527
  110OSM   C18S11363   2.305   1.621  23.967  0.1224 -0.8089  0.1418
  110OSM   H18S11364   2.378   1.702  23.987  1.7100 -1.6495 -1.8617
  110OSM   H18T11365   2.276   1.619  23.860  1.9415  1.8259 -0.5050
  110OSM   H18U11366   2.363   1.526  23.979 -1.7766 -2.2051 -1.1268
  110OSM    C1F11367   1.013   0.289  24.048  0.3816  0.0067  0.6265
  110OSM     OF11368   0.918   0.363  24.021 -0.2021 -0.9312  0.2167
  110OSM    C2F11369   1.025   0.149  23.991  0.8233 -0.1161  0.4020
  110OSM    H2F11370   1.016   0.079  24.076 -2.5446 -0.1331  0.1701
  110OSM    H2G11371   1.125   0.143  23.942  1.5787  2.2378  1.5290
  110OSM    C3F11372   0.897   0.122  23.901  0.1844  1.4562 -0.1820
  110OSM    H3F11373   0.888   0.183  23.808 -1.7323  0.4946 -0.6798
  110OSM    H3G11374   0.795   0.137  23.941 -0.4386  0.0711 -1.1717
  110OSM    C4F11375   0.892  -0.034  23.871  0.6046 -0.9802 -0.8521
  110OSM    H4F11376   0.795  -0.050  23.819  0.2524 -1.8824  0.0558
  110OSM    H4G11377   0.889  -0.090  23.967  0.8120 -0.3536 -0.4784
  110OSM    C5F11378   1.015  -0.080  23.794 -0.6379 -0.0457 -0.0692
  110OSM    H5F11379   0.977  -0.180  23.764 -0.7851 -0.1849  0.5643
  110OSM    H5G11380   1.103  -0.104  23.858 -0.8210 -0.8165 -0.1048
  110OSM    C6F11381   1.053  -0.005  23.656 -0.0046 -0.7748  0.4919
  110OSM    H6F11382   1.141  -0.056  23.611 -1.5439 -1.9664 -1.3365
  110OSM    H6G11383   1.080   0.100  23.680 -0.5420 -0.5862  0.2914
  110OSM    C7F11384   0.930   0.002  23.565  0.1250 -0.1722  0.3655
  110OSM    H7F11385   0.891   0.106  23.566 -1.3325 -0.6701 -1.0434
  110OSM    H7G11386   0.858  -0.075  23.599  0.8811 -0.6865  0.8371
  110OSM    C8F11387   0.971  -0.031  23.414  0.3005 -0.6093  0.5019
  110OSM    H8F11388   1.033  -0.123  23.421 -0.5639 -1.0943  2.5038
  110OSM    H8G11389   1.055   0.039  23.395 -1.3583  1.2655 -0.2220
  110OSM    C9F11390   0.873  -0.012  23.307  0.2249 -0.6508 -0.3465
  110OSM    H9F11391   0.900   0.057  23.226 -3.1265  2.6967  1.0932
  110OSM   C10F11392   0.771  -0.095  23.286 -0.1586 -0.1868 -0.4472
  110OSM   H10F11393   0.724  -0.082  23.188 -0.1175  1.4035 -0.2946
  110OSM   C11F11394   0.716  -0.205  23.377 -0.4059  0.0087  1.2512
  110OSM   H11F11395   0.672  -0.153  23.464  1.5619  3.6359  0.3033
  110OSM   H11G11396   0.798  -0.268  23.418 -0.9176 -0.2843  1.8273
  110OSM   C12F11397   0.623  -0.301  23.302  0.6946 -0.3198  0.4020
  110OSM   H12F11398   0.618  -0.404  23.342 -0.2801 -0.8908 -1.0974
  110OSM   H12G11399   0.669  -0.316  23.202  1.9859  1.6635  0.6441
  110OSM   C13F11400   0.482  -0.247  23.301  0.3736  0.2667 -0.4586
  110OSM   H13F11401   0.475  -0.137  23.283  0.6745  0.0895 -1.8006
  110OSM   H13G11402   0.441  -0.254  23.404  0.2896 -1.6381 -0.5919
  110OSM   C14F11403   0.386  -0.339  23.228 -0.5236 -0.8303 -0.7022
  110OSM   H14F11404   0.412  -0.440  23.266 -1.6587 -0.8768 -0.0253
  110OSM   H14G11405   0.414  -0.334  23.121 -0.0407  1.9855 -0.5344
  110OSM   C15F11406   0.231  -0.319  23.246  0.3940 -0.5651 -0.7053
  110OSM   H15F11407   0.214  -0.345  23.353  2.8748  1.3306  0.2799
  110OSM   H15G11408   0.193  -0.400  23.182  1.5430 -1.7256  0.0247
  110OSM   C16F11409   0.161  -0.187  23.191 -0.4386  0.5135  0.1158
  110OSM   H16F11410   0.137  -0.185  23.083  0.9647  1.4409 -0.1966
  110OSM   H16G11411   0.237  -0.108  23.207 -2.0668  1.7193  2.5328
  110OSM   C17F11412   0.037  -0.154  23.268  0.3998  0.1732 -0.0370
  110OSM   H17F11413   0.061  -0.178  23.374 -2.5238 -0.7933  0.4912
  110OSM   H17G11414  -0.046  -0.223  23.240  0.1680  1.5234 -2.9739
  110OSM   C18F11415  -0.013  -0.017  23.223 -0.1628  0.1517 -0.7369
  110OSM   H18F11416  -0.051  -0.010  23.118 -0.5363  2.2849 -0.4968
  110OSM   H18G11417   0.065   0.062  23.221  2.1886 -2.0039  0.1585
  110OSM   H18H11418  -0.092  -0.001  23.300  1.9066 -1.3070  1.8478
  111OSM      N11419   3.932   3.936  25.323  0.3780  0.4270 -0.3827
  111OSM    C1511420   3.883   4.047  25.233  0.5377 -0.0978  0.4876
  111OSM   H15A11421   3.819   4.118  25.282 -3.0039 -2.5453 -0.2301
  111OSM   H15B11422   3.818   4.018  25.151  1.7258  1.5845 -1.1462
  111OSM   H15C11423   3.967   4.095  25.183  0.2342  0.2760  0.3328
  111OSM    C1411424   3.988   3.997  25.441  0.5771  0.3327  0.5100
  111OSM   H14A11425   4.091   4.027  25.427  0.6720  1.0409  2.4057
  111OSM   H14B11426   4.001   3.927  25.522 -0.2959 -0.8715 -0.3586
  111OSM   H14C11427   3.933   4.081  25.480  2.4497  1.7549  0.2362
  111OSM    C1311428   3.812   3.844  25.353 -0.3627 -0.6449  0.6193
  111OSM   H13A11429   3.843   3.761  25.414  1.5454  0.7166  1.6165
  111OSM   H13B11430   3.767   3.810  25.261 -1.8366 -1.3965  1.5804
  111OSM   H13C11431   3.732   3.898  25.403 -1.2014  0.7061 -1.9658
  111OSM    C1211432   4.037   3.852  25.249  0.5450 -0.6370  0.0562
  111OSM   H12A11433   3.987   3.812  25.162 -1.2599 -1.6343  1.5012
  111OSM   H12B11434   4.055   3.758  25.299 -2.6581 -0.9545  0.7882
  111OSM    C1111435   4.171   3.929  25.210  0.7910 -0.8670  0.1735
  111OSM   H11A11436   4.153   4.025  25.157  1.0282  0.4543  2.3721
  111OSM   H11B11437   4.221   3.870  25.129  1.9894  0.1682  0.1277
  111OSM      P11438   4.307   3.821  25.403  0.2341 -0.1280 -0.2126
  111OSM    O1311439   4.428   3.843  25.483 -0.4756 -0.6280  0.4087
  111OSM    O1411440   4.187   3.769  25.475  0.2361 -0.0239  0.2477
  111OSM    O1111441   4.339   3.723  25.282 -0.0976  0.1849 -0.3511
  111OSM    O1211442   4.260   3.951  25.322 -0.7608  0.4296  0.3211
  111OSM    C1S11443   4.459   3.746  25.212 -0.2716  0.0187  0.1075
  111OSM    H1S11444   4.544   3.785  25.272  0.9032 -1.4458 -0.5383
  111OSM    H1T11445   4.449   3.818  25.129  0.5915 -2.3654 -2.2110
  111OSM     NF11446   4.655   3.649  25.114 -0.6387 -0.4466 -0.1125
  111OSM    HNF11447   4.684   3.689  25.027  2.1502 -1.1980  0.3700
  111OSM    C2S11448   4.518   3.614  25.153  0.1600 -0.4472 -0.2015
  111OSM    H2S11449   4.526   3.536  25.232  1.4186 -0.3009 -0.1563
  111OSM    C3S11450   4.425   3.559  25.040  0.2536 -0.7503  0.0078
  111OSM    H3S11451   4.454   3.612  24.947 -0.0745  0.3234  0.4994
  111OSM     O311452   4.284   3.588  25.069  0.0222 -0.2191 -0.2299
  111OSM    HO311453   4.293   3.634  25.153 -0.6989  0.2226 -0.3784
  111OSM    C4S11454   4.450   3.417  25.011 -0.1190 -0.7029  0.1912
  111OSM    H4S11455   4.493   3.392  24.913  0.1293 -2.0342  0.6173
  111OSM    C5S11456   4.400   3.306  25.083  0.5564 -0.4529  0.4410
  111OSM    H5S11457   4.342   3.321  25.175  2.0327 -1.7188  1.6212
  111OSM    C6S11458   4.413   3.167  25.039  0.3433  0.3379 -0.1824
  111OSM    H6S11459   4.320   3.134  24.987  0.3789  1.3548 -0.9234
  111OSM    H6T11460   4.418   3.092  25.121  1.8256  0.2644 -0.3228
  111OSM    C7S11461   4.525   3.142  24.941 -0.2188  0.4445  0.3179
  111OSM    H7S11462   4.624   3.182  24.969  0.2225 -0.8487  0.6342
  111OSM    H7T11463   4.491   3.185  24.844 -0.8033 -0.5681  0.0583
  111OSM    C8S11464   4.538   2.993  24.910 -0.6471 -0.1455 -1.0055
  111OSM    H8S11465   4.445   2.953  24.864 -1.9844  1.1222  0.4501
  111OSM    H8T11466   4.561   2.948  25.009 -0.6300  1.4974 -0.2387
  111OSM    C9S11467   4.659   2.957  24.818 -0.0199 -0.1296  0.0950
  111OSM    H9S11468   4.745   3.017  24.855 -1.2295  0.6930  1.7389
  111OSM    H9T11469   4.639   2.990  24.714  2.0921 -2.1925 -1.0649
  111OSM   C10S11470   4.687   2.814  24.809  0.7584  0.0418 -0.4027
  111OSM   H10S11471   4.612   2.770  24.741  0.8876 -0.4517 -0.2320
  111OSM   H10T11472   4.662   2.771  24.909 -3.0792 -1.4235 -1.8310
  111OSM   C11S11473   4.825   2.781  24.760  0.6873 -0.7054  0.1066
  111OSM   H11S11474   4.895   2.792  24.846  2.0204  1.0437 -1.1247
  111OSM   H11T11475   4.840   2.859  24.683 -1.8402 -1.1223 -0.9029
  111OSM   C12S11476   4.836   2.643  24.692 -0.3421  0.0387  0.2554
  111OSM   H12S11477   4.792   2.570  24.764  2.3887 -1.4076  0.5955
  111OSM   H12T11478   4.943   2.622  24.669 -0.8969 -1.0282 -1.5295
  111OSM   C13S11479   4.774   2.644  24.549  0.3623 -0.4176  0.1353
  111OSM   H13S11480   4.832   2.719  24.491  2.0515  0.2984  2.5789
  111OSM   H13T11481   4.672   2.688  24.558 -0.2870 -2.1855  2.1939
  111OSM   C14S11482   4.772   2.510  24.474  0.7406  0.1861  0.9926
  111OSM   H14S11483   4.726   2.431  24.537 -0.2588 -0.1021 -0.0641
  111OSM   H14T11484   4.879   2.488  24.452  0.2557 -0.1650 -1.2662
  111OSM   C15S11485   4.689   2.517  24.345  0.2575  0.2293 -0.4238
  111OSM   H15S11486   4.706   2.611  24.290 -0.1780 -0.3187 -1.5283
  111OSM   H15T11487   4.584   2.516  24.382  0.8637  0.6637  1.4060
  111OSM   C16S11488   4.700   2.399  24.242 -0.2788  0.3417 -0.2675
  111OSM   H16S11489   4.698   2.295  24.280 -1.6356  0.1779 -0.7182
  111OSM   H16T11490   4.795   2.402  24.185  0.5075 -0.4958  0.9690
  111OSM   C17S11491   4.582   2.397  24.152 -0.1576 -0.2880  0.3072
  111OSM   H17S11492   4.494   2.420  24.216 -0.9981  1.7463 -1.4416
  111OSM   H17T11493   4.571   2.296  24.108  1.2683  0.0649 -0.9718
  111OSM   C18S11494   4.572   2.500  24.039 -0.0095 -0.8441  0.5004
  111OSM   H18S11495   4.662   2.518  23.977 -0.4046  0.0652  0.1704
  111OSM   H18T11496   4.545   2.598  24.083  0.5012 -0.8563  0.8480
  111OSM   H18U11497   4.492   2.464  23.971  0.5098 -0.7076 -0.1937
  111OSM    C1F11498   4.758   3.649  25.194  0.0237 -0.3257 -0.4115
  111OSM     OF11499   4.740   3.648  25.315 -0.3725  0.1663 -0.7105
  111OSM    C2F11500   4.895   3.675  25.131 -0.7031  0.1983  0.2013
  111OSM    H2F11501   4.951   3.732  25.208 -1.8134  0.3586  0.9174
  111OSM    H2G11502   4.881   3.747  25.047 -0.9564  1.0151  0.9304
  111OSM    C3F11503   4.967   3.543  25.101 -0.6315 -0.5846  0.6233
  111OSM    H3F11504   4.994   3.490  25.195  1.3211  1.0041  1.0278
  111OSM    H3G11505   5.051   3.564  25.032 -0.4846  0.5139  1.1214
  111OSM    C4F11506   4.879   3.452  25.012 -0.0750 -0.9561  0.6146
  111OSM    H4F11507   4.839   3.519  24.932 -1.9626 -1.4295  1.1268
  111OSM    H4G11508   4.797   3.397  25.061 -1.8528  0.6648 -0.4035
  111OSM    C5F11509   4.947   3.340  24.921  0.7726 -0.1859  0.5947
  111OSM    H5F11510   5.049   3.378  24.898  0.4220 -0.4742 -1.7239
  111OSM    H5G11511   4.882   3.318  24.833  1.6798 -0.5704 -0.0036
  111OSM    C6F11512   4.963   3.212  24.998 -0.5370  0.1969  0.8309
  111OSM    H6F11513   4.869   3.175  25.045  0.2895  0.1787  2.5395
  111OSM    H6G11514   5.034   3.241  25.078  0.3012  1.3063 -0.2916
  111OSM    C7F11515   5.025   3.098  24.907  0.9983 -1.0661 -0.1762
  111OSM    H7F11516   5.122   3.142  24.876 -0.6750  2.9197 -0.3820
  111OSM    H7G11517   4.962   3.089  24.816 -2.2315  4.8405  0.9526
  111OSM    C8F11518   5.051   2.973  24.991 -0.3676 -0.0389 -0.1179
  111OSM    H8F11519   5.091   2.903  24.914 -2.5058 -2.7804  1.1050
  111OSM    H8G11520   4.964   2.913  25.026 -0.1710 -0.4992 -0.3954
  111OSM    C9F11521   5.151   3.008  25.098  0.9120  0.0089 -0.8334
  111OSM    H9F11522   5.239   3.058  25.056  0.0808 -0.6425 -3.5242
  111OSM   C10F11523   5.157   2.970  25.229  0.3358  0.4637  0.3678
  111OSM   H10F11524   5.239   3.019  25.285  1.1110  1.0897 -1.2370
  111OSM   C11F11525   5.038   2.907  25.301 -1.5742  0.5783 -0.5276
  111OSM   H11F11526   5.024   2.803  25.262  0.5107 -0.0809  0.3760
  111OSM   H11G11527   4.950   2.965  25.264 -2.4079  2.1299  3.3901
  111OSM   C12F11528   5.048   2.900  25.452 -0.1105 -0.1376 -0.4095
  111OSM   H12F11529   4.940   2.896  25.477  0.0247  1.6290  0.6454
  111OSM   H12G11530   5.074   2.999  25.496 -1.7284  1.0732 -2.0437
  111OSM   C13F11531   5.117   2.771  25.513  0.0249 -0.0148 -0.2032
  111OSM   H13F11532   5.089   2.777  25.621 -0.3810  3.5751 -0.3652
  111OSM   H13G11533   5.225   2.795  25.510 -0.0180  0.3741  0.8280
  111OSM   C14F11534   5.064   2.643  25.465 -1.1027  0.4356  0.1745
  111OSM   H14F11535   5.099   2.619  25.362 -4.1314 -0.7568 -0.6885
  111OSM   H14G11536   4.954   2.637  25.455 -1.1448 -1.4058  1.3519
  111OSM   C15F11537   5.091   2.529  25.556  0.1634 -0.0172  0.1893
  111OSM   H15F11538   4.994   2.504  25.604 -0.9545  1.2910 -1.3045
  111OSM   H15G11539   5.160   2.548  25.641 -2.4210  2.1898  1.9405
  111OSM   C16F11540   5.129   2.403  25.476 -0.4996  0.3368 -0.1008
  111OSM   H16F11541   5.237   2.413  25.450  0.1870 -1.8191  1.6358
  111OSM   H16G11542   5.057   2.409  25.392 -2.4840  1.1091  1.5629
  111OSM   C17F11543   5.134   2.279  25.556 -0.2632 -0.7387  0.5480
  111OSM   H17F11544   5.170   2.292  25.660 -0.1111  1.0948  0.2967
  111OSM   H17G11545   5.201   2.204  25.509  0.5042  1.1236 -1.4951
  111OSM   C18F11546   4.988   2.223  25.567  0.3915 -0.0748 -0.3270
  111OSM   H18F11547   4.992   2.127  25.623 -0.1887  0.2008  0.1966
  111OSM   H18G11548   4.950   2.205  25.464  3.0131  0.6945 -1.5108
  111OSM   H18H11549   4.926   2.298  25.621  0.9699 -0.0322  0.2854
  112OSM      N11550   3.001   3.860  27.701  0.4483 -0.2775 -1.1536
  112OSM    C1511551   3.100   3.789  27.615  0.3259  0.4724 -0.2889
  112OSM   H15A11552   3.081   3.683  27.617 -0.7436  0.6534  0.2994
  112OSM   H15B11553   3.199   3.817  27.646  0.5874  0.6951 -1.3143
  112OSM   H15C11554   3.095   3.811  27.510 -0.6539 -0.5914 -0.4834
  112OSM    C1411555   3.037   4.009  27.690  0.6915  0.4810  0.0773
  112OSM   H14A11556   3.129   4.027  27.744  0.7622 -0.9161  0.4650
  112OSM   H14B11557   2.963   4.066  27.744  0.3148 -0.9867  1.1734
  112OSM   H14C11558   3.053   4.044  27.589 -1.2169  3.2861  0.6289
  112OSM    C1311559   2.864   3.841  27.650 -0.8867  0.1802 -0.2145
  112OSM   H13A11560   2.829   3.741  27.667 -1.7211  0.4006 -0.6202
  112OSM   H13B11561   2.872   3.856  27.543  1.7022 -1.8457 -0.4040
  112OSM   H13C11562   2.786   3.903  27.692 -3.6877 -2.5418 -1.1021
  112OSM    C1211563   3.004   3.812  27.847 -0.3971  0.0715  0.4233
  112OSM   H12A11564   2.927   3.861  27.906 -1.8431 -2.3489  0.6928
  112OSM   H12B11565   3.097   3.847  27.888  1.0629 -1.6517 -1.2435
  112OSM    C1111566   2.992   3.657  27.879  0.3512  0.3015  0.5833
  112OSM   H11A11567   3.004   3.636  27.988  0.5840  0.5420  0.6053
  112OSM   H11B11568   3.077   3.602  27.832 -0.2368 -0.3987  0.3278
  112OSM      P11569   2.825   3.452  27.870  0.3546  0.3288  0.2257
  112OSM    O1311570   2.801   3.446  28.009  0.0416 -0.3320 -1.1312
  112OSM    O1411571   2.718   3.408  27.775 -0.1401  0.1320  0.0949
  112OSM    O1111572   2.959   3.374  27.841 -0.4148  0.2622  0.4364
  112OSM    O1211573   2.860   3.609  27.837 -0.1689  0.6685 -0.6873
  112OSM    C1S11574   2.977   3.238  27.848 -0.6459  0.2396 -0.1502
  112OSM    H1S11575   2.881   3.187  27.823  0.4551 -0.6566 -2.8851
  112OSM    H1T11576   3.013   3.200  27.946  0.9887 -2.7635 -1.7723
  112OSM     NF11577   3.050   3.057  27.699  0.7252  0.3317 -0.3765
  112OSM    HNF11578   3.103   2.988  27.748  0.3500  0.3439  0.0587
  112OSM    C2S11579   3.076   3.194  27.732  0.1754  0.2123  0.2320
  112OSM    H2S11580   3.060   3.254  27.640  2.0929 -0.5572 -0.6598
  112OSM    C3S11581   3.225   3.223  27.783  0.0253 -0.3233 -1.1431
  112OSM    H3S11582   3.223   3.185  27.887 -1.5634 -1.9970 -1.7167
  112OSM     O311583   3.244   3.364  27.802 -0.5724 -0.7929  0.2866
  112OSM    HO311584   3.154   3.399  27.799  0.0238  0.7556 -1.0143
  112OSM    C4S11585   3.335   3.162  27.703  0.3492 -0.3063  0.5685
  112OSM    H4S11586   3.340   3.057  27.734  0.6282 -0.8033 -1.0790
  112OSM    C5S11587   3.390   3.203  27.586  0.5413  0.1747 -0.1106
  112OSM    H5S11588   3.355   3.298  27.543  4.5704  1.8113 -0.2168
  112OSM    C6S11589   3.481   3.116  27.504 -0.0595  0.0701 -1.0660
  112OSM    H6S11590   3.573   3.177  27.492  1.2562 -1.1651  1.8303
  112OSM    H6T11591   3.438   3.102  27.402 -0.3264  0.8362 -1.0643
  112OSM    C7S11592   3.535   2.985  27.556  0.6357  0.4064  0.5013
  112OSM    H7S11593   3.448   2.916  27.562 -1.0788  2.5124  0.7626
  112OSM    H7T11594   3.572   2.992  27.661  1.5385  0.2327  0.1990
  112OSM    C8S11595   3.648   2.933  27.465 -0.0462 -0.2420  0.4144
  112OSM    H8S11596   3.741   2.992  27.475  1.2917 -2.2508  0.3708
  112OSM    H8T11597   3.613   2.956  27.362 -1.1440 -1.3358  0.5134
  112OSM    C9S11598   3.680   2.788  27.491 -0.0041  0.1508  0.1450
  112OSM    H9S11599   3.587   2.728  27.495  0.5049 -0.5874  1.8722
  112OSM    H9T11600   3.733   2.783  27.588  0.5697  3.0537  0.0889
  112OSM   C10S11601   3.764   2.723  27.384  0.0748  0.0216 -0.5788
  112OSM   H10S11602   3.862   2.774  27.376 -0.1054  0.9299  2.1197
  112OSM   H10T11603   3.709   2.717  27.288 -1.8387  0.8014  0.4104
  112OSM   C11S11604   3.793   2.571  27.420  0.5896 -0.2467  0.2329
  112OSM   H11S11605   3.695   2.519  27.413 -1.1379  2.6679  1.1641
  112OSM   H11T11606   3.829   2.552  27.523 -0.3275 -5.9479 -0.1731
  112OSM   C12S11607   3.881   2.509  27.313  0.1449 -0.3789  0.1460
  112OSM   H12S11608   3.988   2.536  27.322  0.0786 -0.4036  1.1302
  112OSM   H12T11609   3.840   2.531  27.212  2.2909 -1.5064 -1.0313
  112OSM   C13S11610   3.885   2.350  27.336  0.7025  0.5815 -0.1442
  112OSM   H13S11611   3.827   2.300  27.256 -0.5026  0.0483  1.0232
  112OSM   H13T11612   3.833   2.338  27.434  0.8387  0.7591 -0.0500
  112OSM   C14S11613   4.031   2.306  27.332  0.1214 -0.2918  0.1596
  112OSM   H14S11614   4.083   2.339  27.424 -0.0992  1.2364 -0.2298
  112OSM   H14T11615   4.083   2.350  27.245 -1.5113 -0.3409 -0.8971
  112OSM   C15S11616   4.046   2.155  27.316 -0.8159 -0.2848 -0.2291
  112OSM   H15S11617   3.979   2.108  27.392 -0.3834  1.4704  1.3162
  112OSM   H15T11618   4.148   2.132  27.353 -0.3596 -0.4408 -1.5495
  112OSM   C16S11619   4.014   2.100  27.179 -0.5643  0.3360  0.3004
  112OSM   H16S11620   4.086   2.129  27.099 -1.0939  0.4392 -0.1453
  112OSM   H16T11621   3.909   2.121  27.149 -0.7009 -0.8200 -0.0844
  112OSM   C17S11622   4.024   1.947  27.180 -0.0103  1.6398 -0.2694
  112OSM   H17S11623   3.951   1.899  27.250  0.8776 -0.4386 -0.6878
  112OSM   H17T11624   4.124   1.909  27.210 -0.6592 -0.7589 -0.9299
  112OSM   C18S11625   3.989   1.884  27.044  0.1822 -0.0141  0.6718
  112OSM   H18S11626   3.960   1.778  27.054  2.1150 -0.7920 -1.2725
  112OSM   H18T11627   4.073   1.892  26.972  0.5206  4.3975  1.2587
  112OSM   H18U11628   3.901   1.934  27.000  0.1315 -0.0821  0.6953
  112OSM    C1F11629   2.941   3.019  27.637 -0.1253  0.2982 -0.3002
  112OSM     OF11630   2.862   3.095  27.583 -0.2211 -0.6437  0.7000
  112OSM    C2F11631   2.914   2.870  27.640 -0.3024  0.0959 -0.4716
  112OSM    H2F11632   3.004   2.816  27.605 -1.7755 -1.7444 -1.6248
  112OSM    H2G11633   2.820   2.834  27.592 -1.3759  1.2043  0.7091
  112OSM    C3F11634   2.858   2.834  27.783 -0.4129 -0.7645 -0.2121
  112OSM    H3F11635   2.764   2.890  27.803 -1.5959 -3.4586  2.6479
  112OSM    H3G11636   2.928   2.854  27.867 -1.2673 -0.8058  0.5281
  112OSM    C4F11637   2.824   2.680  27.795  0.0140  0.0059 -0.8209
  112OSM    H4F11638   2.726   2.667  27.745 -3.4885  2.0899  4.5846
  112OSM    H4G11639   2.810   2.672  27.905  1.3565  0.6995 -0.5861
  112OSM    C5F11640   2.931   2.582  27.755 -0.0869 -0.4804 -0.0104
  112OSM    H5F11641   3.029   2.605  27.804 -1.0178  1.0701  1.2197
  112OSM    H5G11642   2.943   2.572  27.645 -1.2805  1.9483 -0.4388
  112OSM    C6F11643   2.910   2.438  27.811  0.8014 -0.9331  0.3136
  112OSM    H6F11644   2.900   2.359  27.733 -0.0581 -0.0478 -0.4966
  112OSM    H6G11645   2.814   2.432  27.867  0.4597  0.3030 -0.1000
  112OSM    C7F11646   3.027   2.383  27.901 -0.0941  0.0635  1.1313
  112OSM    H7F11647   2.993   2.284  27.937 -2.2930  0.5518  0.5762
  112OSM    H7G11648   3.043   2.443  27.993  2.8560 -0.2242  0.8957
  112OSM    C8F11649   3.162   2.354  27.825 -1.0312 -0.3249 -0.4708
  112OSM    H8F11650   3.212   2.444  27.786  1.0423 -1.6150 -0.9463
  112OSM    H8G11651   3.142   2.283  27.742  3.2336 -0.1174 -1.8779
  112OSM    C9F11652   3.260   2.271  27.909 -0.2623 -0.8518  0.6066
  112OSM    H9F11653   3.249   2.280  28.018  0.2290 -1.7350  0.7384
  112OSM   C10F11654   3.352   2.194  27.857  0.0419 -0.1357 -0.2903
  112OSM   H10F11655   3.423   2.160  27.933  1.5597  0.3631 -1.4268
  112OSM   C11F11656   3.377   2.162  27.713  0.3527 -0.9023 -0.0915
  112OSM   H11F11657   3.484   2.178  27.690  0.1109 -0.7967 -1.1588
  112OSM   H11G11658   3.316   2.231  27.652  3.0402 -0.4690 -2.4884
  112OSM   C12F11659   3.341   2.017  27.667  0.7310 -1.2853 -0.0731
  112OSM   H12F11660   3.346   2.014  27.556  1.9579  0.6434 -0.1109
  112OSM   H12G11661   3.241   1.992  27.709  0.9958 -3.5141 -0.6318
  112OSM   C13F11662   3.430   1.906  27.720 -0.6106  0.1222 -0.2062
  112OSM   H13F11663   3.425   1.906  27.831  0.3351  2.4041 -0.0975
  112OSM   H13G11664   3.538   1.914  27.697  0.0538  0.3761  2.5990
  112OSM   C14F11665   3.378   1.771  27.668 -0.3385 -0.1828 -0.3852
  112OSM   H14F11666   3.401   1.774  27.559 -0.4191  1.6469 -0.3885
  112OSM   H14G11667   3.269   1.766  27.687 -0.1663 -0.9742  0.4399
  112OSM   C15F11668   3.438   1.647  27.734 -0.1922  0.2849  0.1550
  112OSM   H15F11669   3.439   1.655  27.845 -0.0800 -0.2069  0.1896
  112OSM   H15G11670   3.542   1.635  27.696  0.0830  1.2279  0.5797
  112OSM   C16F11671   3.370   1.514  27.683  1.1106 -0.6035 -0.1992
  112OSM   H16F11672   3.371   1.507  27.572  0.9503 -2.7408 -0.1222
  112OSM   H16G11673   3.260   1.514  27.699  0.8211  2.1078 -1.5695
  112OSM   C17F11674   3.428   1.386  27.730 -0.9758 -0.0786 -0.2321
  112OSM   H17F11675   3.416   1.356  27.836  0.7801 -0.9425 -0.2426
  112OSM   H17G11676   3.538   1.399  27.723 -1.1313  1.0661 -0.6703
  112OSM   C18F11677   3.404   1.265  27.640 -0.5530 -0.2023 -0.0711
  112OSM   H18F11678   3.446   1.174  27.689  1.3486  1.4002  1.4467
  112OSM   H18G11679   3.466   1.277  27.548 -1.9853  1.5263 -0.8613
  112OSM   H18H11680   3.301   1.247  27.603 -0.0135  0.8438 -2.2702
  113OSM      N11681   3.999   3.485  30.286 -0.3630 -0.1331 -0.6046
  113OSM    C1511682   4.145   3.521  30.323  0.7097 -0.4809  0.1604
  113OSM   H15A11683   4.159   3.486  30.424 -0.5713 -2.3554 -0.2417
  113OSM   H15B11684   4.153   3.628  30.326  1.8314 -0.4581 -1.7612
  113OSM   H15C11685   4.226   3.488  30.260  0.6093  0.0772 -0.2670
  113OSM    C1411686   3.978   3.337  30.262 -0.2611  0.1679  0.1907
  113OSM   H14A11687   3.987   3.276  30.350 -0.8665 -1.0368 -0.5540
  113OSM   H14B11688   4.045   3.292  30.190  0.7696  1.7346  0.1112
  113OSM   H14C11689   3.875   3.320  30.238 -0.6594 -0.7429  2.3238
  113OSM    C1311690   3.921   3.517  30.407 -0.2229  0.5637 -0.4634
  113OSM   H13A11691   3.824   3.477  30.382  0.8804 -0.6997 -3.0790
  113OSM   H13B11692   3.911   3.620  30.437  1.7560  0.6623 -0.0113
  113OSM   H13C11693   3.963   3.455  30.485 -0.9184 -1.4342 -1.5999
  113OSM    C1211694   3.941   3.552  30.163 -0.4254  0.6107 -0.7585
  113OSM   H12A11695   3.902   3.649  30.190 -0.7454 -0.1106  1.5717
  113OSM   H12B11696   3.857   3.490  30.135 -0.5291  0.3979  0.0097
  113OSM    C1111697   4.028   3.570  30.034  0.5238  0.1496  0.1223
  113OSM   H11A11698   3.973   3.613  29.948  1.1876 -0.0659 -0.4231
  113OSM   H11B11699   4.052   3.465  30.004  0.6920  0.2723 -0.1718
  113OSM      P11700   4.290   3.636  30.003 -0.1019 -0.6239 -0.4822
  113OSM    O1311701   4.320   3.741  29.906  0.6957 -0.3385 -0.2978
  113OSM    O1411702   4.387   3.620  30.115  0.6094  0.2149  0.3000
  113OSM    O1111703   4.281   3.502  29.915  0.1400  0.0850 -0.1427
  113OSM    O1211704   4.144   3.659  30.056 -0.4118 -0.2446  0.4090
  113OSM    C1S11705   4.311   3.374  29.973  0.6698 -0.2210 -0.7002
  113OSM    H1S11706   4.244   3.351  30.059 -1.0532  0.8832 -1.6955
  113OSM    H1T11707   4.417   3.351  29.995  0.4737 -1.1349 -0.6674
  113OSM     NF11708   4.288   3.136  29.946 -0.2244  0.8162  0.1930
  113OSM    HNF11709   4.376   3.105  29.980  0.6374  1.7536 -1.1240
  113OSM    C2S11710   4.274   3.256  29.868  0.3660  0.2469  0.5800
  113OSM    H2S11711   4.169   3.273  29.835  0.5012  0.2398  0.1472
  113OSM    C3S11712   4.357   3.276  29.736 -0.0161 -0.1007 -0.4416
  113OSM    H3S11713   4.466   3.276  29.758 -0.1071 -0.2118  0.0049
  113OSM     O311714   4.345   3.404  29.673  0.2308  0.3720 -0.4763
  113OSM    HO311715   4.313   3.461  29.744  0.8352 -1.6152  1.5003
  113OSM    C4S11716   4.342   3.165  29.629 -0.7105  0.3567  0.1145
  113OSM    H4S11717   4.400   3.073  29.644  1.2100  0.9912 -2.5738
  113OSM    C5S11718   4.272   3.170  29.517  0.5414  0.0748 -0.9068
  113OSM    H5S11719   4.216   3.261  29.491 -0.3870 -0.0787  0.4582
  113OSM    C6S11720   4.266   3.056  29.426 -0.4016  0.9867  0.3050
  113OSM    H6S11721   4.231   3.093  29.328 -0.7311  1.1453  0.4813
  113OSM    H6T11722   4.186   2.989  29.466 -0.4376  0.1995 -1.0319
  113OSM    C7S11723   4.386   2.955  29.404  0.1195 -0.4743  0.0134
  113OSM    H7S11724   4.416   2.901  29.496  1.3546  0.7373  0.3537
  113OSM    H7T11725   4.475   3.020  29.392 -0.7945  1.0114  1.0091
  113OSM    C8S11726   4.369   2.860  29.294 -0.7066  0.0448 -0.1121
  113OSM    H8S11727   4.360   2.910  29.195  0.7773 -0.4742 -0.5388
  113OSM    H8T11728   4.284   2.789  29.301  0.8966 -1.7943  3.1721
  113OSM    C9S11729   4.488   2.760  29.274 -0.7520  0.7129  0.0038
  113OSM    H9S11730   4.492   2.710  29.373  0.2385  0.7970  0.0121
  113OSM    H9T11731   4.591   2.799  29.266  0.1992 -1.7185 -0.4766
  113OSM   C10S11732   4.480   2.653  29.166  0.7108 -0.5128 -0.2926
  113OSM   H10S11733   4.479   2.706  29.068 -2.1302 -1.0744 -0.6652
  113OSM   H10T11734   4.383   2.600  29.175  0.4041  0.1978  0.7732
  113OSM   C11S11735   4.593   2.547  29.176  0.4104  0.1696 -0.6902
  113OSM   H11S11736   4.574   2.494  29.272 -5.8749 -0.4607 -1.8485
  113OSM   H11T11737   4.691   2.600  29.180  0.3633  0.1960  0.2506
  113OSM   C12S11738   4.587   2.439  29.066 -0.5542 -0.0892  0.4031
  113OSM   H12S11739   4.594   2.498  28.973  0.6242 -1.4407 -0.3975
  113OSM   H12T11740   4.494   2.378  29.079 -2.0967  2.0556 -0.0438
  113OSM   C13S11741   4.709   2.340  29.077 -0.8820  0.7027  0.1259
  113OSM   H13S11742   4.704   2.278  29.169  0.7140 -1.4542 -1.1318
  113OSM   H13T11743   4.812   2.379  29.067  0.0795 -1.5004  0.7475
  113OSM   C14S11744   4.698   2.223  28.977  0.3372 -0.0835  0.2808
  113OSM   H14S11745   4.716   2.268  28.877 -0.4402  2.2122  1.0990
  113OSM   H14T11746   4.595   2.182  28.988 -0.2594  1.1617 -0.4933
  113OSM   C15S11747   4.814   2.125  29.007 -0.6984 -1.0539  0.4135
  113OSM   H15S11748   4.800   2.091  29.112  1.3845  0.0461  1.1183
  113OSM   H15T11749   4.908   2.183  28.993  0.0531 -2.4760 -0.5937
  113OSM   C16S11750   4.808   2.005  28.916 -1.1537  0.0931  0.4942
  113OSM   H16S11751   4.902   1.947  28.924 -0.6619  0.8578  0.4078
  113OSM   H16T11752   4.792   2.021  28.807  0.3641  0.0168  0.2377
  113OSM   C17S11753   4.696   1.904  28.956 -0.0283  0.7148 -0.5301
  113OSM   H17S11754   4.596   1.951  28.957  0.1761  1.1582 -0.4839
  113OSM   H17T11755   4.716   1.870  29.060 -1.7957  0.4780 -0.2482
  113OSM   C18S11756   4.695   1.784  28.860 -0.5738 -0.0282  0.0109
  113OSM   H18S11757   4.610   1.714  28.867 -2.3129  1.7543 -1.8688
  113OSM   H18T11758   4.783   1.719  28.882 -0.8080 -0.7585 -1.1350
  113OSM   H18U11759   4.708   1.819  28.755 -0.5207  0.3510  0.1414
  113OSM    C1F11760   4.186   3.091  30.016 -0.3968  0.3825 -0.6378
  113OSM     OF11761   4.081   3.156  30.019 -0.0922  0.5559 -0.4102
  113OSM    C2F11762   4.217   2.961  30.098 -0.6378 -0.3370 -0.1793
  113OSM    H2F11763   4.157   2.972  30.190  2.6371 -0.0940  2.1193
  113OSM    H2G11764   4.321   2.981  30.133 -0.8116  1.6065 -0.6479
  113OSM    C3F11765   4.195   2.828  30.022  0.4013 -0.5443  0.1760
  113OSM    H3F11766   4.086   2.806  30.013  0.7788 -1.9577 -1.3411
  113OSM    H3G11767   4.223   2.754  30.100 -0.8343  1.0086  2.1895
  113OSM    C4F11768   4.261   2.801  29.891  0.6534  0.3613 -0.3790
  113OSM    H4F11769   4.367   2.775  29.915  0.7353 -0.6741 -1.7348
  113OSM    H4G11770   4.261   2.889  29.823 -3.3640  0.5000 -0.4157
  113OSM    C5F11771   4.203   2.691  29.802  0.4670 -0.0973  0.5736
  113OSM    H5F11772   4.095   2.716  29.793  0.6451  0.8853  1.0020
  113OSM    H5G11773   4.227   2.588  29.836  0.9725 -0.2222 -0.1432
  113OSM    C6F11774   4.269   2.695  29.659  0.2127 -0.1526  0.1646
  113OSM    H6F11775   4.379   2.713  29.663  0.4439 -1.5101  0.3111
  113OSM    H6G11776   4.222   2.777  29.601  0.7321  0.9619  1.2619
  113OSM    C7F11777   4.248   2.565  29.581 -0.5270  0.8251  0.0015
  113OSM    H7F11778   4.275   2.583  29.475 -0.0333 -0.7858 -0.1659
  113OSM    H7G11779   4.142   2.533  29.576 -0.2199 -0.0496 -3.8932
  113OSM    C8F11780   4.330   2.443  29.636  0.0855  0.4059 -0.1478
  113OSM    H8F11781   4.293   2.439  29.741 -1.5173 -1.1336 -0.7296
  113OSM    H8G11782   4.438   2.467  29.641  1.1171 -3.6770  0.5676
  113OSM    C9F11783   4.307   2.312  29.564 -0.8234 -0.3664 -0.2464
  113OSM    H9F11784   4.398   2.273  29.516 -1.9547 -1.0349 -1.9268
  113OSM   C10F11785   4.197   2.237  29.566  0.7766  0.1939  0.5606
  113OSM   H10F11786   4.186   2.148  29.502  0.5006  1.0329 -0.5912
  113OSM   C11F11787   4.071   2.271  29.644  0.5207 -0.3561  0.1059
  113OSM   H11F11788   3.995   2.302  29.570  1.1221 -0.5333 -0.6004
  113OSM   H11G11789   4.078   2.362  29.707  0.7221  0.9080 -1.6468
  113OSM   C12F11790   4.009   2.153  29.723  0.1413  0.6587  0.5312
  113OSM   H12F11791   4.083   2.104  29.790  0.4527  1.8531  1.0768
  113OSM   H12G11792   3.983   2.072  29.651  0.1474 -0.2936  1.5711
  113OSM   C13F11793   3.889   2.189  29.806 -0.2060 -0.2831  0.1941
  113OSM   H13F11794   3.799   2.203  29.742 -0.8137 -2.9657  0.3536
  113OSM   H13G11795   3.914   2.272  29.876  3.9103 -1.1594  0.0174
  113OSM   C14F11796   3.860   2.076  29.907 -0.2431  0.2698  0.1797
  113OSM   H14F11797   3.948   2.076  29.975 -0.2784  0.6238  0.2283
  113OSM   H14G11798   3.837   1.982  29.853  0.3856 -0.4236  1.0949
  113OSM   C15F11799   3.726   2.106  29.993  0.2082  0.0797  0.7972
  113OSM   H15F11800   3.699   2.012  30.046 -2.1433 -0.7955 -1.6928
  113OSM   H15G11801   3.638   2.125  29.927  0.1091 -1.3246  0.4832
  113OSM   C16F11802   3.744   2.221  30.095 -0.0827 -1.1849 -0.1346
  113OSM   H16F11803   3.734   2.310  30.028  0.5220 -0.8336  0.2287
  113OSM   H16G11804   3.844   2.228  30.142 -1.1274  1.8116  1.9549
  113OSM   C17F11805   3.639   2.217  30.206  0.4613  0.5854 -0.1519
  113OSM   H17F11806   3.616   2.113  30.238 -0.4300  0.4227 -1.2448
  113OSM   H17G11807   3.545   2.260  30.166 -0.0182 -0.1686  0.1540
  113OSM   C18F11808   3.669   2.306  30.325 -0.1497 -0.6772 -0.1455
  113OSM   H18F11809   3.593   2.279  30.402  0.2965 -3.5104 -0.5986
  113OSM   H18G11810   3.660   2.416  30.309  0.5564 -0.5402  0.3534
  113OSM   H18H11811   3.763   2.291  30.382 -1.7636  0.9356  3.2909
  114OSM      N11812   2.614   2.242  31.763 -0.2260 -0.3889 -0.2188
  114OSM    C1511813   2.590   2.359  31.859  0.2307  0.1493 -0.3964
  114OSM   H15A11814   2.508   2.419  31.821 -0.2074  0.3242  0.8029
  114OSM   H15B11815   2.678   2.421  31.858 -0.2464  0.9003 -2.5900
  114OSM   H15C11816   2.565   2.327  31.959 -2.3369  0.6178 -0.7924
  114OSM    C1411817   2.718   2.153  31.819  0.6265 -0.1738 -0.2904
  114OSM   H14A11818   2.810   2.205  31.842  0.1556  0.3054  0.5652
  114OSM   H14B11819   2.729   2.088  31.734  0.2809  0.4876 -0.8522
  114OSM   H14C11820   2.670   2.090  31.892  0.4544 -1.3550 -1.3902
  114OSM    C1311821   2.492   2.167  31.750 -0.7149 -0.5120  0.3726
  114OSM   H13A11822   2.497   2.094  31.670 -0.8337 -0.1166 -0.0011
  114OSM   H13B11823   2.403   2.228  31.743 -1.5035 -1.5459  1.1281
  114OSM   H13C11824   2.472   2.116  31.843 -1.2849 -0.0674  0.4994
  114OSM    C1211825   2.669   2.299  31.627  0.3852  0.1387 -0.1527
  114OSM   H12A11826   2.774   2.323  31.639  1.2583 -1.6543 -2.9789
  114OSM   H12B11827   2.619   2.394  31.615 -0.5598 -0.0916  1.6721
  114OSM    C1111828   2.660   2.215  31.494 -0.1786  0.0899  0.2223
  114OSM   H11A11829   2.726   2.272  31.425  0.2279 -1.1363 -0.4261
  114OSM   H11B11830   2.559   2.222  31.448 -0.4263  0.2764  0.7840
  114OSM      P11831   2.661   1.956  31.458 -0.4649  0.0277  0.7368
  114OSM    O1311832   2.764   1.849  31.440  0.3720 -0.2704  0.2982
  114OSM    O1411833   2.545   1.920  31.539 -0.3518  0.1891  0.0127
  114OSM    O1111834   2.619   2.001  31.319  0.3896 -0.4305  0.6315
  114OSM    O1211835   2.723   2.089  31.517 -0.1530  0.4740  0.4123
  114OSM    C1S11836   2.717   2.021  31.211  0.1091 -0.4990  0.0403
  114OSM    H1S11837   2.779   1.929  31.200 -1.7122 -1.5018 -3.3840
  114OSM    H1T11838   2.779   2.109  31.237 -2.0056  0.9136  0.4747
  114OSM     NF11839   2.739   2.007  30.970 -0.1668 -0.1031 -0.0651
  114OSM    HNF11840   2.816   2.066  30.944  1.2081 -2.2254 -1.1649
  114OSM    C2S11841   2.647   2.049  31.075 -0.4308  0.1960  0.0012
  114OSM    H2S11842   2.561   1.980  31.085  0.1773 -0.4190  1.1997
  114OSM    C3S11843   2.604   2.201  31.068  0.8822 -0.7323 -0.3185
  114OSM    H3S11844   2.699   2.257  31.066  1.1820 -0.9968  2.3214
  114OSM     O311845   2.524   2.246  31.178 -0.4940  0.1315 -0.4282
  114OSM    HO311846   2.539   2.177  31.244  1.4782  1.9446  1.1453
  114OSM    C4S11847   2.520   2.217  30.949  0.1113 -0.5857  0.3871
  114OSM    H4S11848   2.437   2.145  30.953 -0.3923 -0.1703 -1.4477
  114OSM    C5S11849   2.546   2.296  30.836  0.5328  0.9407 -0.2229
  114OSM    H5S11850   2.640   2.353  30.837  1.3200 -0.3116  0.0314
  114OSM    C6S11851   2.453   2.307  30.717  0.0965 -0.7647 -0.6839
  114OSM    H6S11852   2.406   2.407  30.731  2.4333  0.6205 -2.0917
  114OSM    H6T11853   2.372   2.232  30.701 -0.4416 -0.6688  1.3343
  114OSM    C7S11854   2.541   2.331  30.588 -0.2758 -0.5748 -0.2886
  114OSM    H7S11855   2.599   2.241  30.558  0.5163  0.5928 -2.5754
  114OSM    H7T11856   2.615   2.409  30.615  0.2318 -2.2503  3.8107
  114OSM    C8S11857   2.458   2.366  30.471  0.4747  0.2965  0.5763
  114OSM    H8S11858   2.378   2.442  30.489 -1.5324 -1.7279  0.7490
  114OSM    H8T11859   2.412   2.281  30.416  0.1804  1.9542 -1.9119
  114OSM    C9S11860   2.538   2.435  30.354 -0.1040 -0.4814 -0.1470
  114OSM    H9S11861   2.585   2.527  30.395  0.3143 -0.0404 -1.5773
  114OSM    H9T11862   2.458   2.457  30.280 -0.2561 -1.3426 -0.2503
  114OSM   C10S11863   2.650   2.347  30.292 -0.0105 -0.4896  0.5164
  114OSM   H10S11864   2.727   2.333  30.371 -0.0099 -1.6826  0.3156
  114OSM   H10T11865   2.686   2.407  30.205 -2.4331  0.3787  0.0315
  114OSM   C11S11866   2.604   2.213  30.241 -0.0927 -0.0913  0.2973
  114OSM   H11S11867   2.525   2.216  30.164  1.3807 -2.1654 -1.4195
  114OSM   H11T11868   2.566   2.150  30.324 -1.4567 -1.2107 -1.1306
  114OSM   C12S11869   2.708   2.140  30.157 -0.1516  0.0877  0.0667
  114OSM   H12S11870   2.772   2.085  30.229  0.1831  0.6327  0.1893
  114OSM   H12T11871   2.760   2.219  30.097 -0.4236  0.5576  0.4403
  114OSM   C13S11872   2.649   2.042  30.055 -0.0403  0.4809  0.3523
  114OSM   H13S11873   2.612   2.104  29.971  1.6128  2.8982  1.3122
  114OSM   H13T11874   2.564   1.986  30.100  0.7172 -0.9123  0.0910
  114OSM   C14S11875   2.759   1.951  30.015  0.1233  0.3808  0.1027
  114OSM   H14S11876   2.809   1.905  30.102  1.2864 -2.3126 -1.8614
  114OSM   H14T11877   2.835   2.013  29.963 -0.4670 -0.5922 -2.0286
  114OSM   C15S11878   2.717   1.836  29.924 -0.0297  0.1749  0.6754
  114OSM   H15S11879   2.679   1.880  29.829  0.8800 -0.1684  0.1451
  114OSM   H15T11880   2.634   1.788  29.979 -0.7148  0.5853  0.0237
  114OSM   C16S11881   2.833   1.744  29.890 -0.2021  0.4779 -0.1695
  114OSM   H16S11882   2.893   1.707  29.977 -0.0754 -1.4041 -0.9988
  114OSM   H16T11883   2.903   1.805  29.829  0.2362 -1.7547 -2.0696
  114OSM   C17S11884   2.770   1.616  29.820 -0.7670 -0.2845 -0.3296
  114OSM   H17S11885   2.723   1.656  29.727 -1.0601  0.8367  0.2828
  114OSM   H17T11886   2.685   1.571  29.876  0.8672 -4.2301 -0.7195
  114OSM   C18S11887   2.863   1.500  29.785 -0.1164  0.8080 -0.6943
  114OSM   H18S11888   2.950   1.538  29.729 -0.5215  0.4480 -1.5868
  114OSM   H18T11889   2.825   1.433  29.705 -0.2213  1.4917 -1.2323
  114OSM   H18U11890   2.900   1.433  29.865 -1.3961 -0.2522 -0.9460
  114OSM    C1F11891   2.763   1.877  30.944 -0.3608  0.0227  0.5947
  114OSM     OF11892   2.704   1.788  31.005 -0.0910 -0.3495 -0.3180
  114OSM    C2F11893   2.884   1.846  30.850  0.5250 -0.6591 -0.1264
  114OSM    H2F11894   2.939   1.758  30.890 -1.3454 -2.5005 -1.3494
  114OSM    H2G11895   2.936   1.944  30.851  0.7470 -0.7706  1.5849
  114OSM    C3F11896   2.819   1.796  30.716 -0.1068 -0.1824 -0.4968
  114OSM    H3F11897   2.741   1.867  30.682 -1.6527 -1.0871  1.0381
  114OSM    H3G11898   2.773   1.698  30.740  0.8554 -0.9746 -1.7361
  114OSM    C4F11899   2.925   1.785  30.616  0.1925 -0.1199  0.5032
  114OSM    H4F11900   2.895   1.715  30.535 -0.6318 -0.6466  1.2517
  114OSM    H4G11901   3.018   1.751  30.667  0.1877  0.5095  0.9402
  114OSM    C5F11902   2.943   1.919  30.542 -0.2861 -0.1870  0.5045
  114OSM    H5F11903   2.966   2.012  30.599 -2.4770 -0.4430  1.9179
  114OSM    H5G11904   2.854   1.936  30.478  0.2935 -0.5902 -0.4166
  114OSM    C6F11905   3.049   1.903  30.437 -0.3335 -0.4661 -0.2366
  114OSM    H6F11906   3.012   1.869  30.338 -0.2994  0.8808 -0.7421
  114OSM    H6G11907   3.119   1.823  30.468 -0.7086 -1.0923 -0.9862
  114OSM    C7F11908   3.107   2.042  30.401  1.1156 -0.1711 -0.4077
  114OSM    H7F11909   3.175   2.071  30.484 -0.6559 -1.2842  1.5207
  114OSM    H7G11910   3.025   2.118  30.398  1.6719  0.7739  3.0421
  114OSM    C8F11911   3.177   2.039  30.270  0.3552 -0.1981  0.3334
  114OSM    H8F11912   3.199   2.143  30.237 -1.8989  0.2215 -0.0192
  114OSM    H8G11913   3.109   2.000  30.191  1.7538  1.9426 -2.1160
  114OSM    C9F11914   3.308   1.964  30.277  0.1955  0.6377 -0.8976
  114OSM    H9F11915   3.367   1.998  30.364  1.4584 -1.8886 -0.6613
  114OSM   C10F11916   3.363   1.869  30.198 -0.0765 -0.2867  0.0222
  114OSM   H10F11917   3.450   1.819  30.243 -0.4516  0.1615  1.2845
  114OSM   C11F11918   3.299   1.816  30.076 -0.1414  0.8914  0.1576
  114OSM   H11F11919   3.249   1.905  30.033 -1.9658  0.7417  1.7985
  114OSM   H11G11920   3.224   1.739  30.105 -3.2384  3.0076 -1.6825
  114OSM   C12F11921   3.393   1.759  29.968 -0.6707  0.2316 -0.4683
  114OSM   H12F11922   3.334   1.726  29.880  1.7592  1.3571 -2.6616
  114OSM   H12G11923   3.449   1.668  29.998  0.2348  1.3468  1.3758
  114OSM   C13F11924   3.498   1.860  29.905 -0.1541  0.3375 -0.6824
  114OSM   H13F11925   3.592   1.859  29.964 -1.1874  2.5421  1.1749
  114OSM   H13G11926   3.472   1.968  29.913  0.4574  0.3602  1.7055
  114OSM   C14F11927   3.536   1.826  29.763 -0.2876  1.1791  0.2362
  114OSM   H14F11928   3.597   1.733  29.765 -1.0422  0.6857  1.0978
  114OSM   H14G11929   3.602   1.908  29.726 -0.0099  0.6834 -0.3984
  114OSM   C15F11930   3.413   1.805  29.677  0.0140 -0.2463  0.2722
  114OSM   H15F11931   3.335   1.882  29.697  0.0146  0.5460 -2.4020
  114OSM   H15G11932   3.361   1.708  29.693 -0.2974 -0.0703  0.3502
  114OSM   C16F11933   3.457   1.813  29.528  0.0706 -0.0840 -0.1781
  114OSM   H16F11934   3.536   1.736  29.511 -0.1561 -0.7906  1.7505
  114OSM   H16G11935   3.500   1.915  29.520  0.1137 -0.0714  0.2064
  114OSM   C17F11936   3.338   1.803  29.433  0.2550 -0.3341 -0.4232
  114OSM   H17F11937   3.258   1.869  29.474  0.5776 -1.4333  2.2016
  114OSM   H17G11938   3.287   1.705  29.438  0.0988 -0.2156  0.5751
  114OSM   C18F11939   3.385   1.839  29.296 -0.0711  0.2973  0.4910
  114OSM   H18F11940   3.484   1.799  29.266 -0.4040 -1.2420  1.3446
  114OSM   H18G11941   3.386   1.948  29.277 -0.7746  0.0068 -1.4084
  114OSM   H18H11942   3.318   1.781  29.228  1.5340 -0.5899 -0.3921
  115OSM      N11943   3.795   2.010  19.604 -0.0903  0.4095 -0.8866
  115OSM    C1511944   3.819   2.149  19.544  0.3499  0.1785 -0.4356
  115OSM   H15A11945   3.921   2.183  19.554  0.7483 -1.0558 -0.1965
  115OSM   H15B11946   3.760   2.216  19.606  0.8331  0.2003  0.0132
  115OSM   H15C11947   3.792   2.150  19.440  0.8710  3.4338 -0.6291
  115OSM    C1411948   3.840   2.006  19.751 -0.1810  0.3179  0.1414
  115OSM   H14A11949   3.826   2.105  19.792 -1.0090  0.0874  0.4167
  115OSM   H14B11950   3.948   1.998  19.759 -0.0713  1.8379  0.4732
  115OSM   H14C11951   3.799   1.924  19.808 -0.6145 -1.7117 -2.8904
  115OSM    C1311952   3.650   1.992  19.604 -0.3960 -0.0479  0.0235
  115OSM   H13A11953   3.619   1.993  19.501 -3.2491  0.0376  0.7718
  115OSM   H13B11954   3.598   2.073  19.654  0.6748  0.8900 -0.3550
  115OSM   H13C11955   3.611   1.899  19.643  0.8994 -0.9820 -0.8590
  115OSM    C1211956   3.866   1.901  19.530  0.0420  0.4159  0.0205
  115OSM   H12A11957   3.971   1.917  19.550 -0.1778  0.9779  0.7890
  115OSM   H12B11958   3.840   1.909  19.426 -0.9528  4.6477  0.4000
  115OSM    C1111959   3.836   1.758  19.583  0.3750  0.1941 -0.0459
  115OSM   H11A11960   3.869   1.754  19.689 -0.0394 -0.7901  0.0512
  115OSM   H11B11961   3.893   1.675  19.537  0.5822 -0.0273  0.6138
  115OSM      P11962   3.636   1.668  19.446  0.1687  0.2031 -0.0993
  115OSM    O1311963   3.486   1.685  19.449  0.4261  0.3466 -0.8864
  115OSM    O1411964   3.698   1.731  19.327 -0.4295 -0.5138 -0.3107
  115OSM    O1111965   3.661   1.509  19.435  0.2212  0.2404  0.6182
  115OSM    O1211966   3.695   1.724  19.580  0.3201 -0.3087  0.0344
  115OSM    C1S11967   3.645   1.436  19.556 -0.3812 -0.1392 -0.2979
  115OSM    H1S11968   3.571   1.482  19.624  0.2364 -2.0829  1.7882
  115OSM    H1T11969   3.745   1.433  19.603 -0.1351 -0.0891 -0.8084
  115OSM     NF11970   3.586   1.230  19.664 -0.1225 -0.5994 -0.6116
  115OSM    HNF11971   3.659   1.186  19.716 -0.4687  0.2019  0.6040
  115OSM    C2S11972   3.619   1.289  19.533  0.8816  0.2078  0.0017
  115OSM    H2S11973   3.535   1.279  19.461 -0.0927  3.3387  0.5620
  115OSM    C3S11974   3.739   1.221  19.466 -0.2380 -0.4087 -0.0808
  115OSM    H3S11975   3.832   1.242  19.523 -0.4091 -0.5509  0.2526
  115OSM     O311976   3.765   1.279  19.334 -0.5087 -0.1479 -0.0338
  115OSM    HO311977   3.722   1.364  19.341 -1.5484 -0.6381 -0.3702
  115OSM    C4S11978   3.703   1.077  19.452 -0.1750 -0.4524  1.0923
  115OSM    H4S11979   3.606   1.058  19.402  0.9663 -2.1509 -0.6364
  115OSM    C5S11980   3.756   0.974  19.516 -0.4411 -1.2941 -0.1801
  115OSM    H5S11981   3.833   0.993  19.591 -0.7962  0.0224 -0.1052
  115OSM    C6S11982   3.706   0.833  19.492 -0.5015 -0.9256 -0.0449
  115OSM    H6S11983   3.785   0.761  19.462  0.1186 -0.9446  1.5287
  115OSM    H6T11984   3.622   0.822  19.420  0.4442 -0.5593 -1.2352
  115OSM    C7S11985   3.653   0.781  19.629 -0.4055  0.2707  0.3846
  115OSM    H7S11986   3.565   0.839  19.664 -0.0907  0.1982  1.3407
  115OSM    H7T11987   3.725   0.807  19.709  1.0730  1.5910 -1.3300
  115OSM    C8S11988   3.603   0.635  19.618 -0.5278 -0.1764 -0.3294
  115OSM    H8S11989   3.697   0.577  19.607 -1.0442 -0.8739 -1.1067
  115OSM    H8T11990   3.549   0.613  19.524 -1.2281  0.0510  0.0166
  115OSM    C9S11991   3.538   0.585  19.753  0.3570  0.7497  0.4072
  115OSM    H9S11992   3.544   0.474  19.744 -1.1908  0.6462  0.3750
  115OSM    H9T11993   3.434   0.623  19.761  0.4786  0.7996  2.4309
  115OSM   C10S11994   3.611   0.616  19.885 -0.0010  0.2439 -0.2532
  115OSM   H10S11995   3.609   0.726  19.902 -0.7152  0.1626  0.2489
  115OSM   H10T11996   3.714   0.576  19.883 -0.7269 -2.0804  2.2559
  115OSM   C11S11997   3.545   0.549  20.008 -0.0679  0.0194  0.2160
  115OSM   H11S11998   3.591   0.580  20.104  0.3642 -0.1451  0.0623
  115OSM   H11T11999   3.565   0.440  20.000  2.0165  0.3360  0.6141
  115OSM   C12S12000   3.399   0.585  20.016  0.0407  0.5915 -0.4742
  115OSM   H12S12001   3.329   0.536  19.944 -1.2100 -1.3561  1.9346
  115OSM   H12T12002   3.388   0.695  20.004 -2.2184  0.7737  2.2076
  115OSM   C13S12003   3.327   0.558  20.145  0.4495 -0.3081 -0.3745
  115OSM   H13S12004   3.235   0.618  20.161  0.4616 -0.6872  1.3818
  115OSM   H13T12005   3.396   0.584  20.228 -0.4823  1.5001 -0.1237
  115OSM   C14S12006   3.292   0.411  20.158  0.9258  0.1052  0.0685
  115OSM   H14S12007   3.380   0.349  20.131 -0.0270 -1.1287 -0.2761
  115OSM   H14T12008   3.223   0.402  20.072  1.8016  0.0948 -0.6523
  115OSM   C15S12009   3.228   0.365  20.296 -0.9439  0.3614  0.3452
  115OSM   H15S12010   3.301   0.404  20.370  0.4811 -0.6284 -0.5016
  115OSM   H15T12011   3.223   0.254  20.291 -2.0211  0.3721  0.9393
  115OSM   C16S12012   3.092   0.425  20.317  0.0071 -0.1248  0.1184
  115OSM   H16S12013   3.025   0.342  20.346  1.8930 -1.0027  2.2794
  115OSM   H16T12014   3.067   0.474  20.221  3.1735 -1.9465 -1.7645
  115OSM   C17S12015   3.089   0.517  20.439  0.1883  0.3309  0.0248
  115OSM   H17S12016   3.002   0.586  20.438  1.2267  1.6892  0.4535
  115OSM   H17T12017   3.183   0.575  20.443  1.2870 -1.3595  3.9102
  115OSM   C18S12018   3.088   0.447  20.578 -0.7138  0.3293  0.7050
  115OSM   H18S12019   3.089   0.517  20.664 -1.6732 -0.9863  1.8397
  115OSM   H18T12020   3.171   0.374  20.590 -1.8882 -0.6237  4.6087
  115OSM   H18U12021   2.992   0.393  20.594 -1.2803  1.7430  2.4059
  115OSM    C1F12022   3.479   1.256  19.735  0.1094  0.1584 -0.1740
  115OSM     OF12023   3.372   1.299  19.685 -0.9428  0.3028 -0.1849
  115OSM    C2F12024   3.481   1.222  19.876  0.2780  0.8720 -0.0086
  115OSM    H2F12025   3.425   1.288  19.945 -2.1086 -3.1105  2.2666
  115OSM    H2G12026   3.587   1.214  19.908  0.4441 -3.9695 -1.0512
  115OSM    C3F12027   3.420   1.077  19.894  1.1329  0.2303  0.1810
  115OSM    H3F12028   3.447   1.039  19.995 -0.5828 -0.6114  0.3730
  115OSM    H3G12029   3.454   1.009  19.813 -1.6977  0.5253 -1.4164
  115OSM    C4F12030   3.263   1.076  19.901 -0.0954  0.5017  0.2009
  115OSM    H4F12031   3.220   1.126  19.811 -1.6750 -1.5610 -0.2507
  115OSM    H4G12032   3.234   1.138  19.988 -3.5803 -1.1404  0.3500
  115OSM    C5F12033   3.213   0.934  19.921  0.1238 -0.2143  0.5678
  115OSM    H5F12034   3.244   0.910  20.025 -0.4302 -1.8406  0.3830
  115OSM    H5G12035   3.246   0.862  19.843 -2.8118 -1.7379  0.5988
  115OSM    C6F12036   3.067   0.922  19.905  0.3966  0.6578  0.2361
  115OSM    H6F12037   3.034   0.943  19.801 -0.1827 -0.0337  0.2674
  115OSM    H6G12038   3.027   1.006  19.966  1.0857 -0.2179  1.9428
  115OSM    C7F12039   3.006   0.785  19.951 -0.2769  0.2252  0.1703
  115OSM    H7F12040   3.040   0.778  20.057  1.1378 -3.4530 -0.3810
  115OSM    H7G12041   3.035   0.700  19.886 -1.1897 -0.4519  0.6287
  115OSM    C8F12042   2.856   0.788  19.960  0.4822  0.4997 -0.0882
  115OSM    H8F12043   2.818   0.885  20.000 -0.2240 -0.6401  2.2105
  115OSM    H8G12044   2.829   0.706  20.030 -1.8616 -0.5932 -2.1010
  115OSM    C9F12045   2.790   0.756  19.829  0.5749 -0.3576  0.0094
  115OSM    H9F12046   2.763   0.838  19.760 -1.3911 -0.5935  0.4153
  115OSM   C10F12047   2.749   0.630  19.791  0.5638  0.1729 -0.1557
  115OSM   H10F12048   2.692   0.619  19.697 -0.9110 -0.5948  0.7974
  115OSM   C11F12049   2.770   0.502  19.862  0.3792  0.6188  0.1931
  115OSM   H11F12050   2.668   0.459  19.875  0.6684  0.3669  1.8791
  115OSM   H11G12051   2.800   0.512  19.969  0.6712 -0.2854  0.1986
  115OSM   C12F12052   2.855   0.378  19.806  0.9400  0.3698 -0.2707
  115OSM   H12F12053   2.845   0.371  19.696 -0.8980  0.2827 -0.1400
  115OSM   H12G12054   2.823   0.279  19.846  0.8600  0.1166 -0.9554
  115OSM   C13F12055   3.009   0.399  19.842  0.3654  0.0096 -0.7189
  115OSM   H13F12056   3.024   0.418  19.950 -0.7635 -1.5938 -0.2377
  115OSM   H13G12057   3.037   0.496  19.795  0.2991  0.8126  0.8202
  115OSM   C14F12058   3.110   0.294  19.782  0.6292  0.1572  0.3965
  115OSM   H14F12059   3.216   0.325  19.786  1.6447 -2.6113 -1.5916
  115OSM   H14G12060   3.083   0.294  19.674  0.5107  2.7764  0.3659
  115OSM   C15F12061   3.103   0.144  19.833 -0.1500  0.2396  0.0138
  115OSM   H15F12062   2.997   0.119  19.810 -0.4404  1.1156  0.3925
  115OSM   H15G12063   3.113   0.137  19.943 -1.2374  1.1270  0.1906
  115OSM   C16F12064   3.210   0.062  19.761  0.4824  0.4698 -0.0978
  115OSM   H16F12065   3.309   0.110  19.775  0.2910  0.2874  2.3512
  115OSM   H16G12066   3.185   0.063  19.652 -1.5692 -2.2939  0.2351
  115OSM   C17F12067   3.212  -0.082  19.799  0.0049  0.3895  0.6780
  115OSM   H17F12068   3.106  -0.115  19.809  0.6158 -1.9034  0.2447
  115OSM   H17G12069   3.270  -0.090  19.893  1.3017 -0.7436 -0.1764
  115OSM   C18F12070   3.274  -0.177  19.695 -0.3388 -0.3523  0.2135
  115OSM   H18F12071   3.373  -0.140  19.660 -0.4288 -1.3186 -1.1446
  115OSM   H18G12072   3.221  -0.195  19.599  0.7886 -3.1574  0.0201
  115OSM   H18H12073   3.291  -0.272  19.750 -2.4500 -0.6889  0.3534
  116OSM      N12074   0.229   2.228  18.173 -0.0713 -0.7285 -0.2490
  116OSM    C1512075   0.238   2.371  18.130 -0.2405 -0.1730 -0.5480
  116OSM   H15A12076   0.276   2.384  18.029 -0.2293 -2.8055 -0.9395
  116OSM   H15B12077   0.299   2.420  18.204  1.9577 -0.5251 -2.0106
  116OSM   H15C12078   0.144   2.424  18.135 -0.8093 -1.0588 -1.4697
  116OSM    C1412079   0.356   2.158  18.132 -0.3472 -0.2000  0.0435
  116OSM   H14A12080   0.441   2.216  18.165 -0.4115 -0.4590  0.6828
  116OSM   H14B12081   0.375   2.163  18.026  1.3874 -0.1482  0.3350
  116OSM   H14C12082   0.355   2.058  18.173 -0.7055 -1.3767 -2.6379
  116OSM    C1312083   0.214   2.227  18.320 -0.4108  0.1917  0.0394
  116OSM   H13A12084   0.193   2.127  18.354 -2.4066  0.1375 -1.2334
  116OSM   H13B12085   0.131   2.291  18.343 -0.3642  0.1623  0.2939
  116OSM   H13C12086   0.296   2.273  18.374  1.2025 -1.6911 -0.6834
  116OSM    C1212087   0.107   2.172  18.108 -0.9686 -0.4061 -0.2095
  116OSM   H12A12088   0.086   2.066  18.121 -1.5689 -0.2751 -0.0724
  116OSM   H12B12089   0.103   2.180  18.000 -0.6960 -1.3423 -0.2974
  116OSM    C1112090  -0.031   2.233  18.152  0.2405  0.3507 -0.1896
  116OSM   H11A12091  -0.098   2.192  18.073  2.1777  3.5779 -3.8652
  116OSM   H11B12092  -0.032   2.344  18.142 -2.7064  0.5871  1.4833
  116OSM      P12093  -0.167   2.087  18.321 -0.3643  0.0821 -0.4415
  116OSM    O1312094  -0.147   1.967  18.238 -0.0670 -0.1530 -0.9666
  116OSM    O1412095  -0.162   2.059  18.465 -0.2844 -0.0103  0.6143
  116OSM    O1112096  -0.313   2.144  18.279 -0.0850  0.7020  0.6681
  116OSM    O1212097  -0.064   2.204  18.288  0.3989  0.0942 -0.1032
  116OSM    C1S12098  -0.334   2.281  18.290  0.1262  0.4172  0.4791
  116OSM    H1S12099  -0.290   2.339  18.206 -0.2890  0.2452  0.1385
  116OSM    H1T12100  -0.295   2.323  18.385 -0.5929  0.3780  0.7949
  116OSM     NF12101  -0.496   2.455  18.292  0.0726 -0.3372  0.3252
  116OSM    HNF12102  -0.516   2.495  18.381  1.0835 -0.4052  0.6013
  116OSM    C2S12103  -0.488   2.312  18.283 -0.4162  0.0313 -0.3347
  116OSM    H2S12104  -0.532   2.276  18.188  0.3024 -0.0033 -0.6578
  116OSM    C3S12105  -0.567   2.238  18.399 -0.0296  0.3783 -0.3186
  116OSM    H3S12106  -0.532   2.272  18.499 -0.2738 -1.6746  0.5250
  116OSM     O312107  -0.568   2.092  18.402  0.5423  0.1691 -0.2315
  116OSM    HO312108  -0.539   2.064  18.315 -2.1078  1.2490 -1.5877
  116OSM    C4S12109  -0.707   2.283  18.386  0.2686  0.6045 -0.2421
  116OSM    H4S12110  -0.770   2.246  18.304  0.0998 -0.3428  0.3054
  116OSM    C5S12111  -0.777   2.351  18.487 -0.0663  0.4518 -0.1074
  116OSM    H5S12112  -0.728   2.362  18.585 -0.8176 -1.5874  0.5492
  116OSM    C6S12113  -0.920   2.386  18.481  0.0116 -0.4197  0.6857
  116OSM    H6S12114  -0.979   2.320  18.548 -1.2853  0.3575  0.3294
  116OSM    H6T12115  -0.966   2.372  18.381  0.3075  1.9690  0.1591
  116OSM    C7S12116  -0.935   2.530  18.534 -0.2985  0.8764  0.0612
  116OSM    H7S12117  -0.893   2.533  18.637 -2.2669 -0.8194  0.9998
  116OSM    H7T12118  -1.042   2.560  18.541 -0.4998  0.1471  0.3292
  116OSM    C8S12119  -0.855   2.622  18.443 -0.3915 -0.1767  0.2854
  116OSM    H8S12120  -0.869   2.589  18.337 -0.1569 -3.2860  1.1200
  116OSM    H8T12121  -0.746   2.623  18.463  0.0842 -1.5537 -1.8171
  116OSM    C9S12122  -0.891   2.769  18.452  0.7494  0.0998 -0.4895
  116OSM    H9S12123  -0.904   2.788  18.560 -1.5209  0.2958 -0.7545
  116OSM    H9T12124  -0.997   2.777  18.420 -0.1547 -2.1112  1.7081
  116OSM   C10S12125  -0.801   2.859  18.367  0.5260 -0.2010  0.1019
  116OSM   H10S12126  -0.776   2.799  18.277 -0.9722 -0.9981  0.1795
  116OSM   H10T12127  -0.703   2.875  18.417  0.7704 -1.1450 -0.0447
  116OSM   C11S12128  -0.857   2.994  18.322  0.8928 -0.3779  0.2490
  116OSM   H11S12129  -0.957   2.979  18.274  0.4190  1.0919  0.7146
  116OSM   H11T12130  -0.799   3.046  18.243  1.5871 -0.6402  0.5788
  116OSM   C12S12131  -0.887   3.090  18.440  0.1956 -0.0778 -0.1386
  116OSM   H12S12132  -0.805   3.111  18.512 -0.2804 -2.7467  1.3043
  116OSM   H12T12133  -0.965   3.039  18.500  0.9778 -0.9903  0.1118
  116OSM   C13S12134  -0.923   3.220  18.371 -0.5622 -0.6588 -0.0144
  116OSM   H13S12135  -1.014   3.258  18.422 -1.1351 -1.0121 -0.7531
  116OSM   H13T12136  -0.961   3.196  18.269  1.4842  0.5832 -1.1276
  116OSM   C14S12137  -0.810   3.319  18.355  0.1897 -0.2308  0.4140
  116OSM   H14S12138  -0.739   3.293  18.274  0.8080  1.6299  0.3059
  116OSM   H14T12139  -0.762   3.326  18.455 -0.2593 -1.0510  0.7015
  116OSM   C15S12140  -0.862   3.454  18.318 -0.1822 -0.1925  0.2746
  116OSM   H15S12141  -0.932   3.447  18.232 -2.1562  1.3284  1.6540
  116OSM   H15T12142  -0.785   3.527  18.285  1.1026 -1.7478 -0.3303
  116OSM   C16S12143  -0.931   3.529  18.434  0.8709  0.8993 -0.2482
  116OSM   H16S12144  -0.856   3.548  18.515  0.5226  2.5798 -0.2769
  116OSM   H16T12145  -1.006   3.452  18.462  1.1794  0.4587 -0.6086
  116OSM   C17S12146  -1.010   3.663  18.403  0.9684  0.7272 -0.8785
  116OSM   H17S12147  -1.065   3.691  18.495  1.7665  1.2082 -0.5370
  116OSM   H17T12148  -1.083   3.637  18.323 -0.4256  3.3102 -0.5540
  116OSM   C18S12149  -0.927   3.781  18.363 -0.2974  0.0711 -0.2096
  116OSM   H18S12150  -0.836   3.757  18.305 -1.2824  0.9961 -2.2185
  116OSM   H18T12151  -0.888   3.830  18.455 -1.0458 -0.4926  0.4170
  116OSM   H18U12152  -0.988   3.859  18.312  1.0693  0.7883 -0.7851
  116OSM    C1F12153  -0.467   2.520  18.180  0.0291 -0.2537 -0.8344
  116OSM     OF12154  -0.451   2.455  18.079  0.1059 -0.9427  0.3520
  116OSM    C2F12155  -0.443   2.671  18.193  0.3887 -0.0094  0.5362
  116OSM    H2F12156  -0.336   2.680  18.221  1.1932  1.0169 -2.4269
  116OSM    H2G12157  -0.516   2.722  18.259 -0.1499  0.9310 -0.7424
  116OSM    C3F12158  -0.447   2.734  18.053  0.5300 -1.3432  0.7837
  116OSM    H3F12159  -0.549   2.737  18.009  0.9181  2.2788 -0.1857
  116OSM    H3G12160  -0.383   2.676  17.982  1.1913 -2.6751  2.4128
  116OSM    C4F12161  -0.410   2.884  18.059  0.0547  0.3398 -0.0521
  116OSM    H4F12162  -0.398   2.908  17.952  0.4422 -0.9401 -0.3142
  116OSM    H4G12163  -0.312   2.905  18.108 -1.6915 -0.4662  4.2230
  116OSM    C5F12164  -0.521   2.968  18.124  0.4929  0.5010  0.3955
  116OSM    H5F12165  -0.524   2.951  18.234 -2.2950 -1.8907  0.0506
  116OSM    H5G12166  -0.620   2.933  18.089  1.6265 -1.0194 -1.5828
  116OSM    C6F12167  -0.512   3.121  18.107  1.2584  1.2322 -0.0800
  116OSM    H6F12168  -0.612   3.168  18.106 -0.4741 -2.1408 -1.6492
  116OSM    H6G12169  -0.465   3.150  18.010  0.9227  3.6581  0.4151
  116OSM    C7F12170  -0.420   3.190  18.213 -0.6825 -0.8222  0.1390
  116OSM    H7F12171  -0.316   3.153  18.202  0.6870  2.3695  1.3044
  116OSM    H7G12172  -0.461   3.179  18.316  0.3378  1.2386  0.8110
  116OSM    C8F12173  -0.414   3.342  18.198  0.0467 -0.2618  0.0058
  116OSM    H8F12174  -0.391   3.400  18.290  1.4324  1.6627 -1.4708
  116OSM    H8G12175  -0.519   3.368  18.174  0.1701  0.5307  0.2917
  116OSM    C9F12176  -0.300   3.381  18.097 -0.2250 -1.0536  0.1218
  116OSM    H9F12177  -0.315   3.370  17.988  1.5814 -1.5876 -0.0989
  116OSM   C10F12178  -0.166   3.401  18.138  0.1804  0.3876 -0.1172
  116OSM   H10F12179  -0.094   3.436  18.063  1.1111  1.5798  1.2956
  116OSM   C11F12180  -0.101   3.411  18.278  0.0001 -0.1044 -0.2543
  116OSM   H11F12181   0.003   3.372  18.286 -0.0440 -0.0473  0.6728
  116OSM   H11G12182  -0.165   3.351  18.346 -0.9000 -0.0275 -1.0121
  116OSM   C12F12183  -0.110   3.561  18.329 -0.5344  0.2713  0.1339
  116OSM   H12F12184  -0.144   3.563  18.434  2.9561 -0.6583  1.4238
  116OSM   H12G12185  -0.182   3.619  18.268  0.0193  0.4173 -0.3931
  116OSM   C13F12186   0.032   3.621  18.315 -0.2546 -0.3352  0.1381
  116OSM   H13F12187   0.059   3.634  18.208  1.4942 -1.3580  0.4134
  116OSM   H13G12188   0.111   3.552  18.351  0.8454  1.7319  1.9422
  116OSM   C14F12189   0.048   3.747  18.398 -0.1822  0.1852 -0.2983
  116OSM   H14F12190   0.001   3.722  18.496 -3.1749  2.5968 -0.9617
  116OSM   H14G12191  -0.035   3.814  18.366 -1.5365 -1.5289 -0.5993
  116OSM   C15F12192   0.184   3.809  18.427  0.5575  0.6606  0.6465
  116OSM   H15F12193   0.237   3.862  18.345  1.0962  0.4314  0.8422
  116OSM   H15G12194   0.247   3.719  18.445 -0.2089 -0.7740 -2.8488
  116OSM   C16F12195   0.205   3.895  18.555  0.4720  0.4610  0.6315
  116OSM   H16F12196   0.307   3.935  18.539  0.4265 -0.1606 -1.4507
  116OSM   H16G12197   0.207   3.844  18.653 -3.1627 -3.1635 -0.8792
  116OSM   C17F12198   0.125   4.026  18.554 -0.3634  0.2177 -0.0194
  116OSM   H17F12199   0.120   4.060  18.660  1.2834  2.1380 -0.5103
  116OSM   H17G12200   0.025   4.001  18.512 -0.4763  0.3991  0.1414
  116OSM   C18F12201   0.177   4.140  18.468 -0.1205 -0.3587  0.5598
  116OSM   H18F12202   0.172   4.115  18.360  1.9331  3.0855 -0.4889
  116OSM   H18G12203   0.281   4.161  18.502  0.7352 -1.9796 -0.8986
  116OSM   H18H12204   0.118   4.233  18.482  1.3357  0.9823 -1.5402
  117OSM      N12205   1.422   1.782  17.421  0.2653 -0.3132 -0.0256
  117OSM    C1512206   1.556   1.774  17.479 -0.3802  0.7657 -0.3941
  117OSM   H15A12207   1.564   1.807  17.582  1.1307 -0.9677  0.0904
  117OSM   H15B12208   1.626   1.828  17.417  1.5515 -1.1385  0.0291
  117OSM   H15C12209   1.588   1.672  17.493 -0.1563  1.0499  1.4773
  117OSM    C1412210   1.422   1.780  17.272  0.2907 -0.1028 -0.7122
  117OSM   H14A12211   1.485   1.852  17.223  1.2755 -0.9999 -0.7877
  117OSM   H14B12212   1.324   1.788  17.228  0.3456 -0.6050 -0.9285
  117OSM   H14C12213   1.450   1.681  17.240  0.8262 -0.3202  0.3928
  117OSM    C1312214   1.343   1.669  17.470  0.0200  0.3075  0.0603
  117OSM   H13A12215   1.237   1.685  17.456 -0.0129 -0.2587 -0.3971
  117OSM   H13B12216   1.350   1.678  17.577  0.6716  1.8987 -0.0953
  117OSM   H13C12217   1.373   1.575  17.424  2.8754  1.8057 -1.3999
  117OSM    C1212218   1.348   1.905  17.463  0.1482 -0.3229 -0.5012
  117OSM   H12A12219   1.251   1.909  17.416 -0.4307  0.4287  0.7001
  117OSM   H12B12220   1.411   1.985  17.429 -0.0912  0.9240  1.8369
  117OSM    C1112221   1.327   1.927  17.619  0.2002  0.0283 -0.1320
  117OSM   H11A12222   1.271   1.836  17.651  0.1883  0.0603 -0.0603
  117OSM   H11B12223   1.268   2.020  17.634 -0.7407 -0.8199  1.8973
  117OSM      P12224   1.461   1.960  17.840 -0.4078  0.4613  0.2249
  117OSM    O1312225   1.595   2.020  17.865  0.3436 -0.2972  0.2122
  117OSM    O1412226   1.344   2.032  17.893  0.3563  0.2084 -0.2175
  117OSM    O1112227   1.464   1.813  17.891 -0.5052 -0.1400  0.4439
  117OSM    O1212228   1.451   1.932  17.683 -0.7072  0.4153  0.2189
  117OSM    C1S12229   1.552   1.709  17.852 -0.3790  0.0922 -0.0435
  117OSM    H1S12230   1.642   1.728  17.914  0.4366  1.2138 -1.4956
  117OSM    H1T12231   1.583   1.710  17.745  1.7311 -0.3032  0.5188
  117OSM     NF12232   1.595   1.466  17.842 -0.1581 -0.2350 -0.0408
  117OSM    HNF12233   1.566   1.402  17.771 -1.0686  0.3896 -0.2612
  117OSM    C2S12234   1.502   1.569  17.880  0.2944  0.4005  0.4702
  117OSM    H2S12235   1.485   1.560  17.989  0.5009 -0.6526  0.4253
  117OSM    C3S12236   1.357   1.543  17.811  0.6500 -0.4708  0.6655
  117OSM    H3S12237   1.381   1.548  17.703 -0.9300  1.7245  0.3368
  117OSM     O312238   1.252   1.648  17.814 -0.8010  0.7504 -0.2004
  117OSM    HO312239   1.296   1.726  17.847  1.5772 -0.0646 -1.2673
  117OSM    C4S12240   1.295   1.406  17.829 -0.3720  0.8027  0.0882
  117OSM    H4S12241   1.307   1.343  17.741 -0.8136  2.0017 -0.8586
  117OSM    C5S12242   1.215   1.360  17.927 -0.0527  0.7679 -0.0572
  117OSM    H5S12243   1.201   1.424  18.016 -3.0063  0.3081 -0.0956
  117OSM    C6S12244   1.160   1.218  17.939  0.3152  0.1203 -0.0294
  117OSM    H6S12245   1.049   1.224  17.938  0.2876  0.0279  1.3679
  117OSM    H6T12246   1.169   1.176  18.041 -1.8354 -1.5903 -0.4634
  117OSM    C7S12247   1.206   1.116  17.829 -0.7820  0.1255 -0.0655
  117OSM    H7S12248   1.313   1.087  17.832 -1.0072 -0.6615  1.5703
  117OSM    H7T12249   1.177   1.165  17.734  0.9566  1.6921  0.1462
  117OSM    C8S12250   1.122   0.989  17.842  0.3376  0.0569  0.2470
  117OSM    H8S12251   1.093   0.974  17.948 -0.0072  2.0360  0.4641
  117OSM    H8T12252   1.188   0.905  17.811 -0.6770 -0.8356  0.4412
  117OSM    C9S12253   0.997   0.994  17.762  0.6350 -0.4575 -0.0915
  117OSM    H9S12254   1.034   0.998  17.657  0.7380  1.0340 -0.0211
  117OSM    H9T12255   0.945   1.091  17.775 -0.6651 -0.6975 -2.7928
  117OSM   C10S12256   0.901   0.885  17.797 -0.2182 -0.2194 -0.9497
  117OSM   H10S12257   0.832   0.927  17.874  1.5355 -0.8003  1.0109
  117OSM   H10T12258   0.956   0.797  17.835  0.6881  0.0979 -1.4870
  117OSM   C11S12259   0.823   0.833  17.673 -0.3830  0.5135 -0.3067
  117OSM   H11S12260   0.907   0.806  17.606 -1.5972 -2.0568 -0.9178
  117OSM   H11T12261   0.774   0.924  17.630 -1.0849  0.2828 -0.0105
  117OSM   C12S12262   0.730   0.720  17.712 -0.1388 -0.1151  0.6036
  117OSM   H12S12263   0.668   0.766  17.792  0.1135 -0.3087  0.9159
  117OSM   H12T12264   0.785   0.635  17.758 -1.4904 -1.3017  0.0981
  117OSM   C13S12265   0.656   0.659  17.594  0.1092  0.0497  0.0650
  117OSM   H13S12266   0.730   0.617  17.522  0.6387 -0.1448  0.7094
  117OSM   H13T12267   0.605   0.735  17.531 -0.0325 -0.3798 -0.3547
  117OSM   C14S12268   0.548   0.559  17.648 -0.3103 -0.3930  0.3861
  117OSM   H14S12269   0.485   0.549  17.557  1.9242 -0.4197 -1.2218
  117OSM   H14T12270   0.486   0.622  17.716 -1.0950 -1.2889  0.5332
  117OSM   C15S12271   0.607   0.422  17.693 -0.4119 -0.2241 -0.2110
  117OSM   H15S12272   0.681   0.438  17.774 -3.2712 -0.6275  2.6975
  117OSM   H15T12273   0.652   0.379  17.601 -2.3582 -1.8265 -0.4921
  117OSM   C16S12274   0.505   0.319  17.738 -0.1833 -0.0373  0.4586
  117OSM   H16S12275   0.435   0.297  17.655  1.7329  1.6968 -1.7390
  117OSM   H16T12276   0.440   0.366  17.815 -1.9269  0.3109 -1.1505
  117OSM   C17S12277   0.564   0.182  17.788  0.4225 -0.5399 -0.8021
  117OSM   H17S12278   0.644   0.157  17.715 -0.4185 -0.3363 -1.8188
  117OSM   H17T12279   0.481   0.107  17.788 -0.4228  0.3781  0.1924
  117OSM   C18S12280   0.621   0.193  17.922 -0.2066  0.3807 -0.3658
  117OSM   H18S12281   0.645   0.090  17.957  1.2136  1.5269  2.2860
  117OSM   H18T12282   0.544   0.243  17.985 -0.3140  1.2042 -1.1228
  117OSM   H18U12283   0.718   0.248  17.930 -0.0251 -0.2044  3.6712
  117OSM    C1F12284   1.712   1.461  17.899 -0.8500 -0.3264  0.2186
  117OSM     OF12285   1.738   1.532  17.992  0.2470  0.1884  0.3171
  117OSM    C2F12286   1.810   1.369  17.847 -0.6054  0.1073  0.4869
  117OSM    H2F12287   1.910   1.372  17.896 -0.8980 -0.0505  1.1118
  117OSM    H2G12288   1.834   1.386  17.740  0.0643  1.3961  0.8204
  117OSM    C3F12289   1.767   1.224  17.862  0.6023  0.5856 -0.7566
  117OSM    H3F12290   1.854   1.167  17.823 -0.5833 -1.6139 -0.3505
  117OSM    H3G12291   1.683   1.188  17.799  1.2133 -2.2921 -0.0820
  117OSM    C4F12292   1.729   1.185  18.007  0.0409  0.5631 -0.5253
  117OSM    H4F12293   1.650   1.255  18.042 -0.4698 -0.5688  0.6379
  117OSM    H4G12294   1.817   1.194  18.074 -1.1743 -2.8147  1.7718
  117OSM    C5F12295   1.676   1.035  18.007 -1.0101 -0.0196  0.3808
  117OSM    H5F12296   1.756   0.967  17.970 -1.9670 -0.9136 -0.1210
  117OSM    H5G12297   1.587   1.032  17.940 -1.6338  2.3060  1.0104
  117OSM    C6F12298   1.632   0.983  18.148 -0.5762  0.1016  0.7713
  117OSM    H6F12299   1.726   0.961  18.204 -0.5121 -0.2224  0.5407
  117OSM    H6G12300   1.578   0.889  18.122  1.0215 -0.3716 -1.0183
  117OSM    C7F12301   1.521   1.063  18.217 -0.2579 -1.0490 -0.2203
  117OSM    H7F12302   1.447   1.095  18.141  0.3017 -1.3332 -0.8999
  117OSM    H7G12303   1.572   1.152  18.259 -1.7279 -0.2642 -0.0243
  117OSM    C8F12304   1.457   0.998  18.346 -1.0034 -0.6916 -0.4889
  117OSM    H8F12305   1.438   0.890  18.327  0.2531 -0.8920 -0.7106
  117OSM    H8G12306   1.361   1.050  18.362  0.0468  1.3183 -0.4173
  117OSM    C9F12307   1.546   1.021  18.471 -0.2189  0.1744 -0.3441
  117OSM    H9F12308   1.526   1.114  18.526 -1.2539 -0.5883  0.6073
  117OSM   C10F12309   1.629   0.930  18.525 -0.0930  0.3896 -0.2991
  117OSM   H10F12310   1.685   0.948  18.619  1.0387 -0.2417 -0.8332
  117OSM   C11F12311   1.676   0.795  18.471  0.6846  0.1109  1.0993
  117OSM   H11F12312   1.783   0.773  18.490  1.2778 -2.1533 -3.4645
  117OSM   H11G12313   1.670   0.794  18.361  3.5791 -0.1590  0.8786
  117OSM   C12F12314   1.596   0.669  18.520  0.2746 -0.8106 -0.2121
  117OSM   H12F12315   1.491   0.686  18.491 -0.3212  1.1599  2.6623
  117OSM   H12G12316   1.588   0.667  18.631  0.3956 -0.7528 -0.2013
  117OSM   C13F12317   1.660   0.536  18.476 -0.5803  0.4394 -0.5947
  117OSM   H13F12318   1.747   0.507  18.539  0.2173 -0.6743 -2.1402
  117OSM   H13G12319   1.694   0.541  18.370  0.0447  0.3377 -0.4065
  117OSM   C14F12320   1.559   0.419  18.486 -0.0293  0.0919 -0.6611
  117OSM   H14F12321   1.464   0.451  18.438  0.7315  0.9433 -1.6540
  117OSM   H14G12322   1.528   0.408  18.593  2.3800  0.0287  0.0982
  117OSM   C15F12323   1.620   0.287  18.435  0.1092  0.0879  1.1791
  117OSM   H15F12324   1.714   0.265  18.489 -0.4861 -1.8148  1.5360
  117OSM   H15G12325   1.640   0.295  18.326 -1.2863 -2.8916  0.5997
  117OSM   C16F12326   1.543   0.153  18.449 -0.3613 -0.1427 -0.4380
  117OSM   H16F12327   1.456   0.170  18.383 -1.7692  2.2359  1.8564
  117OSM   H16G12328   1.506   0.139  18.553  1.9889  0.3754  0.5335
  117OSM   C17F12329   1.621   0.027  18.394  0.0895 -0.6476  0.5479
  117OSM   H17F12330   1.728   0.054  18.410  0.1352  0.7730 -1.6653
  117OSM   H17G12331   1.582  -0.052  18.462  1.8585 -0.5235  1.7786
  117OSM   C18F12332   1.606  -0.027  18.244  0.2581 -0.1125 -0.1152
  117OSM   H18F12333   1.623   0.053  18.169  1.1748  0.4253  0.6387
  117OSM   H18G12334   1.509  -0.078  18.229  0.8064 -1.0407 -0.6659
  117OSM   H18H12335   1.679  -0.106  18.217 -1.1265 -1.5423  0.1702
  118OSM      N12336   1.436   1.403  21.240  0.2459  0.6239 -0.2477
  118OSM    C1512337   1.306   1.445  21.303 -0.1203 -0.0563 -0.6216
  118OSM   H15A12338   1.212   1.406  21.267 -0.1746  1.0596 -1.7302
  118OSM   H15B12339   1.297   1.552  21.294 -0.4259  0.0200  0.4123
  118OSM   H15C12340   1.319   1.418  21.407  1.5897  0.9257 -0.5311
  118OSM    C1412341   1.551   1.444  21.327  0.0031 -0.1194  0.2179
  118OSM   H14A12342   1.556   1.399  21.425  1.3916  1.7419  1.0605
  118OSM   H14B12343   1.558   1.551  21.330 -0.3069 -0.0397 -1.2791
  118OSM   H14C12344   1.645   1.415  21.281  1.8554  3.6267  1.2316
  118OSM    C1312345   1.438   1.253  21.223  0.2108 -0.7270  0.4571
  118OSM   H13A12346   1.525   1.235  21.162  0.9001  0.9551  0.8930
  118OSM   H13B12347   1.357   1.222  21.158 -0.1609 -2.4009  1.6642
  118OSM   H13C12348   1.439   1.200  21.316  1.4276 -1.3081  0.1211
  118OSM    C1212349   1.434   1.473  21.105 -0.2555  0.6757 -1.0696
  118OSM   H12A12350   1.428   1.579  21.126  1.7273  0.1222  3.3960
  118OSM   H12B12351   1.338   1.464  21.057 -0.4158  1.4405 -0.9148
  118OSM    C1112352   1.556   1.455  21.013 -0.2480  0.1799  0.7343
  118OSM   H11A12353   1.552   1.530  20.931 -0.2577  3.1499  3.2826
  118OSM   H11B12354   1.541   1.354  20.968 -3.9973  0.4107  1.1921
  118OSM      P12355   1.803   1.402  21.005 -0.3672  0.0202  0.3213
  118OSM    O1312356   1.787   1.432  20.859 -0.1729 -0.5896  0.3181
  118OSM    O1412357   1.930   1.446  21.070 -0.3397 -0.6203 -0.0760
  118OSM    O1112358   1.772   1.248  21.035 -0.6739  0.4587 -0.3112
  118OSM    O1212359   1.686   1.470  21.080  0.5865  0.8139  0.2783
  118OSM    C1S12360   1.764   1.157  20.923  0.4332 -0.1041  0.1684
  118OSM    H1S12361   1.823   1.190  20.835 -2.0635 -0.4380 -1.7443
  118OSM    H1T12362   1.658   1.142  20.891 -0.4766 -0.2831  2.9755
  118OSM     NF12363   1.829   0.914  20.873  0.5096 -0.0041  0.5877
  118OSM    HNF12364   1.753   0.852  20.856  0.2647  0.4715 -0.1029
  118OSM    C2S12365   1.807   1.014  20.980 -0.3487 -0.1484  0.1708
  118OSM    H2S12366   1.903   1.035  21.033  1.4417 -1.8415 -2.2174
  118OSM    C3S12367   1.721   0.962  21.091  0.1618  0.8747 -0.8366
  118OSM    H3S12368   1.624   0.944  21.042 -0.4345  0.5711  0.4140
  118OSM     O312369   1.697   1.048  21.201  0.3560 -0.8350 -0.4682
  118OSM    HO312370   1.749   1.123  21.173 -1.1243  0.0904 -0.8782
  118OSM    C4S12371   1.770   0.826  21.150  0.8444  0.3697 -0.0236
  118OSM    H4S12372   1.870   0.828  21.196 -0.0921  0.9440  2.1159
  118OSM    C5S12373   1.694   0.717  21.173 -0.0889  0.1046 -0.0651
  118OSM    H5S12374   1.586   0.724  21.152 -0.2227 -1.2653  0.0966
  118OSM    C6S12375   1.739   0.590  21.241  0.3796 -0.4158  0.3013
  118OSM    H6S12376   1.816   0.624  21.315 -0.0278 -1.2888  1.1475
  118OSM    H6T12377   1.776   0.529  21.156 -2.3128  0.2441 -1.4482
  118OSM    C7S12378   1.635   0.499  21.311 -0.0947 -1.0609 -0.3846
  118OSM    H7S12379   1.554   0.493  21.234 -1.4356  1.2273  0.7245
  118OSM    H7T12380   1.585   0.559  21.390  0.8839 -0.8527  0.0829
  118OSM    C8S12381   1.695   0.364  21.355  0.9329 -0.4460 -0.1969
  118OSM    H8S12382   1.753   0.384  21.448 -1.1699 -1.2458  1.3570
  118OSM    H8T12383   1.761   0.328  21.273  1.6007  1.0778 -0.3749
  118OSM    C9S12384   1.593   0.254  21.387  0.0780  0.3478 -0.1316
  118OSM    H9S12385   1.633   0.152  21.375  0.1395  0.2213  1.0434
  118OSM    H9T12386   1.504   0.256  21.320  0.0918 -1.6848 -0.2570
  118OSM   C10S12387   1.524   0.285  21.520 -0.0555 -0.4773  0.0132
  118OSM   H10S12388   1.474   0.384  21.507 -3.3931 -1.9166  0.8064
  118OSM   H10T12389   1.590   0.282  21.609 -1.1707  3.0364  1.1211
  118OSM   C11S12390   1.402   0.196  21.560 -0.4703  0.5494 -1.1023
  118OSM   H11S12391   1.381   0.188  21.668 -1.2099  0.8036 -1.2199
  118OSM   H11T12392   1.442   0.094  21.545 -1.9207 -0.4237  1.2267
  118OSM   C12S12393   1.280   0.199  21.477 -0.4017 -0.4162  0.1048
  118OSM   H12S12394   1.206   0.124  21.512 -2.2612  0.1910 -2.2815
  118OSM   H12T12395   1.307   0.178  21.371  1.0516  3.7386 -0.5190
  118OSM   C13S12396   1.205   0.337  21.484 -0.7998 -0.0026 -0.4792
  118OSM   H13S12397   1.137   0.333  21.396  1.4406 -2.7197 -2.2595
  118OSM   H13T12398   1.278   0.419  21.466 -0.9003  0.5367  1.3481
  118OSM   C14S12399   1.131   0.355  21.613  0.8133  0.5637  0.7603
  118OSM   H14S12400   1.208   0.372  21.691  1.0365 -2.1873  1.2296
  118OSM   H14T12401   1.071   0.266  21.642  0.9912  0.4312  0.7226
  118OSM   C15S12402   1.020   0.470  21.603 -0.0219  0.5155 -0.6924
  118OSM   H15S12403   1.076   0.565  21.588 -2.0656  1.3074 -5.2936
  118OSM   H15T12404   0.984   0.482  21.707 -0.0506  0.9221 -0.7481
  118OSM   C16S12405   0.915   0.451  21.495 -0.2143 -0.0230 -0.4489
  118OSM   H16S12406   0.877   0.350  21.520 -1.6595  1.0020  1.9664
  118OSM   H16T12407   0.954   0.446  21.391 -1.3116 -1.8685 -0.8200
  118OSM   C17S12408   0.804   0.569  21.513 -1.4785  0.6662 -0.8199
  118OSM   H17S12409   0.720   0.544  21.445 -1.5777 -0.4760 -0.2928
  118OSM   H17T12410   0.842   0.670  21.485  0.3149  0.8783  1.9449
  118OSM   C18S12411   0.744   0.583  21.645 -0.3762 -0.5989 -0.9420
  118OSM   H18S12412   0.819   0.615  21.722 -1.3854  2.0460 -0.9533
  118OSM   H18T12413   0.692   0.494  21.687 -1.0564 -1.2191 -2.9903
  118OSM   H18U12414   0.671   0.667  21.651 -2.0006 -1.9906 -0.6172
  118OSM    C1F12415   1.925   0.933  20.786  0.9441 -0.1890  0.4298
  118OSM     OF12416   2.017   1.013  20.803  0.3428  0.0042  0.1405
  118OSM    C2F12417   1.926   0.852  20.656  0.1254 -0.3696  0.7148
  118OSM    H2F12418   1.913   0.922  20.570  0.2304 -0.5813  0.5243
  118OSM    H2G12419   1.837   0.786  20.652  1.5331 -2.3684  0.8897
  118OSM    C3F12420   2.050   0.763  20.640  0.6935 -0.4382  0.3329
  118OSM    H3F12421   2.060   0.695  20.728  2.0874  0.9118  1.2805
  118OSM    H3G12422   2.144   0.822  20.649  0.1365  0.7485 -1.2125
  118OSM    C4F12423   2.046   0.674  20.511  0.1062 -0.6239  0.1839
  118OSM    H4F12424   2.145   0.631  20.487 -0.9238 -2.0359 -1.8050
  118OSM    H4G12425   2.008   0.734  20.425 -2.6997 -1.6278  0.6062
  118OSM    C5F12426   1.960   0.549  20.516 -0.4397 -0.1565 -0.6749
  118OSM    H5F12427   1.863   0.575  20.563 -0.3544 -1.8786  0.5409
  118OSM    H5G12428   2.002   0.479  20.591  1.6160  0.3333 -1.3078
  118OSM    C6F12429   1.940   0.471  20.384  0.1810  0.2279  0.0536
  118OSM    H6F12430   1.898   0.543  20.311  0.2509  0.5081  0.2884
  118OSM    H6G12431   1.864   0.396  20.413 -0.5109  0.0953 -1.9397
  118OSM    C7F12432   2.063   0.398  20.343 -0.5049 -0.1674  0.4949
  118OSM    H7F12433   2.089   0.337  20.432  0.7926  1.3754  1.2465
  118OSM    H7G12434   2.150   0.466  20.327  0.7294 -1.9082 -0.6053
  118OSM    C8F12435   2.035   0.304  20.226  0.5437 -0.6319  0.2146
  118OSM    H8F12436   1.974   0.370  20.161 -0.5885 -1.8963 -0.0620
  118OSM    H8G12437   1.977   0.219  20.268  2.2864 -2.9199 -1.7336
  118OSM    C9F12438   2.161   0.246  20.165  0.2034 -0.0811 -0.4531
  118OSM    H9F12439   2.232   0.228  20.247 -1.0528  2.7493  1.4125
  118OSM   C10F12440   2.176   0.190  20.036 -0.2131 -0.3562 -0.2218
  118OSM   H10F12441   2.273   0.146  20.012  0.3850  0.1055  1.2320
  118OSM   C11F12442   2.064   0.179  19.929 -0.1242 -0.1659  0.2788
  118OSM   H11F12443   2.108   0.162  19.828 -0.8284  0.4685 -0.1400
  118OSM   H11G12444   2.023   0.281  19.917 -0.6422 -0.3939  0.1073
  118OSM   C12F12445   1.954   0.085  19.946 -0.1343  0.1109  0.4943
  118OSM   H12F12446   1.875   0.118  19.876 -1.2823  1.8669  2.4819
  118OSM   H12G12447   1.912   0.110  20.046 -4.3632  2.4101 -1.6063
  118OSM   C13F12448   1.982  -0.069  19.929  0.4960  0.1472 -0.0917
  118OSM   H13F12449   2.077  -0.107  19.971  0.5490 -1.8014 -1.8122
  118OSM   H13G12450   1.996  -0.100  19.823  3.9364 -1.3750  0.6613
  118OSM   C14F12451   1.857  -0.147  19.988 -0.0912  0.0678  0.0017
  118OSM   H14F12452   1.871  -0.252  19.953  0.2734 -0.4219  1.5361
  118OSM   H14G12453   1.760  -0.120  19.941  0.1797  2.5083  0.7503
  118OSM   C15F12454   1.853  -0.142  20.145  0.3442 -0.1740 -0.2797
  118OSM   H15F12455   1.806  -0.049  20.184 -0.7900 -1.3005  1.1913
  118OSM   H15G12456   1.960  -0.132  20.175  0.4412 -0.2115 -0.6087
  118OSM   C16F12457   1.787  -0.263  20.215  1.0503 -0.5914  0.4114
  118OSM   H16F12458   1.836  -0.257  20.315 -0.2046 -0.2284  1.0297
  118OSM   H16G12459   1.824  -0.359  20.173  0.2453 -1.5971  1.9095
  118OSM   C17F12460   1.633  -0.252  20.226 -0.0560 -0.6186 -0.1751
  118OSM   H17F12461   1.595  -0.259  20.122  0.2291  3.3534 -0.7002
  118OSM   H17G12462   1.604  -0.147  20.249  0.4960 -0.6626  0.7687
  118OSM   C18F12463   1.572  -0.337  20.335  1.1790  0.3778 -0.0985
  118OSM   H18F12464   1.463  -0.319  20.349  1.0559 -0.4760  0.1647
  118OSM   H18G12465   1.634  -0.324  20.426  2.9090  2.3155 -1.4826
  118OSM   H18H12466   1.591  -0.445  20.314 -0.1338  0.2535 -0.7537
  119OSM      N12467   3.019   1.519  17.224 -0.1135 -0.1544  0.2297
  119OSM    C1512468   2.967   1.528  17.082 -0.1003  0.2853  0.1290
  119OSM   H15A12469   2.920   1.434  17.056  0.9713 -0.2788  0.1673
  119OSM   H15B12470   3.044   1.534  17.007  0.0424  0.5706  0.2970
  119OSM   H15C12471   2.894   1.604  17.059 -0.0697 -0.3609 -2.4967
  119OSM    C1412472   2.920   1.464  17.321  1.1330  0.8171 -1.1163
  119OSM   H14A12473   2.831   1.522  17.302  0.1385  1.7616  4.6515
  119OSM   H14B12474   2.947   1.481  17.424 -2.3927  0.0526  0.0822
  119OSM   H14C12475   2.895   1.360  17.302 -2.0229  0.7722  2.1388
  119OSM    C1312476   3.133   1.425  17.231  0.5036  0.2473  0.5618
  119OSM   H13A12477   3.205   1.450  17.155  1.8518  0.2002  1.7784
  119OSM   H13B12478   3.105   1.320  17.227  1.0506  0.1395 -1.0464
  119OSM   H13C12479   3.177   1.433  17.330 -0.8317 -0.5576  1.2447
  119OSM    C1212480   3.062   1.661  17.265 -0.1905 -0.0972  0.1821
  119OSM   H12A12481   2.979   1.724  17.239  0.5617  1.4327  1.3623
  119OSM   H12B12482   3.143   1.701  17.206 -1.1140  0.1526 -0.9592
  119OSM    C1112483   3.096   1.686  17.416 -0.0648  0.6165  0.3074
  119OSM   H11A12484   2.998   1.689  17.467  0.1192  0.0983  0.7030
  119OSM   H11B12485   3.136   1.789  17.423 -0.4485  0.8368 -0.5102
  119OSM      P12486   3.333   1.625  17.493  0.0253 -0.1773  0.2233
  119OSM    O1312487   3.396   1.615  17.360 -0.6484 -0.3736  0.6056
  119OSM    O1412488   3.347   1.746  17.577  0.1196 -0.5385  0.4348
  119OSM    O1112489   3.372   1.505  17.584  0.6179  0.2564  0.3360
  119OSM    O1212490   3.183   1.592  17.480  0.3544  0.6224 -0.2215
  119OSM    C1S12491   3.290   1.438  17.686  0.1904 -0.0954  0.1352
  119OSM    H1S12492   3.189   1.422  17.642 -0.5342  1.6180  1.0775
  119OSM    H1T12493   3.288   1.496  17.780 -1.0171  0.1862 -0.0508
  119OSM     NF12494   3.262   1.236  17.823 -0.0971  0.2293 -0.0446
  119OSM    HNF12495   3.298   1.238  17.917 -0.3350 -0.0565  0.0513
  119OSM    C2S12496   3.346   1.299  17.730 -0.9570  0.3550  0.4702
  119OSM    H2S12497   3.342   1.229  17.644  2.1006  0.9393 -0.2573
  119OSM    C3S12498   3.500   1.300  17.767 -0.3737 -0.3271 -0.0632
  119OSM    H3S12499   3.502   1.345  17.868  1.7607 -2.4098  0.9441
  119OSM     O312500   3.581   1.379  17.678 -0.4459 -0.0618  0.4661
  119OSM    HO312501   3.525   1.411  17.607  1.8121  2.5050 -0.3223
  119OSM    C4S12502   3.560   1.159  17.782 -1.0612  0.7597 -0.0469
  119OSM    H4S12503   3.596   1.106  17.693  0.7379  2.7509 -0.6250
  119OSM    C5S12504   3.602   1.105  17.894  1.0525  0.1881 -0.2028
  119OSM    H5S12505   3.585   1.155  17.991 -0.4131 -2.9198  1.2895
  119OSM    C6S12506   3.689   0.980  17.904 -0.1851 -0.2747 -0.0471
  119OSM    H6S12507   3.628   0.906  17.959 -1.4447 -0.2458 -1.3367
  119OSM    H6T12508   3.780   1.008  17.961 -1.6921  0.8924  1.8983
  119OSM    C7S12509   3.749   0.904  17.785 -0.3129 -0.5710  0.0719
  119OSM    H7S12510   3.676   0.872  17.709 -0.3303  2.2202 -1.2152
  119OSM    H7T12511   3.797   0.812  17.825 -0.8165 -0.3974  1.1171
  119OSM    C8S12512   3.855   0.984  17.710  0.0499 -0.7733 -0.5625
  119OSM    H8S12513   3.944   0.995  17.776 -0.8607 -0.7672  0.7039
  119OSM    H8T12514   3.824   1.086  17.680  1.1622  0.2343  1.4746
  119OSM    C9S12515   3.919   0.917  17.585 -0.5516  0.4522  0.1523
  119OSM    H9S12516   3.838   0.888  17.514  1.8108  0.3383 -2.6470
  119OSM    H9T12517   3.977   0.825  17.608 -2.1082 -1.1503 -1.9380
  119OSM   C10S12518   4.002   1.019  17.514  0.1822  0.3965  0.4095
  119OSM   H10S12519   4.083   1.053  17.582 -1.0524  1.0822  1.5683
  119OSM   H10T12520   3.938   1.109  17.501 -1.9070 -1.0702 -0.0222
  119OSM   C11S12521   4.057   0.963  17.372  0.0580  0.4476 -0.2876
  119OSM   H11S12522   4.073   1.039  17.292 -2.6605 -0.3402 -1.6837
  119OSM   H11T12523   3.973   0.903  17.331  0.4588  0.3253 -0.9445
  119OSM   C12S12524   4.182   0.891  17.407 -0.1866 -0.2901  0.1593
  119OSM   H12S12525   4.168   0.815  17.487  1.6970 -2.2541 -1.2896
  119OSM   H12T12526   4.249   0.973  17.443  0.0004  0.5881 -2.0286
  119OSM   C13S12527   4.238   0.798  17.297 -0.5882 -0.6752  0.0601
  119OSM   H13S12528   4.196   0.834  17.201 -0.5771  1.7687  0.9038
  119OSM   H13T12529   4.190   0.699  17.305 -0.3173 -0.9907 -1.7924
  119OSM   C14S12530   4.393   0.800  17.299 -0.2370  0.7587 -0.1599
  119OSM   H14S12531   4.432   0.772  17.400  1.4103 -1.3312 -1.2924
  119OSM   H14T12532   4.436   0.899  17.271  0.3425  0.7819  0.7546
  119OSM   C15S12533   4.447   0.689  17.209 -0.2938 -0.1276  0.2912
  119OSM   H15S12534   4.406   0.713  17.109 -0.6832 -0.8746  0.2715
  119OSM   H15T12535   4.402   0.595  17.248 -1.7389  0.6697  0.6326
  119OSM   C16S12536   4.596   0.668  17.200 -0.0302 -0.8240  0.0769
  119OSM   H16S12537   4.650   0.692  17.294  0.4454  4.3554 -1.2148
  119OSM   H16T12538   4.627   0.735  17.117 -1.2117  0.1327  0.3797
  119OSM   C17S12539   4.638   0.527  17.166  1.0512 -0.3576 -0.5317
  119OSM   H17S12540   4.738   0.538  17.118  0.1056 -0.5189 -2.6254
  119OSM   H17T12541   4.568   0.493  17.087  2.2337  0.6639 -2.0922
  119OSM   C18S12542   4.650   0.432  17.281 -0.0140  0.9072 -0.2497
  119OSM   H18S12543   4.688   0.336  17.241 -1.9073  0.4335 -1.0432
  119OSM   H18T12544   4.554   0.429  17.337 -0.2670 -0.1634 -0.7163
  119OSM   H18U12545   4.726   0.467  17.354  1.5504 -0.0805 -1.3398
  119OSM    C1F12546   3.136   1.202  17.802  0.2122 -0.1211  0.1940
  119OSM     OF12547   3.086   1.203  17.688  0.4559  0.5126 -0.4185
  119OSM    C2F12548   3.051   1.159  17.922  0.2070 -0.6198  0.2660
  119OSM    H2F12549   2.946   1.191  17.911  0.9442  1.2662 -2.2225
  119OSM    H2G12550   3.073   1.210  18.018 -3.4610 -1.3372  1.6410
  119OSM    C3F12551   3.040   1.009  17.938 -0.4362  0.1793 -0.3376
  119OSM    H3F12552   3.140   0.960  17.932 -0.9288 -0.6834 -2.7680
  119OSM    H3G12553   2.979   0.984  17.848 -1.1888 -1.2276  0.5270
  119OSM    C4F12554   2.970   0.965  18.070  1.2390  0.2277  0.1079
  119OSM    H4F12555   2.864   0.997  18.070  0.8775 -0.9063  0.7050
  119OSM    H4G12556   3.026   1.016  18.152  0.1274  0.3782  0.7954
  119OSM    C5F12557   2.960   0.809  18.078 -0.0636 -0.7042  0.2905
  119OSM    H5F12558   3.063   0.766  18.082  0.6622  0.7001 -1.7902
  119OSM    H5G12559   2.906   0.774  17.988  0.8831 -1.3738 -0.0311
  119OSM    C6F12560   2.870   0.764  18.196 -0.5957  0.2595 -0.3709
  119OSM    H6F12561   2.774   0.820  18.191 -0.1998  0.8701 -3.0518
  119OSM    H6G12562   2.910   0.807  18.290 -1.7571  1.4529 -0.3862
  119OSM    C7F12563   2.847   0.607  18.211  0.5433 -0.4947  0.2953
  119OSM    H7F12564   2.937   0.552  18.244 -0.1556 -1.3495  0.8416
  119OSM    H7G12565   2.811   0.559  18.118 -1.2929 -0.2628  0.8484
  119OSM    C8F12566   2.736   0.579  18.317 -0.1525 -0.1621 -0.5643
  119OSM    H8F12567   2.687   0.482  18.293 -0.9971 -0.2236  1.2256
  119OSM    H8G12568   2.664   0.663  18.300  0.9312  1.3131  1.6967
  119OSM    C9F12569   2.794   0.577  18.455 -0.2921 -0.1212 -0.4522
  119OSM    H9F12570   2.903   0.585  18.468 -0.6079  0.7365  2.4644
  119OSM   C10F12571   2.718   0.569  18.570 -0.2264 -0.0739  0.2988
  119OSM   H10F12572   2.763   0.575  18.670 -0.5744  1.2805  0.3970
  119OSM   C11F12573   2.571   0.553  18.577  0.0828 -1.1754 -0.0167
  119OSM   H11F12574   2.531   0.578  18.476  2.2469 -0.6879 -0.8320
  119OSM   H11G12575   2.539   0.637  18.642  1.5532 -1.3863  1.0188
  119OSM   C12F12576   2.524   0.423  18.638 -0.1462 -0.3799  0.4172
  119OSM   H12F12577   2.573   0.344  18.576 -0.0281 -0.4309  0.5738
  119OSM   H12G12578   2.415   0.413  18.619  0.1250 -0.2135 -1.4572
  119OSM   C13F12579   2.551   0.411  18.791  0.3200 -0.2474  0.6451
  119OSM   H13F12580   2.496   0.489  18.848  0.8504 -0.1659  1.0553
  119OSM   H13G12581   2.658   0.423  18.818  0.4084 -0.6544  0.4874
  119OSM   C14F12582   2.517   0.276  18.859  0.2651 -0.3976  0.1356
  119OSM   H14F12583   2.541   0.286  18.967  0.9205  2.6523 -0.2248
  119OSM   H14G12584   2.566   0.193  18.802  0.7492  0.6363 -0.9869
  119OSM   C15F12585   2.364   0.240  18.852  0.2357  0.4130  0.0418
  119OSM   H15F12586   2.332   0.218  18.748  1.5490  1.5651 -0.6455
  119OSM   H15G12587   2.307   0.332  18.877  0.7796  1.0571 -0.9940
  119OSM   C16F12588   2.322   0.120  18.936  0.6936 -0.1365  0.4632
  119OSM   H16F12589   2.374   0.134  19.033  5.1117 -1.7218 -1.4296
  119OSM   H16G12590   2.367   0.028  18.895  0.6548  0.0756 -0.0739
  119OSM   C17F12591   2.170   0.124  18.970 -0.3519 -0.2042  0.2320
  119OSM   H17F12592   2.104   0.143  18.882 -0.0911  0.9661  0.2714
  119OSM   H17G12593   2.167   0.222  19.021 -0.0974 -1.1945  2.2418
  119OSM   C18F12594   2.131   0.010  19.056 -0.3471  0.2115  1.0587
  119OSM   H18F12595   2.023   0.013  19.079 -0.3948  0.1447  0.8427
  119OSM   H18G12596   2.176   0.019  19.157 -1.1163  1.0518  1.3414
  119OSM   H18H12597   2.161  -0.086  19.009 -0.3599  1.2689 -1.1933
  120OSM      N12598   1.933   3.760  14.748  0.6808 -0.0255 -0.6355
  120OSM    C1512599   1.855   3.875  14.681  0.9118 -0.4992  0.2624
  120OSM   H15A12600   1.916   3.963  14.695 -0.9563  1.1943 -1.5697
  120OSM   H15B12601   1.752   3.871  14.713  0.0368  0.7829 -2.1585
  120OSM   H15C12602   1.858   3.859  14.574  0.8884 -0.1860  0.2127
  120OSM    C1412603   1.861   3.632  14.717 -0.5126  0.4887  0.1139
  120OSM   H14A12604   1.886   3.610  14.614  0.4440  2.2329 -0.0705
  120OSM   H14B12605   1.754   3.643  14.725 -0.4658 -0.0610  1.9293
  120OSM   H14C12606   1.897   3.552  14.780 -2.5047 -0.2058  0.4242
  120OSM    C1312607   2.070   3.758  14.698  0.5154  0.6935 -0.4267
  120OSM   H13A12608   2.119   3.846  14.735 -0.8504  0.3337  2.5920
  120OSM   H13B12609   2.070   3.761  14.590  2.1506  1.0157 -0.4380
  120OSM   H13C12610   2.128   3.683  14.748 -0.4980 -0.3254 -0.7217
  120OSM    C1212611   1.931   3.778  14.900  0.1666 -0.3553 -0.0971
  120OSM   H12A12612   1.827   3.782  14.927 -0.0312 -1.4866 -0.6271
  120OSM   H12B12613   1.968   3.878  14.919  0.6097 -0.3960 -0.7048
  120OSM    C1112614   1.998   3.666  14.986 -0.0768 -0.9499 -0.2417
  120OSM   H11A12615   1.983   3.561  14.953 -0.7164 -1.4241  1.4774
  120OSM   H11B12616   1.966   3.670  15.092 -0.7400 -1.4230 -0.4154
  120OSM      P12617   2.217   3.801  15.035 -0.0734  0.1462  0.0440
  120OSM    O1312618   2.361   3.768  15.021 -0.0042 -0.1047 -0.4615
  120OSM    O1412619   2.170   3.922  14.964  0.6523  0.7985 -0.2010
  120OSM    O1112620   2.168   3.792  15.188  0.1749  0.1368 -0.0861
  120OSM    O1212621   2.139   3.677  14.984  0.5577  0.8317  0.1037
  120OSM    C1S12622   2.190   3.673  15.269  0.5759 -0.5066  0.4419
  120OSM    H1S12623   2.240   3.594  15.209  1.1642 -0.3921  0.7768
  120OSM    H1T12624   2.088   3.632  15.283 -0.0779  0.9612  0.0837
  120OSM     NF12625   2.297   3.581  15.470  0.5130 -0.0321  0.0268
  120OSM    HNF12626   2.227   3.550  15.534 -2.9129  3.9486 -1.3454
  120OSM    C2S12627   2.258   3.702  15.402  0.0168  0.2528 -0.3742
  120OSM    H2S12628   2.351   3.755  15.372  0.9969 -0.1061  1.8838
  120OSM    C3S12629   2.174   3.808  15.487 -0.1219 -0.3032  0.3872
  120OSM    H3S12630   2.082   3.755  15.519 -0.3696  0.3229  0.7437
  120OSM     O312631   2.136   3.917  15.402 -0.2048 -0.0075  0.2578
  120OSM    HO312632   2.151   3.881  15.314 -1.6880  1.2773 -0.5813
  120OSM    C4S12633   2.257   3.859  15.599 -0.2008 -0.8229 -0.2061
  120OSM    H4S12634   2.309   3.950  15.566  0.0886 -1.4363 -1.5104
  120OSM    C5S12635   2.281   3.802  15.721 -0.2697 -0.3850  0.8240
  120OSM    H5S12636   2.235   3.704  15.741 -4.3127  1.0967 -0.2038
  120OSM    C6S12637   2.370   3.866  15.817 -1.1015 -0.4147 -0.0451
  120OSM    H6S12638   2.452   3.921  15.766  1.3477 -3.7152 -0.0095
  120OSM    H6T12639   2.408   3.782  15.878 -0.0566 -0.0505 -0.1823
  120OSM    C7S12640   2.302   3.983  15.890 -0.2815  0.4845  0.3752
  120OSM    H7S12641   2.213   3.947  15.946 -0.8094 -0.9455 -1.2792
  120OSM    H7T12642   2.265   4.060  15.820 -1.5700 -0.4762 -0.0488
  120OSM    C8S12643   2.398   4.051  15.992 -0.2279  0.0310 -0.0102
  120OSM    H8S12644   2.500   4.008  15.984 -0.7591 -1.1199 -0.9929
  120OSM    H8T12645   2.362   4.019  16.092 -0.7793  2.4305  0.6291
  120OSM    C9S12646   2.406   4.199  15.966  0.2879  0.1393 -0.7767
  120OSM    H9S12647   2.303   4.239  15.974 -0.0002 -0.8532  1.4390
  120OSM    H9T12648   2.445   4.219  15.864 -0.5147  1.4392 -0.8427
  120OSM   C10S12649   2.497   4.274  16.069 -0.6527 -0.3223 -0.3662
  120OSM   H10S12650   2.440   4.251  16.161 -3.0377  0.6715 -1.4917
  120OSM   H10T12651   2.504   4.384  16.055 -1.4379  0.3076  3.1927
  120OSM   C11S12652   2.639   4.213  16.089  0.0281  0.1406  0.1608
  120OSM   H11S12653   2.695   4.229  15.995  0.8045 -1.9818  0.2012
  120OSM   H11T12654   2.639   4.104  16.110 -1.4132 -0.2964 -1.8461
  120OSM   C12S12655   2.710   4.286  16.203  1.0326  0.0701  0.2015
  120OSM   H12S12656   2.646   4.282  16.293 -1.0653  0.7496 -1.1811
  120OSM   H12T12657   2.720   4.393  16.178  2.8276 -0.2414 -0.6299
  120OSM   C13S12658   2.856   4.237  16.234  0.4631  0.0441 -0.3690
  120OSM   H13S12659   2.910   4.223  16.138 -0.1643  1.5763 -0.9910
  120OSM   H13T12660   2.833   4.136  16.272 -3.6757  0.6503 -0.8496
  120OSM   C14S12661   2.925   4.313  16.346  0.6594  0.0326  0.2292
  120OSM   H14S12662   2.998   4.241  16.390  0.2365 -1.4388 -1.3578
  120OSM   H14T12663   2.851   4.333  16.427 -0.1349 -2.5523  0.2661
  120OSM   C15S12664   2.989   4.432  16.287 -0.4269 -0.0462  0.2557
  120OSM   H15S12665   2.916   4.497  16.235  0.5215  0.7102 -0.1598
  120OSM   H15T12666   3.054   4.412  16.199 -0.0823 -1.7411  0.8455
  120OSM   C16S12667   3.066   4.515  16.392 -0.0459 -0.4503  0.1571
  120OSM   H16S12668   3.148   4.452  16.433  0.6458  0.5608  0.3818
  120OSM   H16T12669   2.997   4.545  16.474 -1.3319  2.5579 -1.8630
  120OSM   C17S12670   3.112   4.646  16.327 -0.1145  0.0428 -0.2338
  120OSM   H17S12671   3.025   4.702  16.286 -0.4793 -0.2169  0.1769
  120OSM   H17T12672   3.168   4.622  16.233 -0.4591  0.7883 -0.6345
  120OSM   C18S12673   3.199   4.730  16.413 -0.0963  0.0702 -0.0765
  120OSM   H18S12674   3.142   4.788  16.489 -0.1538  0.2929 -0.2876
  120OSM   H18T12675   3.242   4.811  16.350 -4.0593  0.9909 -1.9208
  120OSM   H18U12676   3.283   4.677  16.462  0.4674  0.3861 -0.6803
  120OSM    C1F12677   2.395   3.498  15.428 -0.2687 -0.5922 -0.2089
  120OSM     OF12678   2.459   3.530  15.327  0.0851 -0.3183 -0.4364
  120OSM    C2F12679   2.427   3.371  15.505 -0.2323 -0.3352 -0.2136
  120OSM    H2F12680   2.455   3.297  15.427  2.4704 -0.5942  0.9028
  120OSM    H2G12681   2.346   3.335  15.571 -0.2942  1.5919  0.8470
  120OSM    C3F12682   2.556   3.385  15.584  0.0121  0.8916 -1.3469
  120OSM    H3F12683   2.636   3.417  15.514 -0.3057  1.3335 -1.5155
  120OSM    H3G12684   2.580   3.283  15.620  2.9907  0.8522 -3.1128
  120OSM    C4F12685   2.558   3.478  15.710 -0.5631 -0.4355  0.4214
  120OSM    H4F12686   2.512   3.423  15.794  1.8706 -1.0312  1.4564
  120OSM    H4G12687   2.493   3.563  15.680 -0.2775 -0.5008 -0.3970
  120OSM    C5F12688   2.697   3.526  15.758  0.7356  0.6622 -0.0641
  120OSM    H5F12689   2.744   3.580  15.673  0.8280 -1.9810 -1.7973
  120OSM    H5G12690   2.754   3.441  15.801  0.5521  1.1256  1.1324
  120OSM    C6F12691   2.686   3.639  15.859 -0.1774  0.0109  0.1054
  120OSM    H6F12692   2.631   3.593  15.945 -1.3174 -0.9478 -1.0814
  120OSM    H6G12693   2.635   3.725  15.812  1.5794  0.3991 -1.1449
  120OSM    C7F12694   2.828   3.681  15.899  0.0767 -0.4232 -0.7311
  120OSM    H7F12695   2.888   3.726  15.816  2.5897  1.0146  1.6772
  120OSM    H7G12696   2.886   3.594  15.937  0.7157  0.3280  0.0663
  120OSM    C8F12697   2.833   3.780  16.020  0.3470  0.0626 -0.7502
  120OSM    H8F12698   2.939   3.793  16.054  0.9611 -3.7845 -0.7076
  120OSM    H8G12699   2.780   3.756  16.115  1.2461  0.6918 -0.0665
  120OSM    C9F12700   2.776   3.903  15.971 -0.6662 -0.3971  0.3729
  120OSM    H9F12701   2.669   3.911  15.949 -0.2040 -0.8981 -2.4130
  120OSM   C10F12702   2.856   4.005  15.934  0.4998  0.4879  0.0496
  120OSM   H10F12703   2.812   4.090  15.880  1.1820  0.3588 -0.7351
  120OSM   C11F12704   3.009   4.010  15.941  0.2001  0.0877 -0.3649
  120OSM   H11F12705   3.060   3.923  15.895  1.8718 -0.5191  2.4088
  120OSM   H11G12706   3.037   4.027  16.047 -0.7172  2.1997 -0.4170
  120OSM   C12F12707   3.076   4.136  15.877 -0.3490  0.1987  0.0522
  120OSM   H12F12708   3.024   4.219  15.929  0.1383  0.0409  0.7995
  120OSM   H12G12709   3.042   4.145  15.771 -1.5415 -0.8257  0.3391
  120OSM   C13F12710   3.226   4.154  15.889  0.2449  0.3052  0.2814
  120OSM   H13F12711   3.268   4.224  15.814 -0.0194  0.1786  0.0127
  120OSM   H13G12712   3.270   4.055  15.866  0.4702  0.2150  1.0721
  120OSM   C14F12713   3.263   4.203  16.029  0.1609  0.2779  0.2522
  120OSM   H14F12714   3.209   4.294  16.061  2.1979  1.2961  0.9648
  120OSM   H14G12715   3.371   4.229  16.018  0.1277  1.2550  2.0201
  120OSM   C15F12716   3.250   4.111  16.152  0.1888  0.4986  0.5374
  120OSM   H15F12717   3.275   4.009  16.116  0.3328  1.7558 -3.3839
  120OSM   H15G12718   3.143   4.108  16.182  0.1870  1.0808  0.5876
  120OSM   C16F12719   3.341   4.169  16.256 -0.0312  0.3312 -0.5453
  120OSM   H16F12720   3.301   4.271  16.275  0.4976  0.4575 -0.0957
  120OSM   H16G12721   3.446   4.184  16.223 -0.2799  0.0601 -1.4893
  120OSM   C17F12722   3.337   4.100  16.387 -0.1326  0.3774  0.1717
  120OSM   H17F12723   3.413   4.020  16.399 -0.6120  0.0825  1.3854
  120OSM   H17G12724   3.243   4.042  16.402 -0.4545  0.5128 -1.2126
  120OSM   C18F12725   3.362   4.198  16.505  0.5644 -0.4828 -0.5463
  120OSM   H18F12726   3.281   4.274  16.513 -2.1833 -3.3793  2.0312
  120OSM   H18G12727   3.459   4.248  16.483 -0.3962  2.1527  0.7543
  120OSM   H18H12728   3.365   4.134  16.596 -0.8862 -0.5784 -0.5414
  121OSM      N12729   2.925   1.765  17.828 -0.2940  0.0990  0.1336
  121OSM    C1512730   3.035   1.720  17.742 -0.4765  0.1092 -0.0634
  121OSM   H15A12731   3.007   1.627  17.693  1.3585 -1.0687  0.9968
  121OSM   H15B12732   3.120   1.689  17.802  0.6366  1.0006 -1.1135
  121OSM   H15C12733   3.071   1.788  17.666 -0.5838 -1.5615 -1.6953
  121OSM    C1412734   2.978   1.861  17.922 -1.1935 -0.7767 -0.1449
  121OSM   H14A12735   2.898   1.918  17.966 -0.1282  0.1151  0.6895
  121OSM   H14B12736   3.053   1.927  17.880 -1.2505 -2.5122 -3.3259
  121OSM   H14C12737   3.024   1.812  18.006  0.2350  0.7700  0.0231
  121OSM    C1312738   2.827   1.830  17.746 -0.2292 -0.0837  0.5871
  121OSM   H13A12739   2.865   1.901  17.674  0.9036  0.2545  1.5027
  121OSM   H13B12740   2.747   1.869  17.807 -0.9195 -2.8783  1.6122
  121OSM   H13C12741   2.778   1.752  17.689 -2.0006 -0.6549  2.7697
  121OSM    C1212742   2.870   1.641  17.902  0.1928  0.3841  0.3357
  121OSM   H12A12743   2.826   1.577  17.827 -0.0052 -0.4279  1.1207
  121OSM   H12B12744   2.790   1.676  17.966 -1.7282  0.1572 -1.7805
  121OSM    C1112745   2.964   1.548  17.990 -0.0233 -0.2602 -0.0547
  121OSM   H11A12746   3.042   1.499  17.927  0.8841  0.9005  0.1391
  121OSM   H11B12747   2.902   1.460  18.018 -4.1286  2.0086 -1.1767
  121OSM      P12748   3.167   1.623  18.122 -0.1475  0.0508 -0.6313
  121OSM    O1312749   3.229   1.659  17.995 -0.2968  0.0070  0.4406
  121OSM    O1412750   3.193   1.702  18.247  0.3153 -0.6655  0.0443
  121OSM    O1112751   3.212   1.471  18.155 -0.2028 -0.0287 -0.0887
  121OSM    O1212752   3.013   1.618  18.103 -0.1761 -0.1564  0.1967
  121OSM    C1S12753   3.174   1.419  18.281 -0.6959  0.8345  0.2458
  121OSM    H1S12754   3.064   1.434  18.294 -0.8848  1.9526 -2.2025
  121OSM    H1T12755   3.235   1.457  18.365  0.3433  0.0748 -0.1464
  121OSM     NF12756   3.141   1.215  18.394  0.0657  0.0565 -0.6738
  121OSM    HNF12757   3.198   1.186  18.469  0.0409 -0.7389 -0.9558
  121OSM    C2S12758   3.201   1.266  18.278 -0.1850 -0.4416  0.3457
  121OSM    H2S12759   3.142   1.236  18.189  0.0069 -0.2698  0.1630
  121OSM    C3S12760   3.345   1.228  18.243 -0.3856  0.5047 -0.0767
  121OSM    H3S12761   3.405   1.251  18.334 -0.6767  2.4676 -0.3503
  121OSM     O312762   3.406   1.304  18.142  1.1054  0.3434  0.9908
  121OSM    HO312763   3.342   1.374  18.131 -2.3120 -2.7728 -1.4882
  121OSM    C4S12764   3.367   1.080  18.209 -1.3688 -0.6215 -0.9488
  121OSM    H4S12765   3.282   1.021  18.172  0.7185 -2.4644 -3.1015
  121OSM    C5S12766   3.471   1.004  18.242 -0.8687  0.4112  0.1789
  121OSM    H5S12767   3.549   1.061  18.294 -1.0798  0.1642  0.7684
  121OSM    C6S12768   3.481   0.860  18.222 -0.4316 -0.9503  0.3820
  121OSM    H6S12769   3.437   0.821  18.317 -0.8290  0.8620  0.9844
  121OSM    H6T12770   3.589   0.831  18.222 -0.4454 -1.0081 -0.3652
  121OSM    C7S12771   3.410   0.797  18.095 -0.4139 -0.4356  0.1657
  121OSM    H7S12772   3.440   0.859  18.008 -0.1605 -0.1803  0.4311
  121OSM    H7T12773   3.300   0.805  18.108 -0.7845 -1.5073 -1.9132
  121OSM    C8S12774   3.448   0.655  18.061  0.6096 -0.0140  0.2406
  121OSM    H8S12775   3.558   0.658  18.055  0.6650 -0.8600  0.6854
  121OSM    H8T12776   3.409   0.638  17.958  0.5434 -0.0600  0.2736
  121OSM    C9S12777   3.385   0.559  18.156 -0.5998  0.2391 -0.1352
  121OSM    H9S12778   3.375   0.468  18.093  3.0302 -1.0490  0.8955
  121OSM    H9T12779   3.280   0.588  18.174 -0.7299 -0.1725 -0.2194
  121OSM   C10S12780   3.457   0.532  18.286 -0.0160 -0.5208  0.4730
  121OSM   H10S12781   3.467   0.624  18.347  2.0877  0.2431 -0.8994
  121OSM   H10T12782   3.563   0.506  18.264 -0.2808  0.3658 -2.0881
  121OSM   C11S12783   3.404   0.416  18.370  0.5175  0.6373  0.0878
  121OSM   H11S12784   3.293   0.420  18.371  0.5216  1.0379 -0.3887
  121OSM   H11T12785   3.443   0.421  18.474 -0.5465 -2.0793  0.6881
  121OSM   C12S12786   3.452   0.278  18.314 -0.6041  0.0459 -0.0494
  121OSM   H12S12787   3.557   0.287  18.281 -0.1628  0.1340  1.3081
  121OSM   H12T12788   3.394   0.254  18.222  0.9314 -2.0310 -0.5583
  121OSM   C13S12789   3.448   0.167  18.424 -0.6774  0.5587  0.2903
  121OSM   H13S12790   3.348   0.156  18.471 -0.2204  2.0651  1.7374
  121OSM   H13T12791   3.519   0.206  18.501 -1.2108 -0.2135  1.1908
  121OSM   C14S12792   3.489   0.023  18.364 -0.8279 -0.4288 -0.5701
  121OSM   H14S12793   3.584   0.023  18.307 -1.3034  0.1356 -1.3925
  121OSM   H14T12794   3.411  -0.008  18.291 -0.6841 -1.4140 -0.3110
  121OSM   C15S12795   3.503  -0.080  18.469  0.1634  0.2165 -0.9090
  121OSM   H15S12796   3.406  -0.082  18.524  0.1639  0.4690 -0.9002
  121OSM   H15T12797   3.567  -0.032  18.546  0.4583 -1.2209 -0.2255
  121OSM   C16S12798   3.555  -0.218  18.432  0.3880  0.3036  0.2524
  121OSM   H16S12799   3.647  -0.203  18.371  0.7039 -1.3924  0.2606
  121OSM   H16T12800   3.476  -0.273  18.375  1.4657 -0.3008 -0.7161
  121OSM   C17S12801   3.585  -0.322  18.539 -0.5704  0.0224 -0.2226
  121OSM   H17S12802   3.506  -0.323  18.618  0.4162 -1.2645  0.7774
  121OSM   H17T12803   3.667  -0.269  18.592 -1.3697  0.2257  0.8534
  121OSM   C18S12804   3.618  -0.468  18.499  0.1896 -0.1918 -0.2531
  121OSM   H18S12805   3.667  -0.521  18.584  0.3383  1.4129  0.6999
  121OSM   H18T12806   3.699  -0.466  18.423  0.4366  1.4600  0.0109
  121OSM   H18U12807   3.538  -0.529  18.453  2.3060 -2.8378 -0.6620
  121OSM    C1F12808   3.010   1.202  18.424  0.2757  0.4138 -0.8833
  121OSM     OF12809   2.928   1.231  18.337 -0.2219  0.1875 -0.3834
  121OSM    C2F12810   2.969   1.145  18.557  0.2742 -0.4968  0.5757
  121OSM    H2F12811   2.859   1.161  18.563  0.3978  1.1585 -0.8238
  121OSM    H2G12812   3.020   1.194  18.643  0.6231 -0.0074  0.0943
  121OSM    C3F12813   3.016   0.995  18.585  0.0478  0.6695  0.1732
  121OSM    H3F12814   3.125   0.982  18.569  0.0174 -1.5894  1.3587
  121OSM    H3G12815   2.956   0.926  18.522 -2.6342  2.9294  0.0526
  121OSM    C4F12816   2.988   0.937  18.730 -0.6243  0.2796  0.0648
  121OSM    H4F12817   2.894   0.973  18.777  0.1864  0.6812  1.4247
  121OSM    H4G12818   3.068   0.967  18.801 -0.7900 -0.6265  0.6584
  121OSM    C5F12819   3.000   0.782  18.738 -0.2413  0.2188 -0.4859
  121OSM    H5F12820   2.901   0.734  18.725  0.5973 -2.2612  1.4286
  121OSM    H5G12821   3.015   0.762  18.846  0.2258  1.3969 -0.3138
  121OSM    C6F12822   3.112   0.711  18.664  0.0071  0.6018 -0.4478
  121OSM    H6F12823   3.215   0.739  18.697 -0.5668 -0.3384  2.4378
  121OSM    H6G12824   3.106   0.732  18.555  1.0035  3.3069 -0.0729
  121OSM    C7F12825   3.099   0.556  18.688 -0.6696 -0.3936 -1.2192
  121OSM    H7F12826   3.149   0.498  18.607 -0.2836 -0.5370 -0.8818
  121OSM    H7G12827   2.993   0.530  18.670 -0.5175  0.2800 -3.4127
  121OSM    C8F12828   3.149   0.517  18.834 -0.4578 -0.1951 -0.9308
  121OSM    H8F12829   3.133   0.408  18.849  0.3601 -0.6262 -2.8581
  121OSM    H8G12830   3.090   0.569  18.912 -1.1162 -1.8168 -0.3045
  121OSM    C9F12831   3.302   0.531  18.836 -0.4424  0.0656 -0.0988
  121OSM    H9F12832   3.331   0.627  18.792 -2.3698  0.4944 -0.5448
  121OSM   C10F12833   3.396   0.451  18.890 -0.2079  0.4278  0.0212
  121OSM   H10F12834   3.502   0.481  18.889  0.1864 -0.8872  0.0016
  121OSM   C11F12835   3.379   0.328  18.961  0.2180  0.2812 -0.2605
  121OSM   H11F12836   3.271   0.309  18.978  0.0039  1.7110  0.0347
  121OSM   H11G12837   3.425   0.331  19.062  0.1029 -0.3113 -0.1827
  121OSM   C12F12838   3.436   0.208  18.881  0.1349  0.7592 -1.6186
  121OSM   H12F12839   3.529   0.234  18.826  0.7421  3.7364  0.5438
  121OSM   H12G12840   3.365   0.179  18.801 -2.3217  0.0529  0.6834
  121OSM   C13F12841   3.471   0.082  18.968  0.3383 -0.8623  0.4376
  121OSM   H13F12842   3.382   0.078  19.035  0.5830 -2.3871  0.7113
  121OSM   H13G12843   3.563   0.099  19.028  1.0888  0.7378 -1.0625
  121OSM   C14F12844   3.486  -0.047  18.885 -0.5276 -0.4624  0.3918
  121OSM   H14F12845   3.553  -0.125  18.928 -0.5631  0.2395  1.7892
  121OSM   H14G12846   3.541  -0.020  18.792  0.6890  0.0591  1.2413
  121OSM   C15F12847   3.353  -0.124  18.856 -0.5056 -0.1886 -0.3704
  121OSM   H15F12848   3.356  -0.160  18.752 -2.8060 -0.1427 -0.5178
  121OSM   H15G12849   3.272  -0.047  18.854 -0.8181 -0.5138 -0.2936
  121OSM   C16F12850   3.311  -0.238  18.946 -0.2561  0.4297  0.0023
  121OSM   H16F12851   3.305  -0.191  19.047 -3.1367  3.9060 -1.5829
  121OSM   H16G12852   3.380  -0.324  18.937 -1.6950 -0.7139 -0.4004
  121OSM   C17F12853   3.176  -0.298  18.904 -0.1858 -0.3836  0.0094
  121OSM   H17F12854   3.100  -0.218  18.894 -0.0771 -0.5340 -2.7527
  121OSM   H17G12855   3.137  -0.364  18.985  0.2851 -1.1368 -0.3634
  121OSM   C18F12856   3.164  -0.374  18.767  0.0149 -0.0169  0.0254
  121OSM   H18F12857   3.237  -0.327  18.697 -0.1309 -0.3069 -0.3264
  121OSM   H18G12858   3.059  -0.370  18.731 -0.2986  0.8044  0.9607
  121OSM   H18H12859   3.199  -0.478  18.784  0.4407  0.3332  1.4074
  122OSM      N12860   0.669   2.110  19.749 -0.2540 -0.5481 -0.4057
  122OSM    C1512861   0.687   2.097  19.901  0.0553 -0.0151  0.4001
  122OSM   H15A12862   0.682   1.991  19.920  1.4356 -0.4866 -1.5096
  122OSM   H15B12863   0.608   2.146  19.957  0.8260  0.2027  1.3090
  122OSM   H15C12864   0.784   2.127  19.935  1.6411 -0.1950 -3.4524
  122OSM    C1412865   0.527   2.068  19.701  0.1715  0.7481 -0.3220
  122OSM   H14A12866   0.513   2.066  19.593  0.1421  0.2784 -0.3160
  122OSM   H14B12867   0.463   2.143  19.742  3.1861  1.4539  3.6360
  122OSM   H14C12868   0.501   1.970  19.738 -0.7243  0.2377 -2.1826
  122OSM    C1312869   0.689   2.255  19.697  0.9292 -0.4489 -0.2571
  122OSM   H13A12870   0.686   2.260  19.589  0.8028  0.7881 -0.2028
  122OSM   H13B12871   0.786   2.297  19.717 -0.3219  4.1735 -2.4531
  122OSM   H13C12872   0.615   2.318  19.743  0.4542 -0.8773 -0.4129
  122OSM    C1212873   0.775   2.023  19.681  0.5827 -0.2760 -1.2043
  122OSM   H12A12874   0.874   2.056  19.710 -0.0842  1.5573 -0.8511
  122OSM   H12B12875   0.773   2.052  19.577 -1.1411 -0.0065 -1.1225
  122OSM    C1112876   0.758   1.867  19.698 -0.5907 -0.0428 -0.1268
  122OSM   H11A12877   0.832   1.829  19.624 -0.0815 -0.6200  0.6599
  122OSM   H11B12878   0.660   1.832  19.660 -0.1799 -0.9885 -0.3449
  122OSM      P12879   0.698   1.730  19.907 -0.1835 -0.2843 -0.3627
  122OSM    O1312880   0.686   1.787  20.045  0.3913  0.1060 -0.1795
  122OSM    O1412881   0.578   1.695  19.825  0.1545 -0.3072 -0.5908
  122OSM    O1112882   0.786   1.602  19.920  0.1512 -0.3379  0.0016
  122OSM    O1212883   0.789   1.827  19.831 -0.4898  0.1529 -0.1361
  122OSM    C1S12884   0.903   1.577  19.849  0.4924 -0.8755 -0.5656
  122OSM    H1S12885   0.987   1.613  19.912 -0.9471  0.7018  0.5304
  122OSM    H1T12886   0.906   1.621  19.747 -0.3693  0.5482 -0.0192
  122OSM     NF12887   1.079   1.399  19.811  0.4728 -1.1322 -0.1547
  122OSM    HNF12888   1.105   1.404  19.715 -0.1736 -2.7637 -0.4358
  122OSM    C2S12889   0.935   1.420  19.837  0.6178  0.7658 -0.4770
  122OSM    H2S12890   0.914   1.367  19.932 -0.2486  2.7768  0.5213
  122OSM    C3S12891   0.830   1.363  19.730 -0.0759 -0.6382  0.3103
  122OSM    H3S12892   0.835   1.423  19.636 -0.8783  0.2563  0.8251
  122OSM     O312893   0.689   1.395  19.763 -0.3049  0.2764  0.1661
  122OSM    HO312894   0.701   1.473  19.817  0.5496  0.0775  0.2752
  122OSM    C4S12895   0.853   1.218  19.690  0.2000 -0.0402 -0.4042
  122OSM    H4S12896   0.936   1.192  19.623  0.7480 -1.0466  0.6406
  122OSM    C5S12897   0.768   1.117  19.714 -0.0287 -0.5569 -1.4143
  122OSM    H5S12898   0.667   1.134  19.753  0.5162  0.0909 -0.2237
  122OSM    C6S12899   0.797   0.970  19.674  0.1667  0.1291 -0.3631
  122OSM    H6S12900   0.887   0.955  19.611  0.2884 -1.9081  0.2383
  122OSM    H6T12901   0.707   0.933  19.621 -1.8888  2.3079  1.3752
  122OSM    C7S12902   0.841   0.879  19.795 -0.5624 -0.0913 -0.0466
  122OSM    H7S12903   0.940   0.917  19.826 -0.5968  3.0225 -3.0793
  122OSM    H7T12904   0.862   0.778  19.754 -0.1391  0.0641 -0.2123
  122OSM    C8S12905   0.729   0.859  19.894  0.4845 -0.6292  0.2851
  122OSM    H8S12906   0.630   0.851  19.843  0.3586 -0.5604  0.5166
  122OSM    H8T12907   0.710   0.957  19.944  1.0375  1.4062 -3.1695
  122OSM    C9S12908   0.739   0.758  20.005 -0.0526 -0.1192 -0.3130
  122OSM    H9S12909   0.668   0.786  20.086 -0.3327  1.1694 -0.9816
  122OSM    H9T12910   0.837   0.783  20.051  1.3811 -0.7872 -2.7992
  122OSM   C10S12911   0.721   0.613  19.957 -0.0949  0.1187  0.2958
  122OSM   H10S12912   0.788   0.585  19.873 -1.3454 -1.1792 -0.3059
  122OSM   H10T12913   0.618   0.595  19.922  0.2944  0.6464 -1.1781
  122OSM   C11S12914   0.750   0.512  20.063 -0.4356  0.5815  0.3855
  122OSM   H11S12915   0.689   0.550  20.148 -1.3550  0.4144 -0.1861
  122OSM   H11T12916   0.856   0.507  20.096  0.5290 -0.4634 -2.5217
  122OSM   C12S12917   0.706   0.369  20.033  0.0973 -0.1614 -0.8550
  122OSM   H12S12918   0.770   0.313  19.963  1.1168  1.6043 -1.3842
  122OSM   H12T12919   0.604   0.390  19.993  0.5745 -1.9867 -3.1853
  122OSM   C13S12920   0.698   0.275  20.164  0.2500  0.7119  0.3168
  122OSM   H13S12921   0.627   0.322  20.236 -1.8091 -1.2612 -0.2937
  122OSM   H13T12922   0.801   0.279  20.206 -0.1167  1.1309  1.1996
  122OSM   C14S12923   0.657   0.129  20.139 -0.1356  0.4834 -0.4003
  122OSM   H14S12924   0.732   0.087  20.069  1.0632 -0.5917  1.4546
  122OSM   H14T12925   0.549   0.122  20.114 -0.2583 -0.7356  0.4293
  122OSM   C15S12926   0.668   0.038  20.263  0.5352 -0.5381 -0.0234
  122OSM   H15S12927   0.766   0.063  20.308 -0.3233 -1.6149  2.6164
  122OSM   H15T12928   0.671  -0.069  20.230  0.9157 -0.7679  0.7441
  122OSM   C16S12929   0.542   0.050  20.345  0.3891  0.0687  0.2982
  122OSM   H16S12930   0.451   0.062  20.282 -0.7055  1.2320  1.9889
  122OSM   H16T12931   0.545   0.147  20.399 -0.3956  0.6632 -0.6850
  122OSM   C17S12932   0.529  -0.052  20.464  0.1820 -0.3311 -0.3627
  122OSM   H17S12933   0.528  -0.151  20.414 -0.8360 -0.8912  0.7205
  122OSM   H17T12934   0.433  -0.038  20.519  1.0242  0.3699  0.9802
  122OSM   C18S12935   0.642  -0.050  20.566  0.1819  0.7601 -0.4226
  122OSM   H18S12936   0.738  -0.088  20.526  0.1709  0.9086 -0.5901
  122OSM   H18T12937   0.619  -0.106  20.659 -0.9156  1.1993 -0.4125
  122OSM   H18U12938   0.662   0.054  20.598  1.0751  0.5136 -0.1520
  122OSM    C1F12939   1.165   1.420  19.910 -0.0076  0.1519  0.1258
  122OSM     OF12940   1.128   1.430  20.030 -0.3072 -0.1146 -0.3417
  122OSM    C2F12941   1.312   1.426  19.874  0.3324  0.0553 -0.2069
  122OSM    H2F12942   1.374   1.381  19.954  0.5405 -1.3197 -1.0938
  122OSM    H2G12943   1.346   1.529  19.850  1.8052 -0.4977 -0.6119
  122OSM    C3F12944   1.350   1.329  19.743  0.1684 -0.3286 -0.0142
  122OSM    H3F12945   1.457   1.353  19.723  0.4231 -0.7159  0.8385
  122OSM    H3G12946   1.291   1.355  19.652  1.9744 -0.3955 -1.2734
  122OSM    C4F12947   1.342   1.179  19.774 -0.6791 -0.8840  0.3050
  122OSM    H4F12948   1.250   1.135  19.818 -0.7612  0.9016  2.0401
  122OSM    H4G12949   1.426   1.170  19.846  0.0257  0.4876 -0.3118
  122OSM    C5F12950   1.368   1.104  19.638 -1.1161 -0.5413 -0.3971
  122OSM    H5F12951   1.460   1.146  19.593 -1.7393  2.1770  0.6950
  122OSM    H5G12952   1.286   1.117  19.565 -0.8485 -1.9224 -0.9837
  122OSM    C6F12953   1.384   0.958  19.668  0.5556 -0.5073  0.5711
  122OSM    H6F12954   1.447   0.952  19.759  1.7994 -2.8774 -0.3531
  122OSM    H6G12955   1.453   0.907  19.598  0.1371  0.7152 -0.7822
  122OSM    C7F12956   1.251   0.888  19.680 -0.0790  0.3985  0.1117
  122OSM    H7F12957   1.201   0.900  19.581  0.1558  1.1385  0.0745
  122OSM    H7G12958   1.179   0.940  19.746  0.2055  1.5288 -0.4483
  122OSM    C8F12959   1.258   0.729  19.693 -0.7765 -0.5753 -0.0435
  122OSM    H8F12960   1.330   0.693  19.617  1.3299  0.8349  1.1782
  122OSM    H8G12961   1.155   0.689  19.680 -0.6534 -1.0081  0.2850
  122OSM    C9F12962   1.306   0.683  19.829 -0.0595  0.4814  0.2994
  122OSM    H9F12963   1.360   0.757  19.889  1.3584 -2.4871  2.9507
  122OSM   C10F12964   1.294   0.564  19.881 -0.4102  0.1496 -0.1569
  122OSM   H10F12965   1.345   0.547  19.977  0.9744  0.1103 -0.8785
  122OSM   C11F12966   1.218   0.451  19.820  0.3765  0.4925  0.0068
  122OSM   H11F12967   1.294   0.374  19.795  1.3051  0.8061  1.6925
  122OSM   H11G12968   1.178   0.472  19.719  1.9400 -2.6812 -1.4152
  122OSM   C12F12969   1.101   0.395  19.906  0.3076  0.0161  0.1061
  122OSM   H12F12970   1.015   0.465  19.911  0.0006 -0.1091 -2.3210
  122OSM   H12G12971   1.140   0.373  20.008  0.6681 -0.8796 -0.2066
  122OSM   C13F12972   1.044   0.265  19.853  1.0404  0.0552  0.3547
  122OSM   H13F12973   0.980   0.213  19.927  0.7770  0.6142  0.5231
  122OSM   H13G12974   1.130   0.199  19.826  0.4981  0.3889 -2.4722
  122OSM   C14F12975   0.961   0.290  19.726 -0.2000 -0.0195 -0.2100
  122OSM   H14F12976   1.023   0.317  19.638  2.1512  1.6720  1.7868
  122OSM   H14G12977   0.899   0.381  19.745  0.0310 -0.1566  1.3517
  122OSM   C15F12978   0.870   0.173  19.685  0.4945 -0.1141  0.2414
  122OSM   H15F12979   0.796   0.206  19.609  2.6596  1.2890 -1.3597
  122OSM   H15G12980   0.804   0.150  19.771  1.5724  1.0884  1.4408
  122OSM   C16F12981   0.948   0.052  19.643 -0.7146 -0.2503  0.0964
  122OSM   H16F12982   0.983  -0.007  19.729 -0.7545 -0.1159  0.2036
  122OSM   H16G12983   1.036   0.091  19.588 -0.4895  1.9012  1.8542
  122OSM   C17F12984   0.876  -0.044  19.555  0.8034 -0.2704  1.4981
  122OSM   H17F12985   0.767  -0.032  19.574  0.3267 -0.7527 -0.6904
  122OSM   H17G12986   0.902  -0.148  19.583  2.7958 -0.9083 -2.1389
  122OSM   C18F12987   0.891  -0.027  19.402  0.1541 -0.8119  0.6117
  122OSM   H18F12988   0.835  -0.113  19.359 -2.2051  0.7237  0.4004
  122OSM   H18G12989   0.996  -0.032  19.365 -0.4599 -0.2630 -1.2902
  122OSM   H18H12990   0.843   0.068  19.373  1.0087  0.8004  3.9060
  123OSM      N12991   3.112   2.337  19.468 -0.0423  0.4063  0.2030
  123OSM    C1512992   3.215   2.437  19.438  0.3118 -0.3079 -0.5611
  123OSM   H15A12993   3.172   2.536  19.446 -0.3379 -0.6934  1.1670
  123OSM   H15B12994   3.257   2.419  19.340 -1.1803 -1.6806 -0.9961
  123OSM   H15C12995   3.304   2.428  19.499 -0.2097  3.0948  0.9630
  123OSM    C1412996   2.990   2.380  19.392  0.5475  0.1705 -0.0339
  123OSM   H14A12997   2.964   2.479  19.427 -0.0941 -0.6006  1.7942
  123OSM   H14B12998   2.904   2.315  19.400 -1.2532  2.4958  0.7618
  123OSM   H14C12999   3.001   2.376  19.284  0.9635  1.3074 -0.0485
  123OSM    C1313000   3.164   2.204  19.424 -0.2263 -0.3086 -0.1787
  123OSM   H13A13001   3.089   2.128  19.443 -2.5021  1.9553  0.6151
  123OSM   H13B13002   3.256   2.173  19.471 -0.4842 -0.1871  0.4250
  123OSM   H13C13003   3.179   2.197  19.318  0.6444 -1.1753 -0.0100
  123OSM    C1213004   3.076   2.325  19.621  0.1754 -0.5334  0.9595
  123OSM   H12A13005   3.164   2.313  19.682  0.1916  1.2771  1.3346
  123OSM   H12B13006   3.010   2.239  19.624 -0.2843 -0.1782  3.4581
  123OSM    C1113007   3.003   2.447  19.698  0.6015 -0.0919  0.7518
  123OSM   H11A13008   3.068   2.536  19.684  1.3421 -0.7069  0.1065
  123OSM   H11B13009   3.001   2.423  19.806 -0.5276 -0.2339  0.7130
  123OSM      P13010   2.763   2.354  19.683  0.1804  0.1547 -0.0777
  123OSM    O1313011   2.706   2.297  19.557 -0.1885  1.1511 -0.0724
  123OSM    O1413012   2.825   2.265  19.780 -0.2126 -0.3518 -0.3590
  123OSM    O1113013   2.645   2.437  19.748 -0.1691 -0.8577  0.6303
  123OSM    O1213014   2.873   2.468  19.645 -0.0794 -0.3407  0.3157
  123OSM    C1S13015   2.654   2.475  19.880 -0.2523 -0.4147 -0.3314
  123OSM    H1S13016   2.761   2.498  19.896 -0.7066 -0.0453  2.6855
  123OSM    H1T13017   2.631   2.389  19.947 -0.8037 -0.6956 -0.8733
  123OSM     NF13018   2.578   2.650  20.048  0.1206  0.0763  0.0153
  123OSM    HNF13019   2.493   2.668  20.097 -0.9323 -1.1973 -1.2422
  123OSM    C2S13020   2.566   2.602  19.915  0.1934  0.0118  1.2235
  123OSM    H2S13021   2.603   2.691  19.859  0.6203 -1.5202 -1.0307
  123OSM    C3S13022   2.416   2.581  19.874 -0.1568 -0.0656  0.1194
  123OSM    H3S13023   2.366   2.515  19.947  1.1250 -1.9089 -0.6045
  123OSM     O313024   2.398   2.515  19.746  0.0337  0.1471 -0.5043
  123OSM    HO313025   2.488   2.485  19.729  1.4417  2.9920  1.1072
  123OSM    C4S13026   2.338   2.707  19.870  0.3029  0.1602 -0.1035
  123OSM    H4S13027   2.255   2.710  19.942  0.1492 -0.5424 -0.2373
  123OSM    C5S13028   2.368   2.817  19.793  0.0489 -0.7402  0.2619
  123OSM    H5S13029   2.452   2.804  19.724  0.3170 -0.7571  0.5905
  123OSM    C6S13030   2.289   2.945  19.785 -0.5609 -0.0831  0.3530
  123OSM    H6S13031   2.305   2.991  19.685 -0.1610 -0.0390  0.4345
  123OSM    H6T13032   2.342   3.012  19.856  1.2048  0.7520 -1.6387
  123OSM    C7S13033   2.141   2.929  19.822  0.4016 -0.9938  0.1814
  123OSM    H7S13034   2.132   2.900  19.929  1.1927  0.6969  0.7438
  123OSM    H7T13035   2.104   2.847  19.757 -0.2879 -0.5670  0.0343
  123OSM    C8S13036   2.059   3.056  19.820  0.0063  0.3795 -0.1254
  123OSM    H8S13037   2.061   3.074  19.710  0.2036 -2.2603 -0.6211
  123OSM    H8T13038   2.094   3.141  19.881 -0.0053 -0.5685  1.2356
  123OSM    C9S13039   1.906   3.026  19.834 -0.0349  0.2948  0.5422
  123OSM    H9S13040   1.875   2.928  19.792 -0.3733 -0.2647  2.0185
  123OSM    H9T13041   1.843   3.104  19.786  0.0140 -0.6054 -1.0224
  123OSM   C10S13042   1.868   3.016  19.980  0.1045  0.5404 -0.3151
  123OSM   H10S13043   1.875   3.113  20.033 -2.1401  2.2341 -2.8279
  123OSM   H10T13044   1.929   2.938  20.030 -1.5211 -1.4035 -1.2298
  123OSM   C11S13045   1.721   2.970  20.002  0.6952 -0.0832 -0.2271
  123OSM   H11S13046   1.714   2.861  19.985  0.7002 -0.1494  0.1807
  123OSM   H11T13047   1.644   3.035  19.955 -1.5938 -3.2382 -1.1246
  123OSM   C12S13048   1.689   2.990  20.153  0.1685 -0.0267  0.0909
  123OSM   H12S13049   1.698   3.098  20.177  0.4248 -0.0431  0.0705
  123OSM   H12T13050   1.772   2.939  20.208  0.1308 -0.9618 -0.6975
  123OSM   C13S13051   1.549   2.944  20.198 -0.5130 -0.3203  0.1644
  123OSM   H13S13052   1.544   2.940  20.309 -1.7476  1.1011  0.1929
  123OSM   H13T13053   1.525   2.842  20.161  0.8940  0.1062 -2.1998
  123OSM   C14S13054   1.436   3.042  20.153 -0.4480  0.8184  0.5028
  123OSM   H14S13055   1.351   2.980  20.120 -0.0518  1.2280 -1.3865
  123OSM   H14T13056   1.478   3.097  20.066 -0.9167 -0.5967 -0.6378
  123OSM   C15S13057   1.397   3.138  20.262  0.2592  0.1233  0.1627
  123OSM   H15S13058   1.487   3.201  20.282  1.2235 -0.8421 -0.9663
  123OSM   H15T13059   1.376   3.077  20.353  1.9691 -0.3881  0.2582
  123OSM   C16S13060   1.288   3.231  20.216  0.7427 -0.0940 -0.6227
  123OSM   H16S13061   1.195   3.173  20.201 -0.1432  0.9272  0.6767
  123OSM   H16T13062   1.312   3.284  20.121  1.4204 -0.9011 -0.9100
  123OSM   C17S13063   1.252   3.334  20.317  0.3544 -0.5999  0.5094
  123OSM   H17S13064   1.326   3.417  20.323 -0.5667  0.2959 -0.1204
  123OSM   H17T13065   1.253   3.285  20.416  1.7655 -0.7982  0.4156
  123OSM   C18S13066   1.122   3.412  20.298 -0.5336  0.1308 -0.0532
  123OSM   H18S13067   1.049   3.331  20.274  0.4665 -0.6319 -0.6191
  123OSM   H18T13068   1.122   3.477  20.208 -1.0460 -1.6968 -1.4359
  123OSM   H18U13069   1.085   3.463  20.390 -1.3189  0.6910 -0.6693
  123OSM    C1F13070   2.692   2.689  20.102  1.0254 -0.0580 -0.2928
  123OSM     OF13071   2.799   2.672  20.044 -0.2577  0.7848  0.3763
  123OSM    C2F13072   2.680   2.734  20.248 -0.3345  0.4920  0.4032
  123OSM    H2F13073   2.773   2.716  20.306  0.1461 -0.8436 -0.7175
  123OSM    H2G13074   2.589   2.703  20.304  0.2027  1.1567  1.6909
  123OSM    C3F13075   2.661   2.891  20.241  0.2638 -0.7269  0.2590
  123OSM    H3F13076   2.559   2.906  20.199 -0.3363 -2.0349  1.1905
  123OSM    H3G13077   2.741   2.942  20.182  0.6212 -3.3859 -1.7502
  123OSM    C4F13078   2.662   2.954  20.379 -0.0794  0.5593 -0.7577
  123OSM    H4F13079   2.754   2.940  20.439 -1.6885 -3.1976  1.1675
  123OSM    H4G13080   2.585   2.903  20.440  2.0803 -1.4951  0.3868
  123OSM    C5F13081   2.638   3.102  20.373  0.6750 -0.8862  0.7197
  123OSM    H5F13082   2.532   3.109  20.339  0.8846  0.1272  0.2120
  123OSM    H5G13083   2.699   3.144  20.290  1.5888 -0.8427  1.4064
  123OSM    C6F13084   2.672   3.184  20.502  0.3736 -0.1817 -0.5366
  123OSM    H6F13085   2.768   3.146  20.544 -0.8405 -1.7614  0.9308
  123OSM    H6G13086   2.585   3.160  20.565 -1.0403  0.8166 -2.0268
  123OSM    C7F13087   2.684   3.337  20.478 -0.0621 -0.1512 -0.0333
  123OSM    H7F13088   2.580   3.374  20.467 -0.7227 -1.2786  1.7334
  123OSM    H7G13089   2.730   3.360  20.380 -4.0426  1.2752 -1.7395
  123OSM    C8F13090   2.750   3.414  20.600  0.4539 -0.3381  0.4417
  123OSM    H8F13091   2.697   3.386  20.694  1.5053  0.4888  1.3020
  123OSM    H8G13092   2.730   3.516  20.560  1.8969  0.2285  1.1200
  123OSM    C9F13093   2.892   3.388  20.636  0.2359  0.0857 -0.2210
  123OSM    H9F13094   2.924   3.283  20.640 -0.7900 -0.2896 -1.3136
  123OSM   C10F13095   2.989   3.474  20.675  0.2043 -0.3962 -0.6686
  123OSM   H10F13096   3.083   3.432  20.713  0.0159 -1.2551 -1.1424
  123OSM   C11F13097   2.980   3.619  20.694 -0.3955 -0.4949  0.4432
  123OSM   H11F13098   2.916   3.673  20.620  0.1230 -0.3059  0.1287
  123OSM   H11G13099   3.080   3.663  20.673 -0.4901  0.1286  1.2313
  123OSM   C12F13100   2.925   3.670  20.833 -0.0065 -0.0502  0.2038
  123OSM   H12F13101   2.977   3.622  20.919 -0.2445  0.1165  0.4406
  123OSM   H12G13102   2.819   3.642  20.846 -0.1375  0.8371  1.1066
  123OSM   C13F13103   2.942   3.825  20.856 -0.0873 -0.0168  0.0469
  123OSM   H13F13104   3.051   3.846  20.862  0.3277 -2.3011  2.3331
  123OSM   H13G13105   2.911   3.835  20.962 -0.5522  1.4811 -0.2122
  123OSM   C14F13106   2.874   3.916  20.765 -0.8334 -0.6055  0.4386
  123OSM   H14F13107   2.777   3.875  20.728 -1.4478  0.0272  1.3188
  123OSM   H14G13108   2.937   3.930  20.674  0.4068 -1.6849  1.0877
  123OSM   C15F13109   2.846   4.059  20.820 -0.0663 -0.1701  0.0484
  123OSM   H15F13110   2.937   4.116  20.846 -2.0739  2.4576  1.9167
  123OSM   H15G13111   2.793   4.043  20.916  2.6930  2.2387  2.1447
  123OSM   C16F13112   2.768   4.144  20.718 -0.7053 -0.0938 -0.3015
  123OSM   H16F13113   2.724   4.233  20.769  2.6630  1.1189  0.7844
  123OSM   H16G13114   2.688   4.081  20.673 -0.4058  1.5809 -3.4219
  123OSM   C17F13115   2.858   4.186  20.602  0.7165 -0.7893  0.4482
  123OSM   H17F13116   2.891   4.101  20.539  0.3723  0.5991 -1.7272
  123OSM   H17G13117   2.953   4.229  20.639  0.7630 -0.2574 -0.2744
  123OSM   C18F13118   2.804   4.282  20.501 -0.7783  0.4869  0.3559
  123OSM   H18F13119   2.727   4.241  20.432  1.5630 -0.9556 -1.5288
  123OSM   H18G13120   2.883   4.326  20.438 -0.0124 -0.1284  0.8676
  123OSM   H18H13121   2.761   4.372  20.550  1.2906  0.9762  1.3674
  124OSM      N13122   3.690   1.467  20.633 -0.0093  0.5541 -0.5095
  124OSM    C1513123   3.707   1.429  20.494  0.2772  0.1297  0.1867
  124OSM   H15A13124   3.749   1.330  20.486  1.3745  0.5707  0.3784
  124OSM   H15B13125   3.777   1.497  20.448  2.2050 -1.4101  0.7148
  124OSM   H15C13126   3.615   1.429  20.437  1.8556 -0.6675 -2.5729
  124OSM    C1413127   3.594   1.581  20.640  1.1463  0.2890  0.2761
  124OSM   H14A13128   3.631   1.655  20.570  1.0520  0.1527  0.0808
  124OSM   H14B13129   3.607   1.622  20.738 -2.1299 -0.4221  1.1402
  124OSM   H14C13130   3.490   1.555  20.624  1.3957 -2.1127  2.0242
  124OSM    C1313131   3.625   1.347  20.702 -0.2445 -1.0118  0.2726
  124OSM   H13A13132   3.521   1.356  20.674 -0.1016  0.3715  0.1107
  124OSM   H13B13133   3.632   1.346  20.810  2.3418  0.5814  0.2273
  124OSM   H13C13134   3.661   1.250  20.671  1.9117 -0.5258  1.0110
  124OSM    C1213135   3.821   1.495  20.707 -0.1685  0.2065 -0.9719
  124OSM   H12A13136   3.799   1.527  20.808 -1.3845  3.4143 -2.1147
  124OSM   H12B13137   3.874   1.578  20.663 -0.1947  1.1113  0.6182
  124OSM    C1113138   3.925   1.379  20.709  0.4520  0.3408 -0.2845
  124OSM   H11A13139   3.882   1.286  20.753  0.9421  1.3381  2.5168
  124OSM   H11B13140   4.008   1.415  20.774  0.0837  1.7996 -0.6045
  124OSM      P13141   4.103   1.424  20.533  0.2272 -0.1760  0.1901
  124OSM    O1313142   4.095   1.526  20.428  0.2675 -0.1031  0.2796
  124OSM    O1413143   4.185   1.466  20.646 -0.0311  0.2082 -0.2321
  124OSM    O1113144   4.187   1.308  20.477 -0.4834 -0.2268 -0.1875
  124OSM    O1213145   3.971   1.348  20.575 -0.2816 -0.5156 -0.1028
  124OSM    C1S13146   4.132   1.171  20.470 -1.2362  0.1445 -0.3088
  124OSM    H1S13147   4.054   1.170  20.391 -1.1934 -2.3176 -0.3901
  124OSM    H1T13148   4.092   1.137  20.569  3.2799  0.4418  1.8670
  124OSM     NF13149   4.201   0.928  20.415 -0.4535 -0.0368  0.1800
  124OSM    HNF13150   4.230   0.853  20.474 -0.6433 -0.4238 -0.2109
  124OSM    C2S13151   4.250   1.065  20.439  0.0554  0.4759  0.3000
  124OSM    H2S13152   4.290   1.111  20.346 -1.4070  1.7334  0.2411
  124OSM    C3S13153   4.363   1.068  20.549 -0.6172 -0.0627  0.2123
  124OSM    H3S13154   4.323   1.028  20.644 -0.1049 -1.6877 -0.2081
  124OSM     O313155   4.412   1.199  20.573 -0.5222  0.5265  0.6161
  124OSM    HO313156   4.370   1.256  20.508 -0.4450  1.6227  1.4951
  124OSM    C4S13157   4.484   0.994  20.497  0.2448  0.1784  0.5556
  124OSM    H4S13158   4.517   1.041  20.403  0.7374 -0.3293  0.4639
  124OSM    C5S13159   4.551   0.896  20.556  0.3973 -0.0621  0.7221
  124OSM    H5S13160   4.517   0.867  20.657 -0.4440  1.1989  0.8162
  124OSM    C6S13161   4.670   0.822  20.506  0.0105 -0.0784  0.1545
  124OSM    H6S13162   4.756   0.854  20.567  0.3885  0.1020 -0.4632
  124OSM    H6T13163   4.694   0.869  20.408 -0.9905  1.5880  0.6645
  124OSM    C7S13164   4.672   0.669  20.484  0.4598  0.2293 -0.5077
  124OSM    H7S13165   4.775   0.632  20.466  0.2266  0.2540 -2.0745
  124OSM    H7T13166   4.620   0.625  20.396 -2.0666 -0.4885  1.2226
  124OSM    C8S13167   4.619   0.580  20.600 -0.1941 -0.3694  0.2071
  124OSM    H8S13168   4.509   0.595  20.605 -0.2629 -0.7294 -0.2310
  124OSM    H8T13169   4.663   0.605  20.699  0.4424 -0.0206 -0.1591
  124OSM    C9S13170   4.640   0.432  20.557 -1.0264 -0.6068  0.7036
  124OSM    H9S13171   4.749   0.416  20.551 -1.2018 -2.0341  0.8269
  124OSM    H9T13172   4.606   0.416  20.452  1.2625  0.0958 -0.2079
  124OSM   C10S13173   4.575   0.330  20.650  0.0347  0.5352  0.6617
  124OSM   H10S13174   4.595   0.230  20.608 -1.5497  0.4580  0.0166
  124OSM   H10T13175   4.467   0.356  20.653  0.3565  2.3704 -1.2908
  124OSM   C11S13176   4.624   0.331  20.787 -0.3212 -0.1875 -0.5921
  124OSM   H11S13177   4.624   0.436  20.822  1.4008  0.0177 -1.0986
  124OSM   H11T13178   4.732   0.307  20.776  0.1659  1.8295 -0.6850
  124OSM   C12S13179   4.566   0.238  20.890 -0.1851  0.4219 -0.0148
  124OSM   H12S13180   4.456   0.249  20.873 -0.4414  0.0892  1.3613
  124OSM   H12T13181   4.592   0.280  20.989  0.3060 -1.9576  0.9259
  124OSM   C13S13182   4.622   0.097  20.884  0.3026 -0.2575 -0.6441
  124OSM   H13S13183   4.733   0.104  20.888  0.2274  1.6551 -0.9006
  124OSM   H13T13184   4.615   0.068  20.777 -0.6542  0.0505 -0.6736
  124OSM   C14S13185   4.554   0.005  20.985  0.0353  0.4681  0.7238
  124OSM   H14S13186   4.445   0.015  20.969 -0.3962 -0.3524  2.8913
  124OSM   H14T13187   4.572   0.042  21.088  1.8744 -0.6541  0.8477
  124OSM   C15S13188   4.582  -0.139  20.968  0.1141 -0.0188  0.2328
  124OSM   H15S13189   4.566  -0.171  20.863 -1.3326 -1.6977  0.9120
  124OSM   H15T13190   4.514  -0.191  21.038  0.8470  0.1615  1.1042
  124OSM   C16S13191   4.725  -0.182  21.002 -0.0912  0.4321 -0.2454
  124OSM   H16S13192   4.756  -0.136  21.098 -3.1490  0.5133  0.8346
  124OSM   H16T13193   4.798  -0.162  20.921 -1.9838  0.9700 -1.9171
  124OSM   C17S13194   4.731  -0.331  21.022  0.1474  0.3452 -0.0873
  124OSM   H17S13195   4.682  -0.388  20.941  0.4485 -1.4350  0.9126
  124OSM   H17T13196   4.667  -0.350  21.111 -0.4299  1.5754 -0.2277
  124OSM   C18S13197   4.875  -0.387  21.042  0.6376  0.0491  0.1667
  124OSM   H18S13198   4.928  -0.335  21.124  1.4413  0.4455 -0.5908
  124OSM   H18T13199   4.949  -0.368  20.961  1.5813 -0.2851  0.9348
  124OSM   H18U13200   4.868  -0.495  21.066 -1.5406  0.6205  2.6090
  124OSM    C1F13201   4.116   0.901  20.315 -0.4244  0.0895 -0.0304
  124OSM     OF13202   4.108   0.986  20.232  0.2123  0.3970  0.9110
  124OSM    C2F13203   4.031   0.773  20.329 -0.7681 -0.3028 -0.2135
  124OSM    H2F13204   3.971   0.781  20.422  1.5112 -0.5318  1.3553
  124OSM    H2G13205   4.083   0.675  20.340 -1.3558 -0.6459 -0.4481
  124OSM    C3F13206   3.952   0.761  20.192 -0.6167 -1.0058  0.1555
  124OSM    H3F13207   4.021   0.775  20.107 -2.0329  0.0307 -0.8868
  124OSM    H3G13208   3.880   0.846  20.183 -3.0089 -2.8759  0.6862
  124OSM    C4F13209   3.875   0.631  20.187  0.3470 -0.8106  0.6453
  124OSM    H4F13210   3.954   0.565  20.147  1.1360  1.4160 -1.7648
  124OSM    H4G13211   3.795   0.648  20.112 -0.8807 -1.4068  1.7891
  124OSM    C5F13212   3.817   0.578  20.317  0.7880  0.2894  0.1405
  124OSM    H5F13213   3.899   0.539  20.382  0.8267 -2.6458 -1.4865
  124OSM    H5G13214   3.764   0.483  20.296 -1.5362  1.6783 -0.5507
  124OSM    C6F13215   3.715   0.668  20.384 -0.2860  0.4613  0.2933
  124OSM    H6F13216   3.653   0.714  20.304  1.7339  1.2742 -0.8857
  124OSM    H6G13217   3.774   0.752  20.427  0.3950  0.3947 -0.4738
  124OSM    C7F13218   3.610   0.595  20.474 -1.2521  0.7950 -0.3889
  124OSM    H7F13219   3.550   0.531  20.407 -3.4546  2.1276  0.2201
  124OSM    H7G13220   3.560   0.682  20.521 -1.0721  0.8290 -0.2561
  124OSM    C8F13221   3.676   0.505  20.583  0.7165 -0.1064  0.1080
  124OSM    H8F13222   3.732   0.560  20.662 -0.2049 -1.3218  1.6843
  124OSM    H8G13223   3.744   0.434  20.530  0.7557  1.7829 -2.5624
  124OSM    C9F13224   3.568   0.439  20.658 -0.5138 -0.3402 -0.0021
  124OSM    H9F13225   3.470   0.489  20.659 -1.2441 -1.7305  1.1947
  124OSM   C10F13226   3.592   0.342  20.749  0.0197 -0.3976 -0.5877
  124OSM   H10F13227   3.510   0.298  20.808  0.2972  0.6609  0.6480
  124OSM   C11F13228   3.734   0.288  20.789 -0.4927  0.9139  0.1255
  124OSM   H11F13229   3.747   0.308  20.897  0.4760  2.0747 -0.1779
  124OSM   H11G13230   3.817   0.320  20.722 -1.5205 -0.4269 -1.8960
  124OSM   C12F13231   3.762   0.133  20.773  0.1140  0.6074  0.1109
  124OSM   H12F13232   3.679   0.082  20.826 -1.9732  2.0615 -1.5792
  124OSM   H12G13233   3.853   0.116  20.834  0.4467  1.9968  0.0429
  124OSM   C13F13234   3.771   0.088  20.631 -0.7555 -0.6737  0.8022
  124OSM   H13F13235   3.821   0.158  20.561 -3.0772 -0.7784 -1.1033
  124OSM   H13G13236   3.668   0.072  20.592 -1.6153  1.1213  2.1888
  124OSM   C14F13237   3.853  -0.036  20.619  0.1344 -0.2796 -0.6194
  124OSM   H14F13238   3.818  -0.113  20.690  0.0750 -0.7495 -1.1497
  124OSM   H14G13239   3.963  -0.030  20.628  0.1200 -1.9578  1.2206
  124OSM   C15F13240   3.830  -0.113  20.489  0.1781 -0.2918  0.4111
  124OSM   H15F13241   3.724  -0.119  20.457  0.2468 -1.4833  0.3659
  124OSM   H15G13242   3.862  -0.218  20.502  0.2662 -0.2594  0.4538
  124OSM   C16F13243   3.911  -0.050  20.365  1.0772 -0.1545 -0.2964
  124OSM   H16F13244   4.002   0.004  20.400  0.0953  0.8473  0.8148
  124OSM   H16G13245   3.841   0.026  20.324  0.7433  0.3410  1.1055
  124OSM   C17F13246   3.937  -0.149  20.251  0.6183 -0.3362 -0.1771
  124OSM   H17F13247   4.013  -0.228  20.273  1.4038 -1.1958 -4.9617
  124OSM   H17G13248   3.990  -0.092  20.172  2.1516  1.1202  1.7848
  124OSM   C18F13249   3.802  -0.190  20.191  0.0830 -0.1720  0.5629
  124OSM   H18F13250   3.761  -0.097  20.146  0.3087  0.4710  1.6639
  124OSM   H18G13251   3.729  -0.242  20.256  0.5105 -0.0544  1.1451
  124OSM   H18H13252   3.828  -0.263  20.111 -0.6120  1.8950 -1.6645
  125OSM      N13253   1.998   1.583  16.620 -0.4717 -0.3144 -0.3751
  125OSM    C1513254   1.882   1.674  16.643  0.4655  0.0665 -0.0051
  125OSM   H15A13255   1.856   1.671  16.748 -1.7590  0.4811 -0.5000
  125OSM   H15B13256   1.796   1.646  16.584  1.5484  1.2117 -2.2167
  125OSM   H15C13257   1.900   1.778  16.623  0.2784  0.5659  2.1867
  125OSM    C1413258   1.978   1.511  16.486 -0.4151  0.4351 -0.3336
  125OSM   H14A13259   2.050   1.431  16.475 -1.1017 -0.0913 -1.1066
  125OSM   H14B13260   1.970   1.578  16.402 -3.0742 -1.0020 -1.3326
  125OSM   H14C13261   1.884   1.458  16.492  0.5150 -1.3402 -0.6309
  125OSM    C1313262   2.132   1.653  16.622  0.5196  0.2963 -0.7737
  125OSM   H13A13263   2.142   1.698  16.719 -1.3043  2.2958 -1.4491
  125OSM   H13B13264   2.144   1.725  16.543  2.4364 -1.2877 -2.0454
  125OSM   H13C13265   2.214   1.587  16.596  0.8474  0.1649  0.5486
  125OSM    C1213266   1.999   1.478  16.728  0.4817 -0.4481 -0.1924
  125OSM   H12A13267   1.909   1.417  16.726  0.2468 -0.0759 -1.6526
  125OSM   H12B13268   1.994   1.530  16.823  0.5322 -1.0448  0.1425
  125OSM    C1113269   2.113   1.368  16.740  0.3455  0.4829 -0.3963
  125OSM   H11A13270   2.084   1.314  16.832 -0.8562  0.5689 -0.7091
  125OSM   H11B13271   2.212   1.418  16.746  0.3079  0.5997 -0.7100
  125OSM      P13272   1.998   1.176  16.613  0.4732 -0.4639  0.7445
  125OSM    O1313273   1.856   1.225  16.590  0.1433  0.4886  0.2848
  125OSM    O1413274   2.039   1.074  16.515  0.4259 -0.2689 -0.1314
  125OSM    O1113275   2.012   1.105  16.756 -0.6842  0.1301  0.3859
  125OSM    O1213276   2.106   1.293  16.611 -0.8137  0.6882 -0.6690
  125OSM    C1S13277   1.906   1.102  16.853  0.0171 -0.0867 -0.1946
  125OSM    H1S13278   1.810   1.075  16.803 -0.9942  1.7184  0.6840
  125OSM    H1T13279   1.901   1.196  16.911  1.7998  0.2597 -0.5343
  125OSM     NF13280   1.810   0.971  17.029  0.1164  0.2690 -0.1006
  125OSM    HNF13281   1.798   0.995  17.125  0.7072 -0.2868  0.1204
  125OSM    C2S13282   1.937   0.996  16.963  0.2173 -0.6780  0.2120
  125OSM    H2S13283   1.976   0.908  16.908  1.1911  0.6879 -1.4134
  125OSM    C3S13284   2.053   1.052  17.049  0.7989 -0.4323 -0.0544
  125OSM    H3S13285   2.015   1.147  17.092  1.1780  0.3323 -1.3422
  125OSM     O313286   2.163   1.083  16.963 -0.5175  0.0675  0.1531
  125OSM    HO313287   2.114   1.101  16.883 -0.5433  0.9203  0.3516
  125OSM    C4S13288   2.085   0.965  17.164  0.3628 -0.1005 -0.2500
  125OSM    H4S13289   2.007   0.977  17.241  0.5832  1.1402 -0.1984
  125OSM    C5S13290   2.184   0.884  17.190 -0.1294  0.7325  0.0674
  125OSM    H5S13291   2.271   0.885  17.122 -0.9432  1.1742 -1.0038
  125OSM    C6S13292   2.194   0.805  17.319 -0.1701  0.8113  0.2903
  125OSM    H6S13293   2.275   0.850  17.380  2.0220 -3.1403  0.6001
  125OSM    H6T13294   2.239   0.711  17.280 -0.1567  0.8118  0.3046
  125OSM    C7S13295   2.063   0.783  17.398 -0.2633 -0.3044 -0.0333
  125OSM    H7S13296   1.986   0.738  17.332 -1.9712 -2.4914  3.1338
  125OSM    H7T13297   2.025   0.882  17.431 -0.7240 -0.3571 -0.3850
  125OSM    C8S13298   2.090   0.681  17.511  0.4836 -0.7719  0.2938
  125OSM    H8S13299   2.182   0.702  17.569  3.3807 -4.0852 -2.6223
  125OSM    H8T13300   2.116   0.579  17.474  0.2095 -0.6573 -0.2329
  125OSM    C9S13301   1.975   0.671  17.612 -0.1390 -0.3134  0.4447
  125OSM    H9S13302   1.888   0.643  17.548  0.0315  0.2007 -0.0210
  125OSM    H9T13303   1.963   0.774  17.651 -2.4276  0.1541 -1.2510
  125OSM   C10S13304   1.999   0.571  17.724  1.3070 -0.4165  0.4965
  125OSM   H10S13305   2.083   0.618  17.779  0.3996  3.1862 -0.9367
  125OSM   H10T13306   2.037   0.478  17.678 -0.2982 -0.5028 -0.7574
  125OSM   C11S13307   1.882   0.555  17.824 -0.6059  0.6506  0.3256
  125OSM   H11S13308   1.798   0.507  17.770 -0.3284 -0.2535  0.6787
  125OSM   H11T13309   1.848   0.656  17.855 -1.5197  0.5807 -0.4201
  125OSM   C12S13310   1.911   0.465  17.947 -0.3782  0.4571 -0.7227
  125OSM   H12S13311   1.999   0.505  18.003  0.5515 -0.1643 -1.6930
  125OSM   H12T13312   1.947   0.362  17.925  2.2646  0.7619  1.5731
  125OSM   C13S13313   1.790   0.453  18.043 -0.0838 -0.2961  0.2672
  125OSM   H13S13314   1.820   0.422  18.145 -0.8552 -0.2657  0.5109
  125OSM   H13T13315   1.725   0.380  17.991  1.9729 -0.2341 -2.6396
  125OSM   C14S13316   1.701   0.579  18.050 -0.6221 -0.1474  0.4058
  125OSM   H14S13317   1.665   0.599  17.947 -0.6820 -0.7076  0.3154
  125OSM   H14T13318   1.764   0.666  18.079 -0.8500 -0.9814  3.8382
  125OSM   C15S13319   1.584   0.565  18.140  0.4734 -0.2824 -0.8801
  125OSM   H15S13320   1.578   0.653  18.209 -0.2997 -0.0178 -1.2721
  125OSM   H15T13321   1.586   0.472  18.201  0.1481  0.5424  0.4419
  125OSM   C16S13322   1.451   0.563  18.066 -0.0581  0.1293  0.1048
  125OSM   H16S13323   1.452   0.469  18.008  2.6896  0.1911 -0.0653
  125OSM   H16T13324   1.447   0.648  17.994 -0.1934  1.6471  1.8189
  125OSM   C17S13325   1.324   0.566  18.150  1.3248 -0.3862 -0.0764
  125OSM   H17S13326   1.326   0.647  18.225 -0.3099  1.1193 -1.5514
  125OSM   H17T13327   1.305   0.466  18.195  0.4880 -0.1168  0.1875
  125OSM   C18S13328   1.198   0.592  18.065  0.2159  0.3093  0.3312
  125OSM   H18S13329   1.100   0.590  18.118  0.0441 -2.1908  0.0433
  125OSM   H18T13330   1.200   0.519  17.982 -0.3217  0.6452  0.0153
  125OSM   H18U13331   1.207   0.692  18.017  2.2266  0.6000  1.2279
  125OSM    C1F13332   1.715   0.899  16.971 -0.7291  0.7768 -0.1972
  125OSM     OF13333   1.742   0.827  16.876  0.2038  0.8376 -0.0771
  125OSM    C2F13334   1.576   0.896  17.036 -0.9218  0.1591 -0.2189
  125OSM    H2F13335   1.565   0.999  17.076  1.3620  1.2148 -2.0408
  125OSM    H2G13336   1.568   0.814  17.110  2.0094  0.0770  0.0928
  125OSM    C3F13337   1.451   0.880  16.937 -0.2708 -0.2017  0.2189
  125OSM    H3F13338   1.441   0.770  16.934  1.6567 -0.3711 -0.9465
  125OSM    H3G13339   1.472   0.929  16.840  1.7114 -0.1500  0.6318
  125OSM    C4F13340   1.330   0.949  16.989  0.3423  0.3548 -0.3990
  125OSM    H4F13341   1.242   0.930  16.924 -0.6081 -1.8533  1.4035
  125OSM    H4G13342   1.354   1.058  16.990 -0.6004  0.5883 -1.3038
  125OSM    C5F13343   1.294   0.909  17.130 -0.6139  0.2989  0.1618
  125OSM    H5F13344   1.387   0.916  17.190 -0.8234  1.3694  0.3737
  125OSM    H5G13345   1.259   0.803  17.132 -0.5000  0.2100 -1.3652
  125OSM    C6F13346   1.181   1.001  17.189  0.3053 -0.5354 -0.3985
  125OSM    H6F13347   1.083   1.002  17.136 -1.0153 -0.1870  1.9333
  125OSM    H6G13348   1.221   1.103  17.171  1.0820 -0.5155  1.3294
  125OSM    C7F13349   1.162   0.964  17.337  0.4858 -0.2206  0.3373
  125OSM    H7F13350   1.111   1.052  17.382  0.2599 -1.0770  1.8019
  125OSM    H7G13351   1.261   0.953  17.387  0.5169 -2.3602 -0.1094
  125OSM    C8F13352   1.072   0.841  17.373  0.5054 -0.0719  0.1557
  125OSM    H8F13353   1.068   0.817  17.481  2.3142 -0.1580  0.2382
  125OSM    H8G13354   1.128   0.760  17.320  0.6437 -0.3203  0.6819
  125OSM    C9F13355   0.937   0.849  17.310  0.0204 -0.6501 -0.5643
  125OSM    H9F13356   0.905   0.955  17.308 -1.5096 -1.0561  0.4960
  125OSM   C10F13357   0.865   0.746  17.259  0.4195  0.2811 -0.2652
  125OSM   H10F13358   0.760   0.764  17.233 -0.4517 -1.4084  1.7685
  125OSM   C11F13359   0.893   0.606  17.244  0.0793  0.8530 -0.0620
  125OSM   H11F13360   0.810   0.556  17.298 -0.9875  0.8919 -1.6008
  125OSM   H11G13361   0.981   0.583  17.308 -0.6200  4.5007  2.4969
  125OSM   C12F13362   0.906   0.570  17.102 -0.4674  0.7076  0.7698
  125OSM   H12F13363   0.819   0.596  17.038  0.3704  0.7665 -0.3986
  125OSM   H12G13364   0.919   0.460  17.090  1.0367  0.8523  0.9131
  125OSM   C13F13365   1.033   0.627  17.029  0.3407  0.1839 -0.0536
  125OSM   H13F13366   1.120   0.619  17.098  0.0368  2.9621  0.7698
  125OSM   H13G13367   1.021   0.733  16.998 -1.2325  0.0176 -0.0936
  125OSM   C14F13368   1.069   0.556  16.900 -0.6695  0.0337  0.3156
  125OSM   H14F13369   0.981   0.553  16.832 -1.2945 -3.7071  1.0451
  125OSM   H14G13370   1.110   0.453  16.908  3.3186  1.1491 -2.6113
  125OSM   C15F13371   1.180   0.642  16.836  1.0547 -0.5081  0.4830
  125OSM   H15F13372   1.257   0.651  16.916  1.6633  0.1075 -0.1660
  125OSM   H15G13373   1.137   0.740  16.806  2.8265  0.1197 -0.0931
  125OSM   C16F13374   1.231   0.575  16.705  0.3029 -0.2476 -0.1203
  125OSM   H16F13375   1.150   0.569  16.629 -0.7217 -0.5495  0.9669
  125OSM   H16G13376   1.254   0.470  16.731  0.6799 -0.1704 -0.1461
  125OSM   C17F13377   1.363   0.642  16.660  0.2422  0.4424  0.0304
  125OSM   H17F13378   1.415   0.578  16.585  1.7437  0.0169  1.3866
  125OSM   H17G13379   1.426   0.633  16.751 -1.1143  0.9599  1.0478
  125OSM   C18F13380   1.350   0.795  16.629 -0.5278  0.6242 -0.2473
  125OSM   H18F13381   1.453   0.837  16.624 -0.6180  0.8416 -0.2735
  125OSM   H18G13382   1.294   0.850  16.707  0.8901  0.9273  0.5850
  125OSM   H18H13383   1.291   0.810  16.536  1.2653  0.2354 -1.5176
  126OSM      N13384   2.890   1.785  18.432 -0.0419 -0.8720  0.1009
  126OSM    C1513385   2.950   1.907  18.513  0.0742 -0.4735 -0.1280
  126OSM   H15A13386   2.897   1.996  18.485  1.0825  0.3241  0.4192
  126OSM   H15B13387   3.056   1.916  18.496  0.0094  2.5040  0.5447
  126OSM   H15C13388   2.948   1.885  18.619 -0.2515 -1.4936 -0.3354
  126OSM    C1413389   2.876   1.814  18.283 -0.0828 -0.7260 -0.6434
  126OSM   H14A13390   2.779   1.856  18.260 -0.1748  0.2277  1.2204
  126OSM   H14B13391   2.919   1.726  18.238  2.2652  0.1985 -0.3743
  126OSM   H14C13392   2.949   1.890  18.259 -1.2768  0.3680 -0.8925
  126OSM    C1313393   2.993   1.675  18.445  1.0982  0.7055 -0.6284
  126OSM   H13A13394   3.006   1.640  18.546  1.7635 -0.7800 -1.1906
  126OSM   H13B13395   3.087   1.706  18.402  0.8054  1.9733 -0.3736
  126OSM   H13C13396   2.966   1.583  18.395  0.3555  0.8291 -0.4674
  126OSM    C1213397   2.757   1.737  18.489  0.1978 -0.3849 -0.0543
  126OSM   H12A13398   2.739   1.639  18.445  3.0580 -0.3869 -1.4136
  126OSM   H12B13399   2.684   1.793  18.432  2.0381 -0.4553 -2.6517
  126OSM    C1113400   2.730   1.729  18.641  0.6234  0.0666 -0.0931
  126OSM   H11A13401   2.819   1.672  18.677  2.4139  2.7382  0.0220
  126OSM   H11B13402   2.638   1.669  18.656 -0.0059  0.8855 -0.6680
  126OSM      P13403   2.605   1.956  18.656 -0.3245  0.0109 -0.1933
  126OSM    O1313404   2.505   1.894  18.567 -0.1833 -0.1734  0.3515
  126OSM    O1413405   2.564   2.010  18.790  0.2654 -0.1117 -0.4136
  126OSM    O1113406   2.683   2.068  18.576 -0.5073 -0.6453 -0.7911
  126OSM    O1213407   2.723   1.857  18.687  0.3527  0.9310 -0.6503
  126OSM    C1S13408   2.707   2.195  18.635  0.3351  0.2946  0.2359
  126OSM    H1S13409   2.744   2.186  18.739 -0.1902 -0.8318  0.3388
  126OSM    H1T13410   2.611   2.251  18.640  0.7703  0.9737  2.9427
  126OSM     NF13411   2.831   2.401  18.621 -0.4162  0.4379 -0.2599
  126OSM    HNF13412   2.791   2.486  18.588  0.8217  1.1375 -0.0121
  126OSM    C2S13413   2.803   2.280  18.552  0.4353  0.4645 -0.1334
  126OSM    H2S13414   2.895   2.219  18.553  0.9902  1.2851  0.5350
  126OSM    C3S13415   2.750   2.290  18.403  0.0870  0.1071  0.3401
  126OSM    H3S13416   2.647   2.329  18.414  0.0722  0.1184  0.1640
  126OSM     O313417   2.747   2.171  18.335  0.0641  0.6836 -0.4214
  126OSM    HO313418   2.741   2.111  18.410  1.0093 -2.2218 -2.5004
  126OSM    C4S13419   2.839   2.386  18.325  0.6354 -0.2006 -0.7423
  126OSM    H4S13420   2.944   2.359  18.306  1.2883  1.3972  0.3340
  126OSM    C5S13421   2.792   2.501  18.268  1.0393  0.8504  1.2800
  126OSM    H5S13422   2.684   2.522  18.269  0.9734  0.7966 -0.9552
  126OSM    C6S13423   2.860   2.611  18.185  0.4700  0.3421 -0.3291
  126OSM    H6S13424   2.826   2.702  18.239 -2.6113 -1.5897  1.2721
  126OSM    H6T13425   2.817   2.608  18.082  1.6492  0.8524 -0.8492
  126OSM    C7S13426   3.015   2.599  18.172  0.3583 -0.1865  0.0446
  126OSM    H7S13427   3.037   2.508  18.112 -2.6565  0.0975 -1.6780
  126OSM    H7T13428   3.053   2.587  18.276  0.9696 -4.3200 -0.4829
  126OSM    C8S13429   3.089   2.722  18.123 -0.8830  0.8681 -0.2265
  126OSM    H8S13430   3.196   2.702  18.147 -1.0505  1.0707  0.7224
  126OSM    H8T13431   3.059   2.812  18.181  2.7154  2.0894  0.0289
  126OSM    C9S13432   3.083   2.747  17.972  0.1136 -1.1722 -0.2025
  126OSM    H9S13433   2.983   2.784  17.942 -0.5297  0.0061  2.9520
  126OSM    H9T13434   3.093   2.645  17.931  0.8090 -1.7523  1.3212
  126OSM   C10S13435   3.189   2.847  17.919 -0.0362 -0.0488  0.0974
  126OSM   H10S13436   3.205   2.832  17.810  1.8268  2.6190 -0.1008
  126OSM   H10T13437   3.282   2.823  17.975 -0.2252 -1.1465 -0.0332
  126OSM   C11S13438   3.134   2.990  17.937 -0.3085  0.3088 -0.6066
  126OSM   H11S13439   3.092   3.009  18.038  0.6844  3.7568 -0.7229
  126OSM   H11T13440   3.061   3.002  17.854  1.4964  1.2407 -2.1389
  126OSM   C12S13441   3.251   3.088  17.910 -0.1019 -0.5331  0.2438
  126OSM   H12S13442   3.277   3.065  17.804 -2.5176 -1.7046 -0.1798
  126OSM   H12T13443   3.337   3.060  17.974  2.4474  0.5720 -2.4284
  126OSM   C13S13444   3.228   3.242  17.925 -0.7251  0.1031  0.0473
  126OSM   H13S13445   3.325   3.295  17.915 -0.1757 -0.8268  0.3383
  126OSM   H13T13446   3.188   3.266  18.026  0.1613  0.5699  0.2953
  126OSM   C14S13447   3.132   3.303  17.810  0.7262 -0.2072 -1.1231
  126OSM   H14S13448   3.054   3.227  17.790 -0.3870  0.7021 -0.4117
  126OSM   H14T13449   3.189   3.323  17.717  1.9721  2.5363  0.1074
  126OSM   C15S13450   3.065   3.436  17.865 -0.5254  0.1793  0.3260
  126OSM   H15S13451   3.009   3.412  17.957  1.6979 -1.5337  1.3241
  126OSM   H15T13452   2.993   3.471  17.788  1.5238  0.7211 -1.4703
  126OSM   C16S13453   3.177   3.540  17.888  0.1206 -0.1251 -0.0710
  126OSM   H16S13454   3.191   3.590  17.789 -1.4561 -0.8633 -0.7065
  126OSM   H16T13455   3.265   3.486  17.928 -0.1759  0.7849  1.9223
  126OSM   C17S13456   3.126   3.649  17.993  0.4488 -0.1648  0.1749
  126OSM   H17S13457   3.153   3.620  18.096 -2.1413 -0.3527  0.8723
  126OSM   H17T13458   3.015   3.652  17.996  0.4869  1.6827  1.3193
  126OSM   C18S13459   3.179   3.785  17.974 -0.1983  0.1596  0.2344
  126OSM   H18S13460   3.283   3.806  18.008 -1.1455  0.0839  3.5139
  126OSM   H18T13461   3.114   3.857  18.028  0.3069  1.3827 -0.7365
  126OSM   H18U13462   3.185   3.799  17.864 -1.3531  0.5687  0.2038
  126OSM    C1F13463   2.914   2.407  18.736  0.4281 -0.0636  0.0628
  126OSM     OF13464   2.957   2.303  18.789 -0.3793  0.1882 -0.4222
  126OSM    C2F13465   2.929   2.538  18.808 -0.3926 -0.6974 -0.4965
  126OSM    H2F13466   2.829   2.582  18.828 -0.1104 -0.1349 -0.3041
  126OSM    H2G13467   2.976   2.607  18.734 -1.0034 -0.0654 -0.3034
  126OSM    C3F13468   3.027   2.536  18.934  0.2075 -0.6768 -0.4236
  126OSM    H3F13469   3.115   2.472  18.908  2.0339 -0.3575  4.0734
  126OSM    H3G13470   2.985   2.491  19.026 -0.2926  2.1797  0.8208
  126OSM    C4F13471   3.070   2.681  18.985 -0.5609 -0.5935  0.5856
  126OSM    H4F13472   3.119   2.665  19.083  0.9729 -2.4426 -0.4173
  126OSM    H4G13473   2.976   2.741  18.992  0.7122  1.7744 -1.3462
  126OSM    C5F13474   3.164   2.746  18.889 -0.4731 -0.1522  0.4131
  126OSM    H5F13475   3.121   2.768  18.789 -0.9461  0.3466  0.7260
  126OSM    H5G13476   3.259   2.690  18.878  0.9861  2.3525 -0.7857
  126OSM    C6F13477   3.216   2.872  18.948 -0.2141 -0.3032  0.7350
  126OSM    H6F13478   3.273   2.848  19.041 -0.0347 -1.7524  0.2794
  126OSM    H6G13479   3.137   2.946  18.970  0.5280  0.0424  2.3928
  126OSM    C7F13480   3.318   2.935  18.846 -0.5734  0.4507 -0.5328
  126OSM    H7F13481   3.262   2.920  18.751 -1.2851 -0.7447  0.0506
  126OSM    H7G13482   3.411   2.874  18.849 -0.8940 -0.0670 -0.8240
  126OSM    C8F13483   3.355   3.079  18.872 -0.6272 -0.0790  0.5060
  126OSM    H8F13484   3.456   3.095  18.829 -0.2197  1.2208  1.8530
  126OSM    H8G13485   3.385   3.100  18.977 -0.0417  2.4608 -0.1080
  126OSM    C9F13486   3.262   3.188  18.815 -0.5165 -0.2900 -0.6560
  126OSM    H9F13487   3.168   3.145  18.778 -1.1729 -0.4678  1.1530
  126OSM   C10F13488   3.293   3.322  18.808  0.4135  0.6925  1.1175
  126OSM   H10F13489   3.210   3.386  18.777  1.4300  1.3646 -0.3466
  126OSM   C11F13490   3.423   3.391  18.843 -0.4348  0.0483 -0.2880
  126OSM   H11F13491   3.444   3.475  18.773 -2.6103 -0.1447 -1.2597
  126OSM   H11G13492   3.507   3.319  18.833  0.9730  1.8123 -1.9902
  126OSM   C12F13493   3.426   3.428  18.988 -0.4029 -0.8696 -0.1713
  126OSM   H12F13494   3.435   3.334  19.047  1.8492  1.1073  3.0105
  126OSM   H12G13495   3.339   3.491  19.013 -0.4785 -1.0316 -0.0244
  126OSM   C13F13496   3.550   3.500  19.036 -0.3430  1.0673 -0.7041
  126OSM   H13F13497   3.565   3.598  18.987 -0.1165  2.1151  1.3556
  126OSM   H13G13498   3.640   3.439  19.009  0.6307  2.2569 -0.2352
  126OSM   C14F13499   3.570   3.528  19.188  0.1748  0.4923 -0.8012
  126OSM   H14F13500   3.548   3.439  19.250 -0.9691  0.8566 -0.6603
  126OSM   H14G13501   3.492   3.599  19.223  1.3165  1.1806  0.3942
  126OSM   C15F13502   3.703   3.580  19.232 -0.7313 -0.9061  0.1765
  126OSM   H15F13503   3.776   3.583  19.149 -2.1001 -0.6728 -1.0643
  126OSM   H15G13504   3.745   3.512  19.310 -0.6540 -0.2996  0.6759
  126OSM   C16F13505   3.692   3.709  19.310 -0.0185 -0.1521  0.2916
  126OSM   H16F13506   3.782   3.715  19.374  1.5886  2.5273 -1.9993
  126OSM   H16G13507   3.600   3.706  19.373  0.6560 -0.3905  1.2852
  126OSM   C17F13508   3.692   3.835  19.227  0.0599  0.2995 -0.2043
  126OSM   H17F13509   3.626   3.831  19.138  0.9497  2.3641 -1.0057
  126OSM   H17G13510   3.796   3.847  19.189  0.0001 -0.9969 -0.8525
  126OSM   C18F13511   3.673   3.969  19.297  0.1456  0.4696  0.2055
  126OSM   H18F13512   3.689   4.054  19.228 -0.4582  1.3254  1.0806
  126OSM   H18G13513   3.748   3.970  19.379 -0.7480 -0.0431  1.0551
  126OSM   H18H13514   3.571   3.990  19.337  0.9603  1.5783  1.8166
  127OSM      N13515   0.267   1.798  20.179  0.4761  0.1712  0.5791
  127OSM    C1513516   0.374   1.863  20.264  0.1187  0.3375 -0.4800
  127OSM   H15A13517   0.423   1.786  20.321  2.0348  1.2084 -0.8739
  127OSM   H15B13518   0.335   1.948  20.319  2.5323  1.7251 -0.7883
  127OSM   H15C13519   0.452   1.900  20.199  0.1316  1.7487  0.2975
  127OSM    C1413520   0.333   1.701  20.089 -0.3822 -0.8936  0.3894
  127OSM   H14A13521   0.267   1.663  20.012  0.2730  0.4190 -0.8724
  127OSM   H14B13522   0.363   1.620  20.154 -1.4277  0.1964  2.3217
  127OSM   H14C13523   0.424   1.728  20.038 -0.4433 -0.6630  0.4028
  127OSM    C1313524   0.173   1.716  20.263 -0.0554  0.1368  0.3070
  127OSM   H13A13525   0.111   1.650  20.205 -0.2369  1.4531 -1.0728
  127OSM   H13B13526   0.123   1.783  20.332 -2.0209  0.4559 -1.3351
  127OSM   H13C13527   0.229   1.654  20.331  0.3389 -0.1148 -0.2514
  127OSM    C1213528   0.185   1.901  20.095 -0.8699 -0.4978 -0.2633
  127OSM   H12A13529   0.156   1.982  20.160 -2.2309 -1.0915 -0.1017
  127OSM   H12B13530   0.093   1.850  20.071 -1.1733  1.0941 -2.9043
  127OSM    C1113531   0.251   1.965  19.966  0.4554 -0.9852  0.6180
  127OSM   H11A13532   0.295   1.888  19.900  0.3767  0.0271 -0.6378
  127OSM   H11B13533   0.343   2.020  19.994 -0.0866 -0.3081  1.0940
  127OSM      P13534   0.117   2.183  19.952  0.4569  0.3520  0.1338
  127OSM    O1313535  -0.026   2.212  19.920  0.1296 -0.2908 -0.0434
  127OSM    O1413536   0.165   2.208  20.090  0.0604  0.4685  0.7183
  127OSM    O1113537   0.213   2.267  19.857  0.2571 -0.1502 -0.5493
  127OSM    O1213538   0.159   2.043  19.895 -0.0201 -0.3340  0.1345
  127OSM    C1S13539   0.195   2.292  19.718 -1.1232 -0.2589 -0.6421
  127OSM    H1S13540   0.088   2.284  19.686 -2.3665  2.0204  2.4698
  127OSM    H1T13541   0.265   2.217  19.675  0.9824  0.8085  0.7690
  127OSM     NF13542   0.167   2.471  19.538  0.0348 -0.6319 -0.4683
  127OSM    HNF13543   0.226   2.464  19.458 -0.7056 -2.4618 -0.8963
  127OSM    C2S13544   0.227   2.428  19.668 -0.9478  0.7651  0.6936
  127OSM    H2S13545   0.191   2.502  19.743 -2.3839  0.8844 -0.0892
  127OSM    C3S13546   0.383   2.431  19.669 -0.2539  0.2220  0.5655
  127OSM    H3S13547   0.421   2.354  19.599  0.8091  0.6211  0.6836
  127OSM     O313548   0.438   2.403  19.800 -0.3336 -0.2470  0.3436
  127OSM    HO313549   0.365   2.365  19.849 -0.1109  2.3989  3.0391
  127OSM    C4S13550   0.437   2.565  19.619 -0.1757  0.1653 -0.1867
  127OSM    H4S13551   0.423   2.643  19.695  0.2919  1.1697 -1.1041
  127OSM    C5S13552   0.502   2.594  19.503  0.3555  0.0237  0.1528
  127OSM    H5S13553   0.527   2.519  19.427 -0.3223  1.2469 -1.3551
  127OSM    C6S13554   0.566   2.734  19.479 -0.0217  0.2848  0.1796
  127OSM    H6S13555   0.610   2.734  19.378 -1.5146  0.7642 -0.4954
  127OSM    H6T13556   0.650   2.755  19.549 -0.4568  1.9329  0.2414
  127OSM    C7S13557   0.469   2.848  19.501 -0.3835  0.3784  0.4879
  127OSM    H7S13558   0.470   2.883  19.606  1.6961  2.1764 -0.0416
  127OSM    H7T13559   0.370   2.828  19.456  1.8069 -1.5261 -4.2725
  127OSM    C8S13560   0.520   2.972  19.418  0.5971 -0.2348 -0.0847
  127OSM    H8S13561   0.453   3.055  19.449  1.3739  0.6550 -0.7490
  127OSM    H8T13562   0.511   2.966  19.308  1.6860 -3.7410 -0.0891
  127OSM    C9S13563   0.669   3.016  19.431 -0.2023 -0.0336  0.3165
  127OSM    H9S13564   0.729   2.982  19.344  0.1547  1.8410 -0.2107
  127OSM    H9T13565   0.717   2.965  19.517  2.7509 -0.3537 -1.3684
  127OSM   C10S13566   0.679   3.164  19.457  0.4031 -0.0006 -0.5144
  127OSM   H10S13567   0.655   3.194  19.561  0.2355  1.5751 -0.9878
  127OSM   H10T13568   0.609   3.220  19.392 -0.3393 -0.6400 -0.2811
  127OSM   C11S13569   0.821   3.214  19.438 -0.2735  0.2180 -0.2579
  127OSM   H11S13570   0.851   3.201  19.332 -1.9111  1.0457 -0.8656
  127OSM   H11T13571   0.896   3.163  19.501  1.8331  2.5536 -0.7382
  127OSM   C12S13572   0.825   3.369  19.470  0.7495  0.2100 -0.0363
  127OSM   H12S13573   0.794   3.376  19.577  1.4049 -0.2114  0.1928
  127OSM   H12T13574   0.756   3.422  19.402 -3.0610 -1.9806  1.7831
  127OSM   C13S13575   0.958   3.439  19.457  0.1766 -0.5015 -1.2821
  127OSM   H13S13576   0.994   3.444  19.352  0.4825 -1.0333 -1.2078
  127OSM   H13T13577   1.042   3.387  19.509 -0.2150  0.1882  0.0873
  127OSM   C14S13578   0.937   3.586  19.516  0.2223  0.5505  0.2796
  127OSM   H14S13579   0.896   3.566  19.618 -0.5303  0.7772  0.0223
  127OSM   H14T13580   0.851   3.640  19.471 -0.2071  0.8430  1.4127
  127OSM   C15S13581   1.057   3.674  19.530  0.5423 -0.5222  0.1621
  127OSM   H15S13582   1.150   3.615  19.546 -0.9116 -2.6920  1.0259
  127OSM   H15T13583   1.049   3.743  19.617  2.0252  1.0436 -0.8799
  127OSM   C16S13584   1.080   3.757  19.403 -0.0955 -0.6121  0.0471
  127OSM   H16S13585   0.999   3.833  19.393 -0.0746 -0.6473 -0.4399
  127OSM   H16T13586   1.097   3.702  19.308 -0.9578  0.7610 -0.9313
  127OSM   C17S13587   1.220   3.824  19.414  0.2365  0.3258 -0.2499
  127OSM   H17S13588   1.289   3.739  19.434  1.0282  0.4344 -2.2535
  127OSM   H17T13589   1.201   3.898  19.495 -1.4225  0.1240 -0.4211
  127OSM   C18S13590   1.267   3.896  19.291  1.1029  0.0154 -0.0491
  127OSM   H18S13591   1.274   3.815  19.216  1.1689  1.1814 -1.3397
  127OSM   H18T13592   1.363   3.948  19.311  0.4833  2.1449 -2.1870
  127OSM   H18U13593   1.190   3.968  19.254 -0.5423 -1.4218  0.4728
  127OSM    C1F13594   0.035   2.491  19.521 -0.8878  0.1565 -0.2748
  127OSM     OF13595  -0.043   2.464  19.614  0.0436  0.3253 -0.1605
  127OSM    C2F13596  -0.013   2.546  19.392 -0.2390 -0.9559  0.8194
  127OSM    H2F13597  -0.074   2.471  19.338 -1.1261  0.2085  0.1368
  127OSM    H2G13598   0.064   2.580  19.319 -2.0979  1.4976 -0.1503
  127OSM    C3F13599  -0.121   2.650  19.418 -0.5637 -0.3890 -1.3768
  127OSM    H3F13600  -0.207   2.600  19.467 -0.4397  1.1218  0.5286
  127OSM    H3G13601  -0.151   2.689  19.319  2.1489  2.8062 -1.1198
  127OSM    C4F13602  -0.066   2.776  19.500 -0.1647 -0.4409  0.5766
  127OSM    H4F13603  -0.055   2.750  19.608  0.5923 -0.2428  0.5501
  127OSM    H4G13604  -0.143   2.856  19.505  1.1554  0.7992  1.8851
  127OSM    C5F13605   0.067   2.841  19.441  0.0199  0.7438  0.2846
  127OSM    H5F13606   0.058   2.838  19.330 -0.0833 -0.2803  0.3072
  127OSM    H5G13607   0.146   2.771  19.475 -1.9099 -0.2956  3.0015
  127OSM    C6F13608   0.098   2.974  19.500 -0.2732 -0.3238  0.3410
  127OSM    H6F13609   0.039   3.046  19.440 -1.4174 -3.5117 -2.6953
  127OSM    H6G13610   0.202   3.002  19.473 -0.7598 -1.2576 -2.8830
  127OSM    C7F13611   0.065   2.989  19.653  0.3685  0.9101 -0.0945
  127OSM    H7F13612   0.114   2.908  19.712  0.3703  0.4970 -0.6545
  127OSM    H7G13613  -0.045   2.991  19.672  0.4319 -2.3996  1.4110
  127OSM    C8F13614   0.118   3.117  19.716 -0.5549 -0.1566 -0.0010
  127OSM    H8F13615   0.067   3.143  19.811  0.7160 -0.7784  0.8936
  127OSM    H8G13616   0.096   3.210  19.661  1.4985  0.7274  0.5624
  127OSM    C9F13617   0.272   3.122  19.729 -0.6200 -0.4718 -0.4495
  127OSM    H9F13618   0.332   3.077  19.649  0.3836 -1.3778  0.7612
  127OSM   C10F13619   0.345   3.165  19.839  0.2812  0.0303  0.0176
  127OSM   H10F13620   0.454   3.159  19.835  0.4041 -0.3181  2.3969
  127OSM   C11F13621   0.290   3.228  19.965  0.7951 -0.8379 -0.6955
  127OSM   H11F13622   0.300   3.159  20.052 -1.1396  1.6977  1.7248
  127OSM   H11G13623   0.183   3.251  19.946  0.8417  0.8887  0.9169
  127OSM   C12F13624   0.341   3.368  19.993  0.3607  0.0850  0.7692
  127OSM   H12F13625   0.340   3.422  19.896 -1.1631  1.3072  1.4425
  127OSM   H12G13626   0.447   3.360  20.027  1.0657  1.2419 -0.9971
  127OSM   C13F13627   0.258   3.462  20.085 -0.1397  0.4791  0.1674
  127OSM   H13F13628   0.259   3.411  20.184 -2.1635  0.3506  0.1565
  127OSM   H13G13629   0.151   3.473  20.055 -0.3051 -1.8926 -0.3383
  127OSM   C14F13630   0.325   3.597  20.102 -0.1007  0.3499  0.5998
  127OSM   H14F13631   0.339   3.635  19.998  0.7970  0.4316  0.7460
  127OSM   H14G13632   0.426   3.578  20.144 -0.8342 -1.9061  1.4923
  127OSM   C15F13633   0.247   3.684  20.195  0.0359 -0.5440  0.0851
  127OSM   H15F13634   0.252   3.647  20.300 -0.0709  2.0975  1.1071
  127OSM   H15G13635   0.142   3.683  20.159 -0.1882 -1.7711  0.7386
  127OSM   C16F13636   0.307   3.821  20.184 -0.7709  0.1826  0.3854
  127OSM   H16F13637   0.315   3.850  20.077  3.1424 -0.6232  0.2870
  127OSM   H16G13638   0.405   3.815  20.237 -0.8611 -0.9501  0.4529
  127OSM   C17F13639   0.217   3.926  20.242  0.2067  0.0910 -0.1074
  127OSM   H17F13640   0.119   3.905  20.194 -0.2436 -2.0185  1.6080
  127OSM   H17G13641   0.247   4.028  20.208 -0.7788  0.5171  0.2418
  127OSM   C18F13642   0.187   3.942  20.394 -0.4731 -0.1827 -0.7486
  127OSM   H18F13643   0.109   4.020  20.407  1.6127  1.5423  3.2008
  127OSM   H18G13644   0.267   3.968  20.466 -1.0502 -0.9523  0.2076
  127OSM   H18H13645   0.161   3.841  20.432  1.6813 -0.3518  0.4401
  128OSM      N13646   3.171   1.606  19.991  0.3678 -0.8347  0.1161
  128OSM    C1513647   3.026   1.601  19.955 -0.5930 -0.2067  0.6310
  128OSM   H15A13648   2.994   1.662  19.872  1.7405 -1.7867 -1.5756
  128OSM   H15B13649   2.974   1.628  20.046  1.4624 -2.2070  2.5204
  128OSM   H15C13650   2.997   1.497  19.946  1.2305 -0.5592 -2.4357
  128OSM    C1413651   3.247   1.501  19.917 -0.6339  0.2313 -0.4246
  128OSM   H14A13652   3.240   1.403  19.963 -0.5129  0.1151 -0.6485
  128OSM   H14B13653   3.353   1.517  19.914 -0.5125 -0.5848 -0.9618
  128OSM   H14C13654   3.201   1.494  19.819 -0.1332  0.9391 -0.7103
  128OSM    C1313655   3.223   1.744  19.946 -0.4505 -0.8440  0.7454
  128OSM   H13A13656   3.171   1.821  20.001  1.1888  1.1637 -0.4258
  128OSM   H13B13657   3.213   1.747  19.839  0.3713 -0.0545  0.6850
  128OSM   H13C13658   3.330   1.755  19.954 -0.0353 -0.7808 -3.1048
  128OSM    C1213659   3.191   1.586  20.137  0.6544  0.2301  0.2942
  128OSM   H12A13660   3.128   1.650  20.197  0.3139  1.7933 -1.6530
  128OSM   H12B13661   3.293   1.617  20.152  0.4120  0.9987  0.4148
  128OSM    C1113662   3.166   1.454  20.202 -0.3992  0.2579  0.0612
  128OSM   H11A13663   3.241   1.378  20.172 -0.2863 -0.4870  2.1288
  128OSM   H11B13664   3.063   1.419  20.177  0.3247 -3.3841  1.5565
  128OSM      P13665   3.306   1.438  20.423  0.5148 -0.1897  0.3953
  128OSM    O1313666   3.429   1.487  20.353  0.0683  0.3131 -0.3334
  128OSM    O1413667   3.280   1.480  20.564 -0.5994 -0.7151 -0.5067
  128OSM    O1113668   3.310   1.280  20.412 -0.1521 -0.1874 -0.2714
  128OSM    O1213669   3.179   1.479  20.337 -0.3290 -0.1541 -0.3532
  128OSM    C1S13670   3.189   1.206  20.411 -0.1112 -0.2751 -0.1718
  128OSM    H1S13671   3.131   1.208  20.316  0.5564 -2.4225 -0.6884
  128OSM    H1T13672   3.117   1.246  20.485  0.0982  0.4169 -0.3426
  128OSM     NF13673   3.079   0.979  20.475 -0.4723 -0.1609  0.0544
  128OSM    HNF13674   3.055   0.955  20.568  1.1170 -0.8195  0.3200
  128OSM    C2S13675   3.205   1.052  20.447 -0.2909 -0.4203  0.4097
  128OSM    H2S13676   3.244   1.010  20.352  1.2314  2.1525 -0.1835
  128OSM    C3S13677   3.319   1.035  20.559 -0.3333 -0.9135  0.0705
  128OSM    H3S13678   3.274   1.094  20.642 -1.3759 -2.9406  1.0127
  128OSM     O313679   3.447   1.087  20.518 -0.3189  0.4767  0.4650
  128OSM    HO313680   3.418   1.166  20.472  2.6982  1.5393  0.1586
  128OSM    C4S13681   3.328   0.890  20.590 -0.0818 -0.5267 -0.0056
  128OSM    H4S13682   3.379   0.829  20.514 -1.3460 -2.5975  0.7257
  128OSM    C5S13683   3.316   0.835  20.710  0.0182 -0.2080  0.1452
  128OSM    H5S13684   3.286   0.891  20.800 -0.7131 -2.8818  1.6948
  128OSM    C6S13685   3.341   0.695  20.744 -0.3917  0.9577  0.0157
  128OSM    H6S13686   3.445   0.684  20.780 -0.6502 -1.9110  0.0923
  128OSM    H6T13687   3.339   0.646  20.645  0.2806  0.4653  0.2417
  128OSM    C7S13688   3.242   0.644  20.848  0.1757  0.4451  0.0387
  128OSM    H7S13689   3.136   0.659  20.817  0.2167 -1.8088 -1.3662
  128OSM    H7T13690   3.251   0.714  20.934 -3.7517 -0.9890  1.8949
  128OSM    C8S13691   3.270   0.502  20.894  0.5459  1.2821 -0.6242
  128OSM    H8S13692   3.368   0.502  20.947  0.1165  0.4111  0.1971
  128OSM    H8T13693   3.273   0.432  20.807 -1.3548  0.2328  0.1150
  128OSM    C9S13694   3.168   0.449  20.991  0.4047  0.1003 -0.3244
  128OSM    H9S13695   3.169   0.519  21.076 -0.0380  2.1352 -1.9230
  128OSM    H9T13696   3.199   0.348  21.028 -1.3860 -0.6262 -0.7185
  128OSM   C10S13697   3.035   0.428  20.940 -0.4911  0.3906  0.1138
  128OSM   H10S13698   3.031   0.346  20.865 -0.2659 -0.6410  1.2025
  128OSM   H10T13699   3.000   0.515  20.881 -3.0293  0.0266  0.9443
  128OSM   C11S13700   2.923   0.404  21.047 -0.1332  0.5686 -0.3745
  128OSM   H11S13701   2.891   0.507  21.072  1.0580  0.6421  0.9527
  128OSM   H11T13702   2.969   0.351  21.133  2.0440 -0.6707 -2.1749
  128OSM   C12S13703   2.799   0.324  20.998 -0.1662 -0.2893 -0.8830
  128OSM   H12S13704   2.821   0.215  21.005  1.9020  0.1241 -0.1503
  128OSM   H12T13705   2.764   0.339  20.894  0.8138 -0.3767 -1.2425
  128OSM   C13S13706   2.682   0.363  21.100 -0.3909 -0.3967 -0.1523
  128OSM   H13S13707   2.649   0.467  21.080  0.6287 -0.5272 -3.0412
  128OSM   H13T13708   2.726   0.363  21.202  0.3233  0.5028 -0.4389
  128OSM   C14S13709   2.558   0.270  21.090 -0.8337 -0.1887 -0.2254
  128OSM   H14S13710   2.598   0.167  21.078 -0.9931 -0.0320 -2.6129
  128OSM   H14T13711   2.516   0.300  20.992  1.2177 -0.8083 -1.3490
  128OSM   C15S13712   2.460   0.289  21.200  0.3907  0.0831  0.3375
  128OSM   H15S13713   2.379   0.215  21.186  1.9036 -1.5371 -0.1552
  128OSM   H15T13714   2.419   0.392  21.195 -0.1263 -0.1736 -2.6659
  128OSM   C16S13715   2.517   0.256  21.340  0.1048  0.7784  0.3307
  128OSM   H16S13716   2.432   0.281  21.408  0.2114  0.6471  0.5132
  128OSM   H16T13717   2.607   0.313  21.371 -0.0151  2.1116 -1.6512
  128OSM   C17S13718   2.539   0.112  21.353 -0.4244  0.3491  0.0286
  128OSM   H17S13719   2.627   0.078  21.296 -0.6153 -1.0594  0.5224
  128OSM   H17T13720   2.450   0.062  21.309 -0.0867 -1.0255  0.8377
  128OSM   C18S13721   2.531   0.063  21.500  0.1571  0.0140 -0.1316
  128OSM   H18S13722   2.547  -0.047  21.502  1.2638  0.1692 -0.1422
  128OSM   H18T13723   2.436   0.093  21.549 -0.4000 -1.2405 -0.4070
  128OSM   H18U13724   2.613   0.113  21.557  0.1003  0.9232 -0.8267
  128OSM    C1F13725   2.990   0.955  20.380  0.2778 -0.2194  0.1908
  128OSM     OF13726   3.009   0.987  20.262 -0.0117 -0.9706  0.0105
  128OSM    C2F13727   2.857   0.903  20.421 -0.7697  0.3183 -0.1565
  128OSM    H2F13728   2.801   0.993  20.454  1.1098  1.5045 -0.0847
  128OSM    H2G13729   2.873   0.833  20.506  0.2243 -0.1623 -0.7181
  128OSM    C3F13730   2.784   0.825  20.309 -0.3772 -0.1540  0.6805
  128OSM    H3F13731   2.850   0.744  20.270 -0.3870 -0.1389  0.6324
  128OSM    H3G13732   2.762   0.878  20.213  0.4696  0.2088  0.6730
  128OSM    C4F13733   2.659   0.758  20.367  0.0790 -0.1036 -0.1612
  128OSM    H4F13734   2.577   0.830  20.386  0.3523 -0.0648  0.9422
  128OSM    H4G13735   2.687   0.726  20.470 -1.4465  0.9121  0.6172
  128OSM    C5F13736   2.610   0.640  20.279 -0.0743  0.2080 -0.2654
  128OSM    H5F13737   2.557   0.568  20.345 -0.3977 -1.0667 -1.8434
  128OSM    H5G13738   2.696   0.580  20.242  1.3916  1.9357  0.2298
  128OSM    C6F13739   2.525   0.694  20.163  0.2243  0.3901  0.1125
  128OSM    H6F13740   2.592   0.754  20.098 -1.2166  0.9959 -0.8596
  128OSM    H6G13741   2.445   0.761  20.201  0.5951  0.9130 -0.0043
  128OSM    C7F13742   2.428   0.592  20.090  0.5753  0.3999 -0.3217
  128OSM    H7F13743   2.333   0.572  20.143  0.1591  1.3753 -0.6710
  128OSM    H7G13744   2.487   0.498  20.086  1.6302  1.0690 -1.0449
  128OSM    C8F13745   2.394   0.630  19.949 -0.9248 -0.5091  0.2223
  128OSM    H8F13746   2.481   0.673  19.894 -2.5666  0.4958 -1.7198
  128OSM    H8G13747   2.338   0.725  19.952  1.4605  0.9506  0.9322
  128OSM    C9F13748   2.332   0.522  19.861 -0.0488 -0.2025  0.1801
  128OSM    H9F13749   2.319   0.426  19.913 -2.6899 -0.6879 -1.2157
  128OSM   C10F13750   2.292   0.539  19.730  0.1483  0.0268 -0.1864
  128OSM   H10F13751   2.244   0.456  19.676 -1.3332  0.7693 -0.0339
  128OSM   C11F13752   2.316   0.667  19.646  0.2934 -0.0331  0.9481
  128OSM   H11F13753   2.359   0.627  19.551  1.5135 -0.9502  1.8521
  128OSM   H11G13754   2.392   0.738  19.686 -0.4787  1.6669 -0.4818
  128OSM   C12F13755   2.180   0.737  19.606  0.6174 -0.1411  0.2616
  128OSM   H12F13756   2.209   0.805  19.523  1.3193 -0.7718 -0.0260
  128OSM   H12G13757   2.132   0.781  19.696  0.0836 -0.7092  0.2582
  128OSM   C13F13758   2.069   0.650  19.536  0.3793 -0.3283 -0.3698
  128OSM   H13F13759   2.041   0.586  19.622 -0.9583  2.0296  1.0740
  128OSM   H13G13760   2.103   0.585  19.452 -1.5715 -1.8491 -0.0539
  128OSM   C14F13761   1.934   0.725  19.528 -0.4466  0.3786  0.4466
  128OSM   H14F13762   1.935   0.787  19.436  1.0985  0.8352  0.7474
  128OSM   H14G13763   1.924   0.792  19.617 -0.8880 -1.6199  1.9884
  128OSM   C15F13764   1.823   0.622  19.521  0.1391 -0.1447 -0.2365
  128OSM   H15F13765   1.792   0.573  19.616  0.4830  0.0568 -0.0176
  128OSM   H15G13766   1.860   0.546  19.449  1.1280  0.6139 -0.5356
  128OSM   C16F13767   1.701   0.693  19.463 -0.9922 -0.1832 -0.2828
  128OSM   H16F13768   1.744   0.718  19.364  1.7468 -1.0851  0.5794
  128OSM   H16G13769   1.674   0.784  19.521  0.5616  1.4340 -1.9668
  128OSM   C17F13770   1.589   0.592  19.449 -0.2863 -0.0572 -0.3428
  128OSM   H17F13771   1.561   0.552  19.549  0.4943  0.7238  0.1917
  128OSM   H17G13772   1.616   0.494  19.403 -0.6473  0.4215 -1.6000
  128OSM   C18F13773   1.467   0.654  19.378  0.2810 -0.8217  0.2071
  128OSM   H18F13774   1.375   0.596  19.400  0.1958 -0.8079 -0.1155
  128OSM   H18G13775   1.481   0.672  19.269 -2.2478  1.8214  0.1880
  128OSM   H18H13776   1.439   0.755  19.416 -0.3581  0.2836 -2.9126
  129OSM      N13777   3.588   2.139  21.459 -0.1999 -0.7129  0.1519
  129OSM    C1513778   3.677   2.085  21.346 -0.0269 -0.0978  0.6336
  129OSM   H15A13779   3.640   1.985  21.328 -2.3478  1.0421 -1.4787
  129OSM   H15B13780   3.781   2.075  21.371  0.1165 -0.0065  0.0892
  129OSM   H15C13781   3.661   2.135  21.252  0.5677 -0.0136  0.5769
  129OSM    C1413782   3.615   2.290  21.468 -0.2942  0.4203 -0.1223
  129OSM   H14A13783   3.712   2.304  21.515 -0.2570  1.0587 -0.3788
  129OSM   H14B13784   3.538   2.336  21.527 -1.5144 -0.4234 -1.0152
  129OSM   H14C13785   3.602   2.328  21.368  0.0515 -0.0586 -0.3597
  129OSM    C1313786   3.448   2.125  21.411 -0.4092  0.0777 -0.2025
  129OSM   H13A13787   3.386   2.170  21.488 -1.5365 -0.6554 -0.6554
  129OSM   H13B13788   3.420   2.021  21.408 -0.8920  0.2138 -0.4915
  129OSM   H13C13789   3.417   2.173  21.319  1.0386  0.0680 -0.7219
  129OSM    C1213790   3.610   2.071  21.588  0.0112 -0.0498 -0.8490
  129OSM   H12A13791   3.714   2.069  21.616 -0.4503 -2.0950  1.0601
  129OSM   H12B13792   3.579   1.967  21.582 -1.8576  0.4766 -0.7856
  129OSM    C1113793   3.552   2.131  21.725 -0.3692 -0.1218  0.0439
  129OSM   H11A13794   3.598   2.230  21.744 -0.4980 -0.0443 -0.0495
  129OSM   H11B13795   3.584   2.078  21.818  2.6603 -0.8342 -1.3071
  129OSM      P13796   3.329   2.000  21.725 -0.2013  0.5622 -0.4250
  129OSM    O1313797   3.244   2.009  21.605  0.8314  0.3801 -0.7911
  129OSM    O1413798   3.423   1.884  21.733  0.0445  0.4417 -0.2303
  129OSM    O1113799   3.241   2.006  21.854 -0.2282 -0.4722 -0.0305
  129OSM    O1213800   3.408   2.131  21.732 -0.1005  0.5287 -0.1360
  129OSM    C1S13801   3.293   1.981  21.984  0.7684 -0.5812  0.6409
  129OSM    H1S13802   3.367   1.898  21.980  0.0778 -1.2384  1.0477
  129OSM    H1T13803   3.207   1.960  22.051  0.4365 -0.6057  0.2128
  129OSM     NF13804   3.426   2.082  22.178 -0.3988 -0.0655  0.0214
  129OSM    HNF13805   3.397   2.127  22.262 -1.0891 -0.7882  0.1847
  129OSM    C2S13806   3.359   2.107  22.049  0.3113  0.4215 -0.3105
  129OSM    H2S13807   3.435   2.154  21.983 -0.9864  1.1356 -1.3448
  129OSM    C3S13808   3.250   2.219  22.057 -0.4490  0.8862  0.5481
  129OSM    H3S13809   3.167   2.179  22.119 -0.2528 -0.1476  0.1602
  129OSM     O313810   3.173   2.237  21.938  0.1046  0.3857 -0.3530
  129OSM    HO313811   3.187   2.152  21.895  0.4457  0.3596 -0.1957
  129OSM    C4S13812   3.295   2.354  22.113  0.1020  0.0660  0.2362
  129OSM    H4S13813   3.286   2.373  22.221  0.0142  2.2456 -0.1203
  129OSM    C5S13814   3.324   2.462  22.041  0.1994  0.0666 -0.2323
  129OSM    H5S13815   3.305   2.453  21.933  0.8657  0.7532 -0.4108
  129OSM    C6S13816   3.360   2.594  22.097  0.7746 -0.0901 -0.1219
  129OSM    H6S13817   3.268   2.656  22.089  0.7725  0.0933  1.0810
  129OSM    H6T13818   3.441   2.633  22.032 -0.2128  2.0224 -0.1754
  129OSM    C7S13819   3.388   2.610  22.251  0.7598  0.4479 -0.2258
  129OSM    H7S13820   3.450   2.522  22.279  0.8097  1.2346  2.3564
  129OSM    H7T13821   3.302   2.610  22.321  1.3756  2.4353  0.5976
  129OSM    C8S13822   3.471   2.734  22.287 -0.5283  0.1104 -0.3394
  129OSM    H8S13823   3.555   2.747  22.215  0.6594  2.3440  1.3276
  129OSM    H8T13824   3.524   2.700  22.378  0.4875 -0.8155 -1.2387
  129OSM    C9S13825   3.406   2.869  22.303  0.4718  0.1343  0.0228
  129OSM    H9S13826   3.315   2.868  22.366  0.2998  1.2452 -0.1761
  129OSM    H9T13827   3.381   2.910  22.203 -0.7906 -2.6100 -0.8821
  129OSM   C10S13828   3.509   2.958  22.380 -0.3908 -0.6384  0.6777
  129OSM   H10S13829   3.614   2.925  22.365 -1.6190 -3.6580 -2.5125
  129OSM   H10T13830   3.500   2.943  22.490  1.4918 -2.2306  0.6706
  129OSM   C11S13831   3.497   3.108  22.347 -0.5558 -0.3054 -0.1374
  129OSM   H11S13832   3.391   3.137  22.364 -0.7907 -1.6805  0.8938
  129OSM   H11T13833   3.516   3.139  22.242  1.6327  2.3024  0.9037
  129OSM   C12S13834   3.594   3.193  22.430  0.4018 -0.1626  0.3636
  129OSM   H12S13835   3.698   3.187  22.392  0.2598 -0.7453  0.0635
  129OSM   H12T13836   3.583   3.162  22.536  0.0650 -0.4238  0.2539
  129OSM   C13S13837   3.555   3.342  22.436 -0.7710 -0.1580  0.3163
  129OSM   H13S13838   3.444   3.341  22.434 -0.7904 -2.0536  0.5216
  129OSM   H13T13839   3.603   3.393  22.350  2.2172  0.6359  2.3089
  129OSM   C14S13840   3.581   3.421  22.560 -0.1601 -0.8476 -0.1223
  129OSM   H14S13841   3.689   3.405  22.581  0.5935  3.0720 -0.1777
  129OSM   H14T13842   3.515   3.372  22.635  0.6893 -0.6858  0.7542
  129OSM   C15S13843   3.576   3.578  22.549 -0.1835  0.6280  0.4787
  129OSM   H15S13844   3.467   3.601  22.543 -0.9736 -2.4636  0.7683
  129OSM   H15T13845   3.626   3.596  22.451  0.3185 -1.0521  0.3928
  129OSM   C16S13846   3.642   3.651  22.665 -0.3315  0.3295 -0.3047
  129OSM   H16S13847   3.744   3.611  22.682 -0.5226 -1.6761 -3.2089
  129OSM   H16T13848   3.582   3.612  22.750 -0.4489  1.3242  0.0859
  129OSM   C17S13849   3.628   3.801  22.648  0.4273 -0.1085  0.5255
  129OSM   H17S13850   3.682   3.850  22.731 -1.6544  2.4862  0.4719
  129OSM   H17T13851   3.518   3.813  22.657  0.4502 -0.4995  1.4115
  129OSM   C18S13852   3.679   3.853  22.516 -0.6681  0.5785 -0.5356
  129OSM   H18S13853   3.786   3.825  22.500 -1.3917 -3.1701  0.2496
  129OSM   H18T13854   3.688   3.964  22.518  0.5867  0.4942  0.0668
  129OSM   H18U13855   3.632   3.834  22.418  1.7193 -0.5931 -1.5505
  129OSM    C1F13856   3.530   1.996  22.181  0.0333  0.4677 -0.2722
  129OSM     OF13857   3.584   1.971  22.076 -0.1673  0.3028 -0.3246
  129OSM    C2F13858   3.581   1.955  22.315  1.1403 -0.1454 -0.1246
  129OSM    H2F13859   3.672   1.891  22.308  0.2469 -1.3795 -0.7423
  129OSM    H2G13860   3.503   1.897  22.368  0.0418  0.5164 -0.9671
  129OSM    C3F13861   3.639   2.082  22.395 -0.4117 -0.0379  0.7335
  129OSM    H3F13862   3.688   2.040  22.485 -1.7036 -3.4351  0.0493
  129OSM    H3G13863   3.564   2.157  22.429  1.8875  2.4470  0.6073
  129OSM    C4F13864   3.743   2.179  22.318  0.4071  0.3594  0.1653
  129OSM    H4F13865   3.715   2.179  22.210 -0.0239  1.1498  0.2684
  129OSM    H4G13866   3.848   2.143  22.312  0.9913  1.6767  1.8059
  129OSM    C5F13867   3.762   2.322  22.369  0.4797  0.0616 -0.2228
  129OSM    H5F13868   3.793   2.317  22.475 -1.7189 -2.1859  0.4061
  129OSM    H5G13869   3.670   2.382  22.353  0.6111  0.2170 -0.4043
  129OSM    C6F13870   3.882   2.394  22.301 -0.2271 -0.7061 -0.1118
  129OSM    H6F13871   3.853   2.392  22.193  2.0294  0.7097 -0.8348
  129OSM    H6G13872   3.974   2.334  22.315 -0.3842 -0.9967 -0.3000
  129OSM    C7F13873   3.915   2.537  22.350  0.6714 -0.3246  0.5614
  129OSM    H7F13874   3.836   2.576  22.419  2.3962  4.1242  0.3876
  129OSM    H7G13875   3.898   2.610  22.268 -0.9065  0.9045  1.9038
  129OSM    C8F13876   4.052   2.546  22.420  0.1534 -0.3918  0.4688
  129OSM    H8F13877   4.067   2.461  22.490 -0.1678 -0.2680  0.6884
  129OSM    H8G13878   4.054   2.642  22.474 -1.7407 -0.1685  0.2354
  129OSM    C9F13879   4.164   2.527  22.321 -0.6124 -0.4557  0.5566
  129OSM    H9F13880   4.191   2.422  22.304 -1.0071 -0.3727 -0.7312
  129OSM   C10F13881   4.242   2.617  22.255  0.5811 -0.4786 -0.2751
  129OSM   H10F13882   4.323   2.588  22.187  1.3416  1.7395 -0.4073
  129OSM   C11F13883   4.245   2.771  22.273  0.0487  0.8517  0.3398
  129OSM   H11F13884   4.329   2.809  22.211  0.3203 -2.5681 -1.6848
  129OSM   H11G13885   4.279   2.780  22.379  0.3403 -0.8333  0.4200
  129OSM   C12F13886   4.125   2.855  22.236  0.6992  0.7548 -0.1819
  129OSM   H12F13887   4.039   2.818  22.296  0.7216  1.4739  0.2983
  129OSM   H12G13888   4.102   2.839  22.129 -1.6137 -0.5511  0.4441
  129OSM   C13F13889   4.144   3.000  22.278 -0.4443  0.2529  0.0779
  129OSM   H13F13890   4.052   3.046  22.233 -0.5169 -0.8825 -0.9797
  129OSM   H13G13891   4.234   3.045  22.232  1.4582 -0.9788  2.4019
  129OSM   C14F13892   4.152   3.025  22.428 -0.5372  0.2152 -0.7707
  129OSM   H14F13893   4.201   3.122  22.449  0.3008 -0.4074  0.2450
  129OSM   H14G13894   4.224   2.953  22.473 -2.6521 -2.4866 -1.4454
  129OSM   C15F13895   4.015   3.027  22.494 -0.6143 -0.8553  0.2897
  129OSM   H15F13896   3.977   2.923  22.488  0.2037 -1.1401 -0.0709
  129OSM   H15G13897   3.938   3.093  22.448  0.1594 -0.2037 -0.1009
  129OSM   C16F13898   4.025   3.065  22.646  0.9311  0.3225  0.0017
  129OSM   H16F13899   4.103   3.145  22.643  1.3955 -0.1479 -1.8750
  129OSM   H16G13900   4.080   2.980  22.692  3.5510  1.0069 -1.6447
  129OSM   C17F13901   3.902   3.112  22.727  0.2780  0.5026  0.1354
  129OSM   H17F13902   3.873   3.212  22.689 -1.5515  1.2252  3.0552
  129OSM   H17G13903   3.922   3.125  22.835  1.2589 -0.9062  0.1473
  129OSM   C18F13904   3.782   3.014  22.715 -0.0209 -0.5460 -0.0706
  129OSM   H18F13905   3.793   2.922  22.777 -0.3822  1.0365  2.5194
  129OSM   H18G13906   3.763   2.976  22.612  1.9672  0.5643 -0.8941
  129OSM   H18H13907   3.696   3.070  22.757 -0.9023 -0.4294 -1.9424
  130OSM      N13908   3.920   0.385  15.167  0.3861  0.4269  0.1144
  130OSM    C1513909   3.998   0.509  15.216  0.4122  0.4085 -0.3820
  130OSM   H15A13910   3.962   0.553  15.308 -0.1168  2.0929 -1.3410
  130OSM   H15B13911   3.998   0.588  15.142 -1.9450  0.9307  0.0954
  130OSM   H15C13912   4.100   0.476  15.220  0.4810  0.7505  1.6473
  130OSM    C1413913   3.775   0.431  15.149  0.4749 -0.2824  0.4072
  130OSM   H14A13914   3.770   0.511  15.076  1.0395  2.5603  3.2702
  130OSM   H14B13915   3.723   0.464  15.237 -0.6250  0.2416 -0.4077
  130OSM   H14C13916   3.714   0.352  15.106 -0.7849  1.3642 -1.0263
  130OSM    C1313917   3.977   0.345  15.039  0.3162  0.7979 -0.3588
  130OSM   H13A13918   3.941   0.393  14.950  3.6949  1.0918 -1.7028
  130OSM   H13B13919   3.932   0.248  15.023  0.8265  0.4196  0.4259
  130OSM   H13C13920   4.083   0.342  15.023  0.0326  2.2442 -2.9864
  130OSM    C1213921   3.931   0.278  15.271  0.1620 -0.4878 -0.1776
  130OSM   H12A13922   3.877   0.315  15.357 -1.3249 -0.8504 -0.9179
  130OSM   H12B13923   4.034   0.256  15.293 -0.5456 -4.0692  0.2049
  130OSM    C1113924   3.851   0.145  15.248 -0.4039  0.0221 -0.9189
  130OSM   H11A13925   3.753   0.163  15.198 -1.9910 -3.7598  0.4026
  130OSM   H11B13926   3.836   0.089  15.343  0.4019  0.7743 -0.3397
  130OSM      P13927   4.072   0.002  15.171 -0.0943 -0.0238 -0.1896
  130OSM    O1313928   4.066  -0.143  15.190 -0.1812 -0.2864 -0.4859
  130OSM    O1413929   4.156   0.038  15.058 -0.4863 -0.0855  0.2391
  130OSM    O1113930   4.132   0.062  15.307 -0.0989  0.3127  0.2488
  130OSM    O1213931   3.926   0.063  15.158  0.3304  0.5991  0.2807
  130OSM    C1S13932   4.095   0.019  15.441  0.3664  0.0434 -0.7867
  130OSM    H1S13933   3.996  -0.031  15.435  1.5289 -2.9120  1.7451
  130OSM    H1T13934   4.085   0.104  15.512  1.2816 -1.9117  1.8433
  130OSM     NF13935   4.149  -0.111  15.648  0.7748 -0.9579  0.6135
  130OSM    HNF13936   4.157  -0.036  15.714 -0.5175 -0.2097 -0.0446
  130OSM    C2S13937   4.200  -0.081  15.515 -0.2737 -0.6873 -0.0929
  130OSM    H2S13938   4.205  -0.169  15.448  0.4395 -0.2024 -0.6947
  130OSM    C3S13939   4.342  -0.009  15.526 -0.1709  0.0110  0.3707
  130OSM    H3S13940   4.335   0.077  15.597  0.0061  1.9548 -1.8320
  130OSM     O313941   4.392   0.049  15.409 -0.1538 -0.2226  0.3097
  130OSM    HO313942   4.318   0.054  15.347  1.0647  2.7216 -1.1224
  130OSM    C4S13943   4.437  -0.105  15.573  0.0691 -0.5206 -0.0607
  130OSM    H4S13944   4.444  -0.183  15.496  2.6653  0.2011 -0.6327
  130OSM    C5S13945   4.505  -0.101  15.690  1.1246  0.0807 -0.2564
  130OSM    H5S13946   4.488  -0.010  15.751  1.6676  0.9100 -1.3147
  130OSM    C6S13947   4.592  -0.217  15.740  0.3159 -0.4789 -0.1125
  130OSM    H6S13948   4.701  -0.205  15.726  0.3924 -0.7891  0.2036
  130OSM    H6T13949   4.565  -0.313  15.691 -1.1727 -0.0037 -0.3027
  130OSM    C7S13950   4.586  -0.238  15.895  0.0348 -0.2677  0.2851
  130OSM    H7S13951   4.483  -0.270  15.922  0.0434 -0.6569 -0.1351
  130OSM    H7T13952   4.621  -0.145  15.945  0.5732 -0.9478  1.1965
  130OSM    C8S13953   4.679  -0.340  15.956  0.2682  0.4473 -0.5772
  130OSM    H8S13954   4.785  -0.321  15.930  0.7009 -0.3629  0.4947
  130OSM    H8T13955   4.652  -0.444  15.926  2.0069 -1.0986  2.6360
  130OSM    C9S13956   4.680  -0.325  16.109  0.5506  0.1717  0.1046
  130OSM    H9S13957   4.579  -0.335  16.153  0.8653 -0.4409  0.7146
  130OSM    H9T13958   4.726  -0.227  16.133  1.6597 -0.5097  0.8633
  130OSM   C10S13959   4.767  -0.424  16.185 -0.2904  0.8988  0.0358
  130OSM   H10S13960   4.876  -0.414  16.166  0.4420  1.2059  3.6512
  130OSM   H10T13961   4.742  -0.523  16.140  0.0030  1.1438 -0.6820
  130OSM   C11S13962   4.746  -0.416  16.335 -0.3069 -0.0251  0.1618
  130OSM   H11S13963   4.640  -0.416  16.368  0.5391  0.1226  3.1762
  130OSM   H11T13964   4.794  -0.317  16.355 -1.3347  0.1798  1.8136
  130OSM   C12S13965   4.839  -0.515  16.411 -0.0081 -0.5568 -0.1752
  130OSM   H12S13966   4.831  -0.496  16.520  0.4966  1.1932 -0.4085
  130OSM   H12T13967   4.946  -0.498  16.387  0.9314  0.5608  4.0041
  130OSM   C13S13968   4.821  -0.669  16.395  0.6665  0.2153  0.0540
  130OSM   H13S13969   4.830  -0.690  16.286 -1.5654  0.6873 -0.2636
  130OSM   H13T13970   4.712  -0.680  16.413  0.3654  0.2297 -1.6461
  130OSM   C14S13971   4.906  -0.762  16.480 -0.4868 -0.0060  0.1003
  130OSM   H14S13972   5.010  -0.750  16.444 -0.2739 -0.5787  0.4970
  130OSM   H14T13973   4.873  -0.867  16.461  0.0628 -0.2510  0.4745
  130OSM   C15S13974   4.902  -0.757  16.634 -0.0600 -0.6353  0.2468
  130OSM   H15S13975   4.802  -0.792  16.670 -0.1707 -0.3225  0.2396
  130OSM   H15T13976   4.906  -0.653  16.671  0.8150 -1.1763  1.7932
  130OSM   C16S13977   5.026  -0.826  16.688 -0.1183 -0.0080 -0.1977
  130OSM   H16S13978   5.113  -0.759  16.674 -1.3868  2.0229  1.0603
  130OSM   H16T13979   5.047  -0.917  16.627 -0.1010  1.8428 -3.1646
  130OSM   C17S13980   5.007  -0.876  16.830  0.4688 -0.0663  0.2228
  130OSM   H17S13981   5.093  -0.933  16.869  0.0262  0.4665  2.1008
  130OSM   H17T13982   4.924  -0.950  16.835  0.0426  0.3090 -0.9612
  130OSM   C18S13983   4.982  -0.757  16.930  0.1650 -0.6257 -0.6986
  130OSM   H18S13984   4.880  -0.713  16.919  0.0398 -0.0426  2.0358
  130OSM   H18T13985   5.057  -0.678  16.909  0.8321  1.2367  6.2725
  130OSM   H18U13986   5.010  -0.791  17.032 -0.1382 -0.5999 -0.6038
  130OSM    C1F13987   4.041  -0.186  15.657  0.1707  1.0021  0.0924
  130OSM     OF13988   3.998  -0.247  15.561  0.1739 -0.0974 -0.2648
  130OSM    C2F13989   3.961  -0.200  15.783  0.2857  0.4793  0.2750
  130OSM    H2F13990   3.880  -0.272  15.761  1.5792 -1.3111  1.1180
  130OSM    H2G13991   3.926  -0.098  15.811  0.0443  0.0976  1.3921
  130OSM    C3F13992   4.041  -0.259  15.902 -0.0690  0.1125  0.3092
  130OSM    H3F13993   4.052  -0.369  15.898  1.9905  0.2626  0.9123
  130OSM    H3G13994   3.985  -0.249  15.998 -2.5564 -0.3037 -1.0071
  130OSM    C4F13995   4.179  -0.202  15.919 -0.4256 -0.8849 -0.0334
  130OSM    H4F13996   4.165  -0.091  15.921 -0.4437 -0.8874 -0.0382
  130OSM    H4G13997   4.249  -0.241  15.843  0.5071 -0.0990  0.3977
  130OSM    C5F13998   4.242  -0.231  16.055 -0.2909  0.2870 -0.3620
  130OSM    H5F13999   4.316  -0.151  16.074 -0.7837  0.1791  2.2967
  130OSM    H5G14000   4.298  -0.327  16.053 -1.5278 -0.5059  1.1593
  130OSM    C6F14001   4.145  -0.212  16.172 -0.5296  0.2670 -0.8944
  130OSM    H6F14002   4.055  -0.276  16.176 -0.6636  0.5043  0.4023
  130OSM    H6G14003   4.116  -0.104  16.168 -0.6137  0.5044  2.6933
  130OSM    C7F14004   4.228  -0.227  16.300  0.2028 -0.1674 -0.5408
  130OSM    H7F14005   4.319  -0.163  16.289  0.8634 -1.2342 -1.5861
  130OSM    H7G14006   4.263  -0.332  16.304 -1.7138 -0.9180 -1.8241
  130OSM    C8F14007   4.151  -0.185  16.426 -0.1698  0.0808  0.3477
  130OSM    H8F14008   4.058  -0.245  16.441 -0.8665  1.3528  1.3443
  130OSM    H8G14009   4.098  -0.088  16.409 -1.6105 -0.5969  0.7462
  130OSM    C9F14010   4.252  -0.186  16.542 -0.4341 -0.5026  0.1931
  130OSM    H9F14011   4.283  -0.280  16.591 -0.0170 -0.0180  0.8838
  130OSM   C10F14012   4.306  -0.082  16.600 -0.8452  0.2151  0.7881
  130OSM   H10F14013   4.384  -0.102  16.676  3.0946  1.3058 -2.5858
  130OSM   C11F14014   4.287   0.056  16.563  0.0444  0.1202  0.3122
  130OSM   H11F14015   4.278   0.070  16.453 -1.0145 -0.6220  0.2925
  130OSM   H11G14016   4.373   0.117  16.597 -0.5774  0.2815  1.6972
  130OSM   C12F14017   4.170   0.131  16.625 -0.0315  0.2737  0.6669
  130OSM   H12F14018   4.070   0.085  16.608 -0.4727  0.9788  1.2616
  130OSM   H12G14019   4.180   0.234  16.584  1.4040 -0.5800 -1.3071
  130OSM   C13F14020   4.186   0.148  16.778 -0.2180  0.2669  0.5549
  130OSM   H13F14021   4.293   0.159  16.805  0.1974  1.3287 -1.3767
  130OSM   H13G14022   4.153   0.054  16.828 -1.0213  1.3453  2.1796
  130OSM   C14F14023   4.116   0.269  16.841  0.8914  0.5060  0.2384
  130OSM   H14F14024   4.008   0.271  16.818  0.9540  0.0615 -0.0940
  130OSM   H14G14025   4.152   0.365  16.799  0.3072  0.4512 -0.3951
  130OSM   C15F14026   4.128   0.282  16.994 -0.1489 -0.4581  0.7262
  130OSM   H15F14027   4.075   0.373  17.028  0.9305  0.8371 -0.9331
  130OSM   H15G14028   4.236   0.298  17.018 -0.9863  2.3735  3.1373
  130OSM   C16F14029   4.070   0.160  17.068  0.2528 -0.3954  0.1006
  130OSM   H16F14030   4.149   0.082  17.063  2.6945  1.9200  0.1090
  130OSM   H16G14031   3.980   0.128  17.011 -0.4156 -0.3680  1.1128
  130OSM   C17F14032   4.023   0.178  17.209  0.0599  0.3513  0.2639
  130OSM   H17F14033   3.966   0.089  17.239  0.8996 -0.5937 -0.8339
  130OSM   H17G14034   3.955   0.266  17.209  2.1506  2.1795  3.1915
  130OSM   C18F14035   4.131   0.208  17.306 -0.4293  0.3519 -0.0739
  130OSM   H18F14036   4.213   0.136  17.286  1.2189  1.9048  0.7707
  130OSM   H18G14037   4.101   0.200  17.413 -1.4016  1.3802 -0.2405
  130OSM   H18H14038   4.160   0.314  17.292 -3.9285  2.0031  3.2123
  131OSM      N14039   2.879   2.372  16.144 -0.0797 -0.3968 -0.1541
  131OSM    C1514040   3.004   2.310  16.202 -0.6119  0.6124 -0.3819
  131OSM   H15A14041   2.977   2.223  16.260  1.4385  1.5045  2.0889
  131OSM   H15B14042   3.053   2.386  16.261  0.5617 -0.2954 -0.1466
  131OSM   H15C14043   3.067   2.280  16.119 -0.5540  1.7156 -0.7471
  131OSM    C1414044   2.925   2.482  16.044  0.1246  0.4879  0.5263
  131OSM   H14A14045   2.958   2.572  16.093 -0.2771  2.1802 -2.1297
  131OSM   H14B14046   2.840   2.503  15.982 -0.7436 -0.1714  1.4537
  131OSM   H14C14047   3.010   2.445  15.989  0.0697 -0.7859  1.2546
  131OSM    C1314048   2.818   2.256  16.068  0.0973  0.2789 -0.8420
  131OSM   H13A14049   2.750   2.287  15.990 -0.6645 -1.0338 -0.7222
  131OSM   H13B14050   2.777   2.176  16.128  3.4783 -1.0343 -0.0092
  131OSM   H13C14051   2.906   2.206  16.031 -0.6677 -1.7506 -0.0306
  131OSM    C1214052   2.784   2.424  16.248  0.0169 -0.4197  0.2220
  131OSM   H12A14053   2.764   2.344  16.317  2.0302  1.3890  3.1625
  131OSM   H12B14054   2.693   2.451  16.196  0.5139 -1.1983 -1.1148
  131OSM    C1114055   2.829   2.547  16.333  1.0362  0.0805  0.3335
  131OSM   H11A14056   2.737   2.570  16.390 -0.5674 -1.9027 -1.2940
  131OSM   H11B14057   2.859   2.634  16.271  2.6087 -0.9245 -0.3933
  131OSM      P14058   2.910   2.430  16.567  0.1520  0.3793  0.1827
  131OSM    O1314059   2.874   2.292  16.539  0.5424 -0.2255  0.0121
  131OSM    O1414060   3.036   2.447  16.647 -0.0934 -0.5982 -0.4448
  131OSM    O1114061   2.789   2.510  16.632  0.0983  0.5269  0.1880
  131OSM    O1214062   2.931   2.500  16.422  0.4954 -0.3399  0.0826
  131OSM    C1S14063   2.775   2.499  16.774  0.2389 -0.1408 -0.0248
  131OSM    H1S14064   2.872   2.491  16.827 -0.5517 -0.8187  1.3716
  131OSM    H1T14065   2.701   2.419  16.796 -1.5995  1.3428 -0.5363
  131OSM     NF14066   2.725   2.655  16.974 -0.2489 -0.0653  0.3856
  131OSM    HNF14067   2.644   2.637  17.030 -0.0480  1.5518  1.2602
  131OSM    C2S14068   2.713   2.631  16.833  0.0409 -0.6183  0.1959
  131OSM    H2S14069   2.782   2.708  16.792  2.9447 -3.4486 -0.7004
  131OSM    C3S14070   2.573   2.653  16.777  0.4344 -0.3263 -0.1437
  131OSM    H3S14071   2.494   2.595  16.830 -1.7765  1.3739 -1.3763
  131OSM     O314072   2.560   2.613  16.640 -0.1086  0.2427  0.0133
  131OSM    HO314073   2.651   2.595  16.618  0.0861 -1.0004  1.6674
  131OSM    C4S14074   2.525   2.798  16.793  0.6566 -0.0633  0.2013
  131OSM    H4S14075   2.603   2.872  16.771  1.0404 -0.3905  0.4535
  131OSM    C5S14076   2.404   2.851  16.821  1.2191  0.2423  0.0837
  131OSM    H5S14077   2.318   2.783  16.816 -1.5735  3.5383  0.0601
  131OSM    C6S14078   2.372   3.001  16.833  0.6410  0.4902 -0.1447
  131OSM    H6S14079   2.314   3.040  16.746  1.7177 -0.0931 -1.1634
  131OSM    H6T14080   2.470   3.053  16.831  2.5612 -2.8315 -1.8696
  131OSM    C7S14081   2.301   3.039  16.969 -0.5793  0.5166 -0.4747
  131OSM    H7S14082   2.300   3.149  16.986 -0.7276  0.3285  0.8869
  131OSM    H7T14083   2.352   2.994  17.057 -2.7656 -2.3803 -0.5190
  131OSM    C8S14084   2.160   2.995  16.966  0.0535  0.3074  0.0006
  131OSM    H8S14085   2.154   2.902  16.904  0.2816  1.6853 -2.1859
  131OSM    H8T14086   2.105   3.076  16.913  0.5860  1.9048  1.8367
  131OSM    C9S14087   2.097   2.967  17.102  0.1694  0.7086 -0.1235
  131OSM    H9S14088   2.133   2.868  17.137 -0.6488  0.1070 -0.9375
  131OSM    H9T14089   1.987   2.948  17.103 -0.1730  2.3179  2.4687
  131OSM   C10S14090   2.110   3.074  17.205 -0.3789 -0.4132 -0.5573
  131OSM   H10S14091   2.071   3.169  17.162 -1.8232 -0.4980  0.4685
  131OSM   H10T14092   2.218   3.078  17.228 -0.5280 -1.3164  0.3516
  131OSM   C11S14093   2.044   3.049  17.347  0.7245 -0.5081 -0.1596
  131OSM   H11S14094   2.083   2.948  17.371  0.2550 -0.0675  2.7864
  131OSM   H11T14095   1.934   3.056  17.337  0.7238  0.3468  0.3568
  131OSM   C12S14096   2.102   3.140  17.457  0.7209  0.1281 -0.8825
  131OSM   H12S14097   2.212   3.132  17.470  0.7245  2.3337  1.3284
  131OSM   H12T14098   2.045   3.122  17.551 -0.4364 -4.6170 -2.2259
  131OSM   C13S14099   2.094   3.290  17.425 -0.1525  0.0093  0.4298
  131OSM   H13S14100   1.994   3.315  17.383  0.8954  0.3346 -2.0017
  131OSM   H13T14101   2.170   3.325  17.353 -1.5581  2.9858  0.2392
  131OSM   C14S14102   2.128   3.376  17.550 -0.0030  0.1794 -0.0635
  131OSM   H14S14103   2.224   3.341  17.595  0.0012  0.2694 -0.0024
  131OSM   H14T14104   2.050   3.370  17.629  0.1488 -1.9876 -0.0241
  131OSM   C15S14105   2.166   3.517  17.523  0.4166  0.0700  0.5379
  131OSM   H15S14106   2.082   3.576  17.479  1.8291 -0.1600 -2.7771
  131OSM   H15T14107   2.245   3.526  17.445  0.1291  2.2880  0.4184
  131OSM   C16S14108   2.210   3.596  17.645 -0.2501  0.2721 -0.0538
  131OSM   H16S14109   2.300   3.556  17.696 -1.4626 -1.7498  0.6217
  131OSM   H16T14110   2.124   3.582  17.715 -0.5201 -1.8131 -0.7385
  131OSM   C17S14111   2.223   3.747  17.612  0.4117  0.4658 -0.2464
  131OSM   H17S14112   2.140   3.791  17.552 -0.7942  1.8857  2.2796
  131OSM   H17T14113   2.323   3.760  17.565  1.2214 -0.3010  1.2056
  131OSM   C18S14114   2.230   3.845  17.735 -0.3304 -0.7051 -0.0465
  131OSM   H18S14115   2.250   3.949  17.700 -0.2588 -0.6209  0.2431
  131OSM   H18T14116   2.314   3.804  17.794 -0.2502 -1.1940 -0.4925
  131OSM   H18U14117   2.139   3.840  17.798 -0.1716  0.8136  0.3675
  131OSM    C1F14118   2.838   2.667  17.037 -1.4993  0.1002 -0.4530
  131OSM     OF14119   2.944   2.659  16.977  0.2599 -0.8557 -0.3732
  131OSM    C2F14120   2.828   2.674  17.190 -0.2190  0.3673 -0.2552
  131OSM    H2F14121   2.825   2.567  17.221  0.5460  0.1015 -1.0203
  131OSM    H2G14122   2.732   2.719  17.221  0.4945 -0.3748  3.4242
  131OSM    C3F14123   2.949   2.745  17.250 -0.2236 -0.4970  0.4441
  131OSM    H3F14124   2.966   2.844  17.203 -1.4417 -1.7421 -3.0028
  131OSM    H3G14125   3.034   2.677  17.229  0.4666  0.2083  0.9317
  131OSM    C4F14126   2.933   2.755  17.409 -0.0799  0.1394  0.3197
  131OSM    H4F14127   2.903   2.656  17.449 -2.0909  0.5568 -0.0691
  131OSM    H4G14128   2.847   2.822  17.429 -0.0692  0.1356  0.3792
  131OSM    C5F14129   3.051   2.825  17.479 -0.0476 -0.8219 -0.1809
  131OSM    H5F14130   3.151   2.783  17.454 -0.6863 -2.7488  0.3603
  131OSM    H5G14131   3.034   2.818  17.588 -0.1063 -0.0106 -0.1265
  131OSM    C6F14132   3.056   2.974  17.443 -0.6134  0.7903 -0.5729
  131OSM    H6F14133   2.963   3.034  17.453 -1.1796  0.4287 -3.0368
  131OSM    H6G14134   3.082   2.975  17.335  5.0963 -0.1264  0.4864
  131OSM    C7F14135   3.172   3.050  17.507 -0.3789 -0.4564  0.1171
  131OSM    H7F14136   3.271   3.002  17.505  0.0175  0.2403  1.6662
  131OSM    H7G14137   3.126   3.064  17.607 -0.8449 -0.2025 -0.1214
  131OSM    C8F14138   3.194   3.185  17.433 -0.5367 -0.4003  0.3452
  131OSM    H8F14139   3.266   3.156  17.354 -1.0311 -0.0484 -0.2433
  131OSM    H8G14140   3.257   3.244  17.503 -0.7346 -0.2910  0.4306
  131OSM    C9F14141   3.086   3.277  17.380 -0.0227 -0.3815 -0.1388
  131OSM    H9F14142   3.019   3.225  17.309 -2.6179  1.2896  0.8985
  131OSM   C10F14143   3.059   3.410  17.404  0.2558  0.7746  0.3684
  131OSM   H10F14144   2.975   3.462  17.355  1.3077  2.0779 -0.1056
  131OSM   C11F14145   3.132   3.510  17.487 -0.3510  0.1406  0.3358
  131OSM   H11F14146   3.225   3.464  17.527 -0.4249  0.6834  1.1444
  131OSM   H11G14147   3.076   3.532  17.580 -1.9599  0.3611 -0.6480
  131OSM   C12F14148   3.165   3.639  17.416 -0.1126  0.2971 -0.2425
  131OSM   H12F14149   3.166   3.624  17.306  0.1633 -1.2369 -0.0627
  131OSM   H12G14150   3.259   3.681  17.457 -0.0041 -1.1550  1.1173
  131OSM   C13F14151   3.062   3.743  17.453  0.2404  0.0339 -0.4583
  131OSM   H13F14152   3.066   3.768  17.562 -0.4767 -1.8221  0.0318
  131OSM   H13G14153   2.967   3.688  17.435  0.6326 -1.3828  1.4774
  131OSM   C14F14154   3.066   3.879  17.381 -0.1133  0.6692  0.6745
  131OSM   H14F14155   3.152   3.936  17.421  1.2544 -2.1655  2.0181
  131OSM   H14G14156   2.979   3.939  17.417 -1.3441 -2.0669  2.6655
  131OSM   C15F14157   3.063   3.879  17.227  0.3760 -0.3566 -0.4182
  131OSM   H15F14158   2.962   3.846  17.195  0.3264  1.1123 -1.8792
  131OSM   H15G14159   3.135   3.797  17.207  1.3320  0.7164 -1.5009
  131OSM   C16F14160   3.094   4.005  17.149 -0.2556 -0.6317 -0.0190
  131OSM   H16F14161   3.117   3.970  17.047  0.6228 -0.4985  0.1241
  131OSM   H16G14162   3.189   4.044  17.192 -0.9752  2.1333 -0.7133
  131OSM   C17F14163   2.974   4.103  17.133  0.4713 -0.4899 -0.2013
  131OSM   H17F14164   2.945   4.135  17.235  1.6421 -1.1786  0.3755
  131OSM   H17G14165   2.882   4.049  17.104 -1.2471  0.3024  3.2643
  131OSM   C18F14166   3.000   4.209  17.022 -0.0852  0.1468  0.0930
  131OSM   H18F14167   2.913   4.277  17.003  0.3168  0.1813 -1.8360
  131OSM   H18G14168   3.019   4.159  16.925 -2.6039 -2.1491  0.6492
  131OSM   H18H14169   3.077   4.284  17.048  1.8796 -1.5411 -0.6278
  132OSM      N14170   1.260   2.134  21.235  0.9217  0.1355  0.4850
  132OSM    C1514171   1.231   2.018  21.145  0.0653  0.4374  0.1264
  132OSM   H15A14172   1.253   1.922  21.189 -1.0999 -1.6708 -3.4581
  132OSM   H15B14173   1.292   2.018  21.056  2.2674 -0.2698  1.5571
  132OSM   H15C14174   1.128   2.019  21.113 -0.0984 -0.1641  0.6338
  132OSM    C1414175   1.405   2.124  21.272 -0.2657  0.7720  0.3122
  132OSM   H14A14176   1.460   2.106  21.181  0.4460  1.9967  0.4707
  132OSM   H14B14177   1.416   2.046  21.347  1.6274  0.2682 -0.4213
  132OSM   H14C14178   1.443   2.212  21.321  0.1644 -0.7000  2.8052
  132OSM    C1314179   1.241   2.259  21.150  0.3287 -0.5020  0.1676
  132OSM   H13A14180   1.270   2.344  21.210  1.7484 -1.3075  0.6876
  132OSM   H13B14181   1.139   2.274  21.120  1.0357  1.0904 -1.6960
  132OSM   H13C14182   1.314   2.260  21.071  0.9609  0.5202  0.7369
  132OSM    C1214183   1.172   2.128  21.358  0.5355  0.7084 -0.3692
  132OSM   H12A14184   1.212   2.196  21.432 -0.2779 -0.2915  1.0161
  132OSM   H12B14185   1.169   2.024  21.384 -0.7736  0.4502 -1.4469
  132OSM    C1114186   1.026   2.177  21.340  0.5476  0.2620  0.1161
  132OSM   H11A14187   1.015   2.287  21.325 -0.7626  0.4361  2.0111
  132OSM   H11B14188   0.975   2.149  21.434 -1.0108  0.4216 -0.6565
  132OSM      P14189   0.843   2.160  21.146  0.3112  0.3963  0.1931
  132OSM    O1314190   0.884   2.274  21.068  0.5108  0.4895 -0.1539
  132OSM    O1414191   0.801   2.042  21.064  0.3222 -0.1123  0.5129
  132OSM    O1114192   0.739   2.200  21.254  0.3546  0.2789 -0.1351
  132OSM    O1214193   0.967   2.100  21.234  0.6319  0.0928 -0.9778
  132OSM    C1S14194   0.716   2.334  21.299  0.8409 -0.5991  0.1110
  132OSM    H1S14195   0.660   2.385  21.218 -0.1661 -1.0858  0.4875
  132OSM    H1T14196   0.806   2.395  21.323 -0.7237  1.6717  0.4922
  132OSM     NF14197   0.589   2.463  21.467 -0.1841  0.4016 -0.2277
  132OSM    HNF14198   0.649   2.508  21.532 -0.7412  1.9449 -0.7404
  132OSM    C2S14199   0.632   2.331  21.429  0.0592  0.5555  0.1250
  132OSM    H2S14200   0.533   2.282  21.416  0.9263 -0.6733 -2.5223
  132OSM    C3S14201   0.716   2.248  21.535 -0.7415 -0.0435  0.3095
  132OSM    H3S14202   0.820   2.287  21.541 -1.1708  1.0477  4.3154
  132OSM     O314203   0.737   2.112  21.510  0.1456  0.1060 -0.1367
  132OSM    HO314204   0.710   2.088  21.421 -0.8176  0.3270  0.0846
  132OSM    C4S14205   0.654   2.264  21.674 -0.4527  0.7966  0.8632
  132OSM    H4S14206   0.692   2.352  21.728  2.0613 -0.0434  0.6001
  132OSM    C5S14207   0.558   2.181  21.728 -0.1989  0.2120  0.0205
  132OSM    H5S14208   0.523   2.094  21.671  5.2061 -1.3747 -1.5267
  132OSM    C6S14209   0.494   2.208  21.858  0.0197  0.0435 -0.0897
  132OSM    H6S14210   0.495   2.114  21.918 -0.6812 -0.7986 -1.3573
  132OSM    H6T14211   0.386   2.229  21.849 -0.7870 -1.7341  3.4311
  132OSM    C7S14212   0.548   2.337  21.933  0.3866 -0.4218  0.3505
  132OSM    H7S14213   0.534   2.431  21.876 -2.4568  0.9124  2.9697
  132OSM    H7T14214   0.659   2.332  21.945  0.3875 -0.8711  0.1883
  132OSM    C8S14215   0.484   2.375  22.070  0.6849  0.0357  0.0215
  132OSM    H8S14216   0.496   2.292  22.142  2.4638 -0.6482 -1.0047
  132OSM    H8T14217   0.377   2.391  22.044  0.6738 -0.9510 -0.5806
  132OSM    C9S14218   0.535   2.506  22.128 -0.2705 -0.3257  0.2921
  132OSM    H9S14219   0.472   2.536  22.214 -1.8463 -1.1599 -0.5313
  132OSM    H9T14220   0.528   2.593  22.060 -0.7026 -1.1130 -0.6841
  132OSM   C10S14221   0.679   2.488  22.183  0.7069 -0.9520  0.3496
  132OSM   H10S14222   0.740   2.453  22.096 -0.4097 -0.7568 -0.5335
  132OSM   H10T14223   0.679   2.409  22.261  0.3388 -2.0164 -0.7030
  132OSM   C11S14224   0.742   2.623  22.239 -0.5184  0.1801  0.0579
  132OSM   H11S14225   0.760   2.691  22.153 -1.1616 -0.6283 -0.7394
  132OSM   H11T14226   0.838   2.590  22.283 -0.9239 -1.5385 -0.2681
  132OSM   C12S14227   0.659   2.698  22.343  0.1559 -0.0939 -0.2609
  132OSM   H12S14228   0.567   2.753  22.312 -0.3157 -0.8813 -0.2897
  132OSM   H12T14229   0.717   2.777  22.395  0.8838 -0.4167 -0.5659
  132OSM   C13S14230   0.611   2.616  22.464 -0.0765 -0.3578 -0.4123
  132OSM   H13S14231   0.692   2.564  22.519  0.2251 -1.0189 -1.4623
  132OSM   H13T14232   0.540   2.533  22.443 -1.3847  0.6236 -0.0496
  132OSM   C14S14233   0.535   2.707  22.566 -0.0434 -0.0776  0.2460
  132OSM   H14S14234   0.607   2.786  22.596 -1.7704  1.7364 -0.2058
  132OSM   H14T14235   0.522   2.651  22.661  2.0442  2.8334  2.4125
  132OSM   C15S14236   0.402   2.765  22.525  0.4559 -0.3699 -0.7383
  132OSM   H15S14237   0.331   2.685  22.494 -0.4614  0.9330 -2.1797
  132OSM   H15T14238   0.420   2.844  22.449 -2.1008 -0.0088 -1.0525
  132OSM   C16S14239   0.331   2.834  22.643  0.2447 -0.0388 -0.0070
  132OSM   H16S14240   0.338   2.766  22.730 -0.6588 -2.2744 -1.6038
  132OSM   H16T14241   0.225   2.853  22.617  0.0786 -1.4996 -0.4743
  132OSM   C17S14242   0.392   2.973  22.673  0.0694 -0.0453 -0.4529
  132OSM   H17S14243   0.386   3.026  22.576  0.1551  0.9134  0.0528
  132OSM   H17T14244   0.501   2.959  22.692  0.3696 -4.0450 -3.8587
  132OSM   C18S14245   0.332   3.063  22.790  0.1946  0.1961 -0.7394
  132OSM   H18S14246   0.385   3.043  22.886  1.8555 -0.3321 -1.7205
  132OSM   H18T14247   0.225   3.039  22.807  0.3714  0.6261  1.2635
  132OSM   H18U14248   0.346   3.171  22.773  2.6101 -0.3652 -2.8901
  132OSM    C1F14249   0.487   2.524  21.399  0.5062  0.4053 -0.0696
  132OSM     OF14250   0.438   2.478  21.298  0.1946 -0.0272  0.7015
  132OSM    C2F14251   0.434   2.649  21.463 -0.4239 -0.0662 -0.6554
  132OSM    H2F14252   0.509   2.680  21.539  0.1311 -2.1240 -0.3033
  132OSM    H2G14253   0.350   2.611  21.525  0.1286 -0.2781 -0.0264
  132OSM    C3F14254   0.385   2.748  21.352  0.4317  0.2903 -0.7080
  132OSM    H3F14255   0.314   2.701  21.280  1.0627  0.7448 -1.6449
  132OSM    H3G14256   0.471   2.777  21.288  2.2420 -1.9071  0.5893
  132OSM    C4F14257   0.314   2.865  21.428  0.6287  0.2216  0.0435
  132OSM    H4F14258   0.372   2.897  21.517  1.8936  0.0789 -0.7174
  132OSM    H4G14259   0.216   2.832  21.470  0.9375 -1.4712 -0.5006
  132OSM    C5F14260   0.287   2.980  21.325  0.4259  0.3791 -0.6621
  132OSM    H5F14261   0.210   3.051  21.361  0.5650  0.0697  0.2661
  132OSM    H5G14262   0.236   2.931  21.239  0.0718  1.1457 -0.8993
  132OSM    C6F14263   0.410   3.051  21.276 -0.1964 -0.4140  0.5375
  132OSM    H6F14264   0.373   3.120  21.197  1.0562  0.4421  0.6875
  132OSM    H6G14265   0.466   2.962  21.239 -1.5434 -1.0774  0.0083
  132OSM    C7F14266   0.488   3.129  21.385  0.5186 -0.0048  0.5418
  132OSM    H7F14267   0.526   3.054  21.459 -1.0872 -0.9993  0.4151
  132OSM    H7G14268   0.431   3.212  21.431  0.4460 -1.2495  2.8712
  132OSM    C8F14269   0.629   3.176  21.332  0.1394 -0.2739 -0.7871
  132OSM    H8F14270   0.672   3.084  21.289 -0.3154 -0.8678 -0.0117
  132OSM    H8G14271   0.701   3.205  21.412 -0.3326 -3.1638  0.8281
  132OSM    C9F14272   0.622   3.283  21.231 -0.2526 -0.4461  0.6193
  132OSM    H9F14273   0.567   3.246  21.143  0.7547 -1.0838  0.2365
  132OSM   C10F14274   0.659   3.413  21.247 -0.5595  0.8807 -0.2508
  132OSM   H10F14275   0.635   3.486  21.169  1.2478  0.4397 -1.2594
  132OSM   C11F14276   0.728   3.469  21.372 -0.6989  0.3045  0.2281
  132OSM   H11F14277   0.825   3.507  21.336  0.2498 -1.2024  1.0719
  132OSM   H11G14278   0.756   3.393  21.449 -1.0402 -1.2386 -1.1117
  132OSM   C12F14279   0.649   3.573  21.448 -0.4297 -0.1669  0.7756
  132OSM   H12F14280   0.540   3.551  21.462 -0.8714  2.5222  2.1664
  132OSM   H12G14281   0.657   3.667  21.390 -2.8605  1.6962  3.1798
  132OSM   C13F14282   0.704   3.594  21.586  0.2662  0.1892  0.1302
  132OSM   H13F14283   0.814   3.601  21.586  0.2432  0.5353  0.2746
  132OSM   H13G14284   0.677   3.502  21.642 -1.6517  0.7026  0.1267
  132OSM   C14F14285   0.641   3.709  21.662 -1.1971 -0.3988  0.5826
  132OSM   H14F14286   0.688   3.706  21.763  0.0990  1.1828  0.0764
  132OSM   H14G14287   0.532   3.694  21.673 -0.9530 -2.4653  0.4841
  132OSM   C15F14288   0.694   3.847  21.619  1.1044  0.0237 -0.3340
  132OSM   H15F14289   0.660   3.869  21.516 -3.0590  1.9740  1.2359
  132OSM   H15G14290   0.804   3.840  21.605  1.2834  2.0173 -0.2014
  132OSM   C16F14291   0.670   3.970  21.705  0.5677 -0.1776  0.5192
  132OSM   H16F14292   0.693   3.950  21.812 -0.6025 -1.5081  0.5584
  132OSM   H16G14293   0.563   3.999  21.692  0.9768  1.0112 -0.3674
  132OSM   C17F14294   0.760   4.094  21.678 -0.3414  0.4098  0.4339
  132OSM   H17F14295   0.764   4.093  21.567 -1.2561 -0.9579  0.3841
  132OSM   H17G14296   0.864   4.064  21.702  0.2764  1.3120 -1.0424
  132OSM   C18F14297   0.710   4.223  21.740  0.7287 -0.8278  0.2356
  132OSM   H18F14298   0.604   4.243  21.713 -0.1655 -2.7541  2.0233
  132OSM   H18G14299   0.772   4.307  21.702 -0.1384 -1.2167 -2.2444
  132OSM   H18H14300   0.709   4.218  21.851  1.8721  1.2272  0.3752
  133SAPE     N14301   3.478   3.863  24.613 -0.3276  0.2488  0.1447
  133SAPE   HN114302   3.498   3.905  24.521  2.3366 -0.4667  0.3196
  133SAPE   HN214303   3.566   3.822  24.651  0.1443  0.9062 -0.2187
  133SAPE   HN314304   3.404   3.790  24.609  0.8211 -0.9759  0.5209
  133SAPE   C1214305   3.434   3.975  24.702 -0.1285 -0.5194 -0.0130
  133SAPE  H12A14306   3.337   4.011  24.663 -0.4135 -1.2956 -0.0318
  133SAPE  H12B14307   3.504   4.061  24.706 -1.0513  0.2200  0.6256
  133SAPE   C1114308   3.425   3.928  24.852 -0.3789 -1.0715  0.8182
  133SAPE  H11A14309   3.385   4.015  24.908 -0.6883 -0.9041  0.3434
  133SAPE  H11B14310   3.524   3.906  24.898  1.0830  0.4177 -1.3736
  133SAPE     P14311   3.281   3.780  25.005 -0.3682 -0.2654  0.1381
  133SAPE   O1314312   3.388   3.798  25.105  0.4049  0.0212 -0.1237
  133SAPE   O1414313   3.153   3.850  25.027 -0.0366  0.4883  0.0017
  133SAPE   O1214314   3.339   3.821  24.865  0.1312  0.5827  0.2230
  133SAPE   O1114315   3.240   3.628  24.985  0.1382 -1.0272 -0.1895
  133SAPE    C114316   3.234   3.569  24.861  0.2028  0.0344  0.0784
  133SAPE    HA14317   3.159   3.623  24.799 -0.6542  1.1817  2.0131
  133SAPE    HB14318   3.336   3.574  24.818  0.3776  2.1995  0.6148
  133SAPE    C214319   3.189   3.419  24.878  0.6282  0.8763 -0.1695
  133SAPE    HS14320   3.162   3.391  24.774 -4.2663  4.2566 -0.1190
  133SAPE   O2114321   3.071   3.401  24.962  0.0923  0.2848 -0.2371
  133SAPE   C2114322   2.962   3.459  24.914  0.4483 -0.4145 -0.5291
  133SAPE   O2214323   2.945   3.514  24.806 -0.0835 -0.0297 -0.4330
  133SAPE   C2214324   2.840   3.419  25.009 -0.0885 -0.6828  0.4469
  133SAPE   H2R14325   2.858   3.313  25.035  4.0432  0.3019  2.4108
  133SAPE   H2S14326   2.847   3.472  25.107  2.8864 -0.9658  0.4954
  133SAPE    C314327   3.308   3.322  24.919  0.6110  0.4187  0.3145
  133SAPE    HX14328   3.265   3.221  24.938 -2.4128  2.1533  4.0094
  133SAPE    HY14329   3.347   3.362  25.015 -2.4564 -1.8687  2.7256
  133SAPE   O3114330   3.416   3.335  24.824  0.2466 -0.3569 -0.5493
  133SAPE   C3114331   3.485   3.236  24.773  0.0973 -0.0830  0.2157
  133SAPE   O3214332   3.474   3.118  24.800  0.0287 -0.1427 -0.0569
  133SAPE   C3214333   3.588   3.292  24.669 -0.3046  0.2060  0.1793
  133SAPE   H2X14334   3.688   3.291  24.717  0.7247 -0.2014 -1.8712
  133SAPE   H2Y14335   3.551   3.394  24.646  0.6075  1.0746  2.3577
  133SAPE   C2314336   2.703   3.438  24.945 -0.0584 -0.2049 -0.6388
  133SAPE   H3R14337   2.697   3.529  24.882 -1.2868  1.2959  1.5270
  133SAPE   H3S14338   2.631   3.454  25.028 -1.0467  2.4882 -1.9244
  133SAPE   C2414339   2.656   3.326  24.854  0.4317  0.0045 -0.0607
  133SAPE   H4R14340   2.729   3.328  24.771  2.6039 -1.9072  1.6817
  133SAPE   H4S14341   2.561   3.365  24.810  0.6454  0.5927 -0.0145
  133SAPE   C2514342   2.648   3.198  24.924  0.1582 -0.1174 -0.0917
  133SAPE   H5R14343   2.587   3.201  25.016 -1.2915 -2.0354 -0.9260
  133SAPE   C2614344   2.702   3.084  24.894 -0.2897  0.5299  0.0717
  133SAPE   H6R14345   2.673   3.002  24.962 -2.8399  0.8841 -0.4941
  133SAPE   C2714346   2.779   3.045  24.766 -0.0802  0.2353  0.1687
  133SAPE   H7R14347   2.786   3.131  24.696 -1.4857  1.1485  1.0932
  133SAPE   H7S14348   2.726   2.962  24.714  2.3275 -2.7558  2.0949
  133SAPE   C2814349   2.916   2.998  24.805 -0.1496  0.4533 -0.1395
  133SAPE   H8R14350   2.925   2.936  24.895  1.3231 -0.0072 -0.5771
  133SAPE   C2914351   3.031   3.013  24.739 -0.5578 -0.5849  0.3358
  133SAPE   H9R14352   3.121   2.959  24.773  1.8647  3.0992  0.4293
  133SAPE  C21014353   3.048   3.089  24.612 -0.1100 -0.0479  0.8560
  133SAPE  H10R14354   3.050   3.197  24.638 -0.5367  0.8075 -2.1888
  133SAPE  H10S14355   2.963   3.070  24.543  0.0640 -1.4934  1.0148
  133SAPE  C21114356   3.172   3.070  24.527  0.4138 -0.1784 -0.1241
  133SAPE  H11R14357   3.251   3.147  24.534  1.0258 -0.8564  0.4671
  133SAPE  C21214358   3.203   2.954  24.464 -0.2379 -0.0824 -0.0062
  133SAPE  H12R14359   3.299   2.945  24.411 -0.8117 -1.1817 -0.9162
  133SAPE  C21314360   3.101   2.841  24.441 -0.0119  0.4113  1.0069
  133SAPE  H13R14361   2.997   2.878  24.455  0.0867  1.5101 -0.8326
  133SAPE  H13S14362   3.129   2.760  24.511  1.3001 -0.7815 -0.8179
  133SAPE  C21414363   3.111   2.780  24.308 -0.4176 -0.7457  0.1196
  133SAPE  H14R14364   3.037   2.824  24.239 -0.7840  0.2348  1.1264
  133SAPE  C21514365   3.202   2.702  24.247 -0.7017  1.1395  0.0052
  133SAPE  H15R14366   3.196   2.665  24.143  0.0933 -0.5864  0.5252
  133SAPE  C21614367   3.330   2.656  24.317  0.2794  0.0923 -0.3131
  133SAPE  H16R14368   3.299   2.614  24.415 -1.1446 -1.9705 -1.5608
  133SAPE  H16S14369   3.394   2.745  24.338 -0.3806  0.6758 -0.7228
  133SAPE  C21714370   3.398   2.543  24.238  0.4607  0.2359  0.5915
  133SAPE  H17R14371   3.487   2.517  24.298 -0.3935 -2.5234  0.8237
  133SAPE  H17S14372   3.429   2.575  24.136 -0.8980 -0.5100 -0.0874
  133SAPE  C21814373   3.317   2.414  24.221  0.7255  0.1102 -0.3621
  133SAPE  H18R14374   3.222   2.420  24.164  0.4242  0.7595  0.1893
  133SAPE  H18S14375   3.279   2.387  24.322 -0.2430  0.1308 -0.7126
  133SAPE  C21914376   3.395   2.295  24.151 -0.0265  0.2029 -0.1347
  133SAPE  H19R14377   3.420   2.324  24.047  0.7480  0.6568  0.1718
  133SAPE  H19S14378   3.322   2.213  24.135 -0.3721  0.8549 -2.2046
  133SAPE  C22014379   3.511   2.228  24.227 -0.4920  0.4585  0.0578
  133SAPE  H20R14380   3.596   2.298  24.235 -1.5257  1.6163  1.5845
  133SAPE  H20S14381   3.552   2.133  24.185  0.7611  1.0764 -0.1462
  133SAPE  H20T14382   3.479   2.207  24.332 -3.0845 -0.4314 -0.8268
  133SAPE   C3314383   3.591   3.222  24.530  0.1213 -0.6358  0.3830
  133SAPE   H3X14384   3.637   3.291  24.456 -2.0056 -0.8125 -1.1781
  133SAPE   H3Y14385   3.488   3.206  24.493 -0.0562  0.8566  0.1802
  133SAPE   C3414386   3.670   3.095  24.516 -0.2695  0.2299 -0.2416
  133SAPE   H4X14387   3.644   3.016  24.590  0.5660 -1.2677 -1.4782
  133SAPE   H4Y14388   3.779   3.111  24.532 -0.3900  0.2917  0.5875
  133SAPE   C3514389   3.662   3.030  24.376 -0.1116 -0.0304  0.8115
  133SAPE   H5X14390   3.740   3.078  24.312 -0.4650 -1.5360 -0.8321
  133SAPE   H5Y14391   3.564   3.050  24.329  0.7326 -0.8166 -1.4650
  133SAPE   C3614392   3.680   2.882  24.385 -0.4359  0.2738 -0.1500
  133SAPE   H6X14393   3.606   2.835  24.453  0.2647  0.5834  0.8415
  133SAPE   H6Y14394   3.781   2.853  24.420 -1.0147  0.4369  1.7954
  133SAPE   C3714395   3.650   2.807  24.253  0.4104 -0.4757  0.0701
  133SAPE   H7X14396   3.558   2.858  24.216 -0.0404 -1.3406 -0.0175
  133SAPE   H7Y14397   3.636   2.698  24.265  0.1305 -0.8257 -2.7804
  133SAPE   C3814398   3.760   2.833  24.144  0.6822 -0.3432 -0.2542
  133SAPE   H8X14399   3.777   2.940  24.122 -1.2686  0.6279  2.4151
  133SAPE   H8Y14400   3.731   2.786  24.048  4.3363 -0.4602 -1.4433
  133SAPE   C3914401   3.901   2.780  24.180 -0.2518  0.1504 -0.0969
  133SAPE   H9X14402   3.889   2.681  24.229  0.1031  0.3527  0.3985
  133SAPE   H9Y14403   3.945   2.843  24.260  0.4970 -0.3864 -0.0769
  133SAPE  C31014404   3.997   2.770  24.063 -0.7113  0.0517 -0.1386
  133SAPE  H10X14405   4.027   2.873  24.036  0.1261 -0.3959 -0.9578
  133SAPE  H10Y14406   3.940   2.720  23.982 -1.7721 -1.2568  1.3461
  133SAPE  C31114407   4.133   2.690  24.091 -0.5448 -0.6282 -0.3578
  133SAPE  H11X14408   4.115   2.584  24.121 -1.8922 -0.6519 -1.1704
  133SAPE  H11Y14409   4.185   2.742  24.174 -1.2545 -0.4818  0.0080
  133SAPE  C31214410   4.237   2.702  23.976 -0.6115 -0.4004  0.0900
  133SAPE  H12X14411   4.342   2.671  23.995 -0.6956 -0.4056  0.5667
  133SAPE  H12Y14412   4.236   2.812  23.959  0.5289 -0.4319 -0.2574
  133SAPE  C31314413   4.194   2.632  23.846 -0.3429 -0.6135  0.6246
  133SAPE  H13X14414   4.087   2.641  23.817  0.5615  0.9398 -2.7270
  133SAPE  H13Y14415   4.221   2.527  23.869 -0.4927 -0.7806  0.0539
  133SAPE  C31414416   4.276   2.670  23.726  0.2072 -0.2193 -0.2617
  133SAPE  H14X14417   4.382   2.690  23.751  0.0397  2.0373 -1.0963
  133SAPE  H14Y14418   4.225   2.763  23.693  0.4203  0.7179  1.8849
  133SAPE  C31514419   4.258   2.571  23.611 -0.6468 -0.1818 -0.1777
  133SAPE  H15X14420   4.298   2.619  23.519 -1.2269 -2.1251 -1.5055
  133SAPE  H15Y14421   4.150   2.550  23.599 -0.5150 -1.4881  0.7165
  133SAPE  C31614422   4.339   2.444  23.643  0.0721  0.6398  0.3564
  133SAPE  H16X14423   4.291   2.398  23.732  1.3414  2.7979  2.2741
  133SAPE  H16Y14424   4.443   2.472  23.672  1.4494 -1.9260 -1.6734
  133SAPE  C31714425   4.352   2.336  23.524 -0.4787  0.1355  0.3230
  133SAPE  H17X14426   4.251   2.321  23.480 -0.0176 -4.4885  0.4154
  133SAPE  H17Y14427   4.378   2.233  23.556 -1.3554 -0.0514  0.4600
  133SAPE  C31814428   4.455   2.393  23.413  0.3723  0.2339 -0.0449
  133SAPE  H18X14429   4.466   2.312  23.338  0.0856  1.2456 -1.1965
  133SAPE  H18Y14430   4.556   2.412  23.455  0.3362 -0.5579  0.4277
  133SAPE  H18Z14431   4.426   2.483  23.356 -1.4711 -1.2838 -1.6520
  134SAPE     N14432   0.401   3.396  26.214  0.1200  0.5408  0.1446
  134SAPE   HN114433   0.440   3.460  26.286  1.3550 -0.5743  0.4963
  134SAPE   HN214434   0.466   3.346  26.149 -0.8884  0.6312 -0.9738
  134SAPE   HN314435   0.346   3.460  26.152  0.3320  2.1981  1.6007
  134SAPE   C1214436   0.307   3.301  26.292 -0.4631 -0.3551 -0.3931
  134SAPE  H12A14437   0.251   3.356  26.371 -0.6323  1.8092 -1.9242
  134SAPE  H12B14438   0.377   3.223  26.328  2.0970  0.7784 -2.5972
  134SAPE   C1114439   0.200   3.227  26.198 -0.6845  0.5828 -0.0172
  134SAPE  H11A14440   0.149   3.153  26.263 -0.4971 -0.4052 -0.9669
  134SAPE  H11B14441   0.266   3.179  26.123 -0.2995  0.2391  0.5405
  134SAPE     P14442   0.121   3.384  25.998  0.1017  0.2482  0.0721
  134SAPE   O1314443  -0.009   3.435  25.955 -0.1571  0.5545  0.4662
  134SAPE   O1414444   0.236   3.476  26.007  0.0201  0.2944 -0.6416
  134SAPE   O1214445   0.108   3.330  26.149 -0.1591 -0.1419 -0.0411
  134SAPE   O1114446   0.162   3.256  25.915  0.5081 -0.6563  0.4239
  134SAPE    C114447   0.287   3.252  25.836  0.1565 -0.0490 -0.6120
  134SAPE    HA14448   0.321   3.355  25.812  0.6945  0.2567  1.2435
  134SAPE    HB14449   0.369   3.227  25.907  1.2823  0.2488 -1.7673
  134SAPE    C214450   0.294   3.156  25.721  0.5499 -0.0414  0.0852
  134SAPE    HS14451   0.227   3.200  25.643  2.4977  2.8859 -0.1031
  134SAPE   O2114452   0.257   3.022  25.772 -0.2810 -0.1401  0.2823
  134SAPE   C2114453   0.135   2.998  25.752 -0.5820  0.2114 -0.5364
  134SAPE   O2214454   0.057   3.062  25.686 -0.2902  0.2040  0.2717
  134SAPE   C2214455   0.119   2.855  25.804  0.5186 -0.3983  0.4810
  134SAPE   H2R14456   0.136   2.786  25.718 -0.3482 -0.9797  0.7587
  134SAPE   H2S14457   0.199   2.825  25.874 -0.9349 -2.3916  1.3710
  134SAPE    C314458   0.436   3.167  25.660  0.2824  0.2919  0.2642
  134SAPE    HX14459   0.506   3.141  25.743 -0.8226  1.2987  1.5560
  134SAPE    HY14460   0.464   3.269  25.625  0.7724  0.0589 -0.0392
  134SAPE   O3114461   0.466   3.084  25.551 -0.4479 -0.3210  0.3871
  134SAPE   C3114462   0.398   3.105  25.435 -0.3874  0.3474  0.1704
  134SAPE   O3214463   0.311   3.187  25.420 -0.0305  0.2973  0.1336
  134SAPE   C3214464   0.425   3.003  25.331 -0.2996 -0.6221  0.0820
  134SAPE   H2X14465   0.472   3.061  25.249  1.3366 -0.7639  0.8577
  134SAPE   H2Y14466   0.339   2.949  25.288  0.2508 -0.5765 -1.1256
  134SAPE   C2314467  -0.022   2.830  25.864  0.0277 -0.7022  0.0418
  134SAPE   H3R14468  -0.025   2.724  25.898 -1.3098 -0.1823  1.6996
  134SAPE   H3S14469  -0.102   2.835  25.787 -0.1989  0.8995  0.3584
  134SAPE   C2414470  -0.071   2.930  25.980 -0.9233  0.8843 -0.1098
  134SAPE   H4R14471  -0.108   3.023  25.933 -1.5668  1.3245  1.2174
  134SAPE   H4S14472   0.021   2.964  26.033  0.0687 -0.7933 -0.6659
  134SAPE   C2514473  -0.169   2.861  26.073 -0.0713  0.4411  0.3643
  134SAPE   H5R14474  -0.125   2.808  26.158  2.4266 -0.2198 -1.2375
  134SAPE   C2614475  -0.304   2.865  26.068 -0.3405  0.2554 -0.1394
  134SAPE   H6R14476  -0.354   2.790  26.130 -0.6062  0.3871 -0.1929
  134SAPE   C2714477  -0.378   2.960  25.974 -0.2565 -0.4274  0.4592
  134SAPE   H7R14478  -0.314   2.981  25.886 -1.8657  2.3618 -0.1608
  134SAPE   H7S14479  -0.386   3.053  26.034 -1.3163 -0.1266 -0.1314
  134SAPE   C2814480  -0.517   2.910  25.945  0.6775 -0.3737  0.6374
  134SAPE   H8R14481  -0.579   2.926  26.035  0.4004  0.1589  0.3585
  134SAPE   C2914482  -0.566   2.864  25.833  0.6538  0.7469  0.1187
  134SAPE   H9R14483  -0.672   2.840  25.817  0.8521  0.1886 -0.4438
  134SAPE  C21014484  -0.490   2.839  25.705  0.4640 -0.0290  0.7705
  134SAPE  H10R14485  -0.511   2.742  25.655  0.9489  0.7456 -1.0078
  134SAPE  H10S14486  -0.381   2.847  25.726  0.8493 -0.4992 -0.9101
  134SAPE  C21114487  -0.529   2.959  25.617  0.3838 -0.2789 -0.1872
  134SAPE  H11R14488  -0.499   3.052  25.668  1.0728  0.2655 -1.5223
  134SAPE  C21214489  -0.603   2.960  25.505 -0.3645 -0.1690 -0.3279
  134SAPE  H12R14490  -0.640   3.056  25.468 -3.4262 -0.5392  1.4336
  134SAPE  C21314491  -0.656   2.838  25.431  0.6312 -0.1119 -0.0722
  134SAPE  H13R14492  -0.577   2.769  25.394  2.1556  1.1534  0.6905
  134SAPE  H13S14493  -0.709   2.875  25.341  0.8472 -1.0461 -0.5923
  134SAPE  C21414494  -0.754   2.767  25.527  0.3579 -0.0679  0.0754
  134SAPE  H14R14495  -0.795   2.832  25.607 -0.3011 -0.5181  0.1092
  134SAPE  C21514496  -0.793   2.640  25.523 -0.8524 -0.3921  0.6202
  134SAPE  H15R14497  -0.849   2.589  25.603  0.4128  0.4107  2.0520
  134SAPE  C21614498  -0.765   2.542  25.408 -0.1431 -0.3655 -0.4776
  134SAPE  H16R14499  -0.723   2.590  25.317  1.9680  1.6214  1.4419
  134SAPE  H16S14500  -0.869   2.513  25.381 -0.6358 -0.6710  1.5981
  134SAPE  C21714501  -0.691   2.415  25.430  0.3362 -0.6420  1.5033
  134SAPE  H17R14502  -0.743   2.360  25.512 -0.3166  0.2547  1.7016
  134SAPE  H17S14503  -0.586   2.437  25.457  0.5450  1.0463 -0.4460
  134SAPE  C21814504  -0.691   2.314  25.304 -0.4225 -0.1615  0.1397
  134SAPE  H18R14505  -0.790   2.298  25.257 -0.5296 -1.6606  0.8337
  134SAPE  H18S14506  -0.650   2.215  25.335  1.7371 -0.1549 -2.3543
  134SAPE  C21914507  -0.605   2.364  25.193  0.2121  0.4634  0.2021
  134SAPE  H19R14508  -0.508   2.382  25.243  0.3214 -0.8510  0.4797
  134SAPE  H19S14509  -0.638   2.459  25.146 -0.8496 -0.2572 -0.5643
  134SAPE  C22014510  -0.583   2.250  25.092 -0.1058  1.0854 -0.4371
  134SAPE  H20R14511  -0.568   2.149  25.137  0.3644 -0.4020 -3.6720
  134SAPE  H20S14512  -0.502   2.276  25.020  1.1184  0.7025  0.7519
  134SAPE  H20T14513  -0.678   2.220  25.043  0.8055 -3.5084  0.1272
  134SAPE   C3314514   0.528   2.897  25.375 -0.4773 -0.8563 -0.3485
  134SAPE   H3X14515   0.485   2.827  25.450 -0.8843  0.2700  0.4903
  134SAPE   H3Y14516   0.627   2.930  25.413 -0.5522  1.6705 -2.0967
  134SAPE   C3414517   0.555   2.809  25.248 -0.0283  0.4104  0.3125
  134SAPE   H4X14518   0.638   2.851  25.187  0.0128  1.7858  1.2806
  134SAPE   H4Y14519   0.465   2.812  25.182  0.5725 -0.9526 -0.6101
  134SAPE   C3514520   0.560   2.658  25.283  0.4502 -0.2147 -0.2465
  134SAPE   H5X14521   0.465   2.609  25.314  0.5262 -0.8879 -1.0298
  134SAPE   H5Y14522   0.628   2.648  25.370  0.8842  0.8227 -0.4513
  134SAPE   C3614523   0.604   2.563  25.168  0.6232  0.3205 -0.2123
  134SAPE   H6X14524   0.696   2.605  25.123 -0.3371  1.0023 -1.6232
  134SAPE   H6Y14525   0.527   2.562  25.088  1.0564  1.0590 -0.6408
  134SAPE   C3714526   0.618   2.420  25.208 -0.0359 -0.1450 -0.1955
  134SAPE   H7X14527   0.637   2.406  25.317  1.5117  2.6173 -0.0173
  134SAPE   H7Y14528   0.707   2.379  25.155  0.4473  0.1527  0.3782
  134SAPE   C3814529   0.495   2.343  25.157  0.0620  0.0800 -0.7443
  134SAPE   H8X14530   0.495   2.342  25.046 -1.1289 -1.4097 -0.7611
  134SAPE   H8Y14531   0.403   2.394  25.195  0.0187 -0.9132  0.5731
  134SAPE   C3914532   0.491   2.197  25.212  0.7095 -0.9241  0.1968
  134SAPE   H9X14533   0.586   2.147  25.186  1.0716  0.5449 -1.4839
  134SAPE   H9Y14534   0.401   2.145  25.172  0.5046  1.0627 -2.2074
  134SAPE  C31014535   0.490   2.191  25.370 -0.2397 -1.3626  0.1587
  134SAPE  H10X14536   0.407   2.254  25.408  1.5379  0.5538  1.0950
  134SAPE  H10Y14537   0.585   2.231  25.410 -0.5901 -0.3234 -0.0299
  134SAPE  C31114538   0.463   2.051  25.431 -0.0313  0.4724 -0.4730
  134SAPE  H11X14539   0.558   1.995  25.412  0.2069  1.1006 -1.1801
  134SAPE  H11Y14540   0.370   2.007  25.390  0.0689  0.8309 -1.0934
  134SAPE  C31214541   0.435   2.057  25.584 -0.9930  0.1598 -0.6254
  134SAPE  H12X14542   0.415   1.954  25.620  1.5064 -0.4608 -0.8172
  134SAPE  H12Y14543   0.345   2.121  25.596 -1.7805 -0.9690 -0.3765
  134SAPE  C31314544   0.552   2.115  25.668  0.2726  0.6120 -0.6228
  134SAPE  H13X14545   0.541   2.225  25.653 -1.2093  0.7688  1.2060
  134SAPE  H13Y14546   0.650   2.078  25.632  0.8827  0.6824  0.8943
  134SAPE  C31414547   0.544   2.085  25.820  0.5990 -0.6137 -0.1538
  134SAPE  H14X14548   0.553   1.975  25.832 -1.4761 -0.8140 -0.0845
  134SAPE  H14Y14549   0.444   2.113  25.860  1.6057 -0.8217  2.7868
  134SAPE  C31514550   0.655   2.152  25.895 -0.1119  0.1246 -0.1181
  134SAPE  H15X14551   0.754   2.117  25.859  0.3619  0.9208  0.3746
  134SAPE  H15Y14552   0.653   2.126  26.003  2.2019  1.4495  0.3040
  134SAPE  C31614553   0.653   2.309  25.904 -0.2140 -1.0942 -0.0948
  134SAPE  H16X14554   0.552   2.346  25.934  0.6274  2.2077 -0.9806
  134SAPE  H16Y14555   0.670   2.353  25.803 -0.0110 -1.2697 -0.1358
  134SAPE  C31714556   0.749   2.373  26.007 -0.0270 -0.1312 -0.2091
  134SAPE  H17X14557   0.726   2.351  26.113  0.9116  1.7847  0.4397
  134SAPE  H17Y14558   0.716   2.478  25.989 -0.4142 -0.5088 -1.8973
  134SAPE  C31814559   0.898   2.343  25.987 -0.5595 -0.8672 -1.0965
  134SAPE  H18X14560   0.927   2.356  25.881  0.5753  2.5820 -0.4998
  134SAPE  H18Y14561   0.917   2.235  26.009 -2.1320 -1.0403 -0.5012
  134SAPE  H18Z14562   0.960   2.411  26.049 -2.8488 -0.1072  0.4601
  135SAPE     N14563   2.037   3.705  30.171  0.7002 -0.2141  0.1391
  135SAPE   HN114564   2.017   3.804  30.194  0.3973 -0.3599  0.5136
  135SAPE   HN214565   2.071   3.713  30.073 -0.9262  0.7619 -0.3873
  135SAPE   HN314566   1.951   3.647  30.167  0.9453 -0.5133 -1.2953
  135SAPE   C1214567   2.137   3.638  30.244 -0.3220 -0.3282  0.1197
  135SAPE  H12A14568   2.107   3.623  30.349  3.6241  1.3530  1.6924
  135SAPE  H12B14569   2.234   3.692  30.238 -1.4502  1.8969  0.6896
  135SAPE   C1114570   2.159   3.497  30.183  0.0901 -0.3665 -0.3956
  135SAPE  H11A14571   2.067   3.439  30.206  0.2571  0.1312  1.8611
  135SAPE  H11B14572   2.235   3.442  30.243 -1.5671 -0.7440  1.4912
  135SAPE     P14573   2.104   3.482  29.926  0.0739  0.1283  0.0949
  135SAPE   O1314574   1.996   3.383  29.955  0.2840  0.5026  0.0734
  135SAPE   O1414575   2.049   3.617  29.900  0.3632  0.1639 -0.4600
  135SAPE   O1214576   2.203   3.503  30.044  0.2004 -0.4602 -0.1099
  135SAPE   O1114577   2.197   3.440  29.804  0.1891 -0.4533  0.4931
  135SAPE    C114578   2.320   3.361  29.822 -0.2485  0.2085 -0.4476
  135SAPE    HA14579   2.408   3.426  29.801 -0.3204  0.7379  0.7992
  135SAPE    HB14580   2.330   3.313  29.921 -2.3274 -2.5370 -1.4395
  135SAPE    C214581   2.320   3.242  29.725 -0.1026 -0.3507  0.7478
  135SAPE    HS14582   2.306   3.272  29.619 -4.9553  0.8247  1.5135
  135SAPE   O2114583   2.206   3.162  29.762 -0.3232 -0.2661 -0.4021
  135SAPE   C2114584   2.108   3.168  29.683  0.3546  0.1294 -0.7171
  135SAPE   O2214585   2.095   3.227  29.575  0.4466 -0.1703  0.1845
  135SAPE   C2214586   1.989   3.103  29.740  0.2363 -0.0281  0.7061
  135SAPE   H2R14587   2.009   3.005  29.788 -0.2201 -0.1619  0.6245
  135SAPE   H2S14588   1.959   3.173  29.821  0.3358  1.3912 -0.4440
  135SAPE    C314589   2.458   3.169  29.741  0.8795  0.3855  0.3434
  135SAPE    HX14590   2.475   3.154  29.850 -0.2560 -1.1945  0.3383
  135SAPE    HY14591   2.538   3.237  29.703  1.7709 -0.7526  0.1107
  135SAPE   O3114592   2.461   3.037  29.684 -0.0339  0.1670  0.4734
  135SAPE   C3114593   2.509   3.031  29.558  0.6918  0.0303  0.8905
  135SAPE   O3214594   2.528   3.131  29.487  0.1819  0.5838 -0.2348
  135SAPE   C3214595   2.505   2.884  29.507 -0.2261 -0.0762  0.1008
  135SAPE   H2X14596   2.603   2.834  29.521 -1.2826 -2.4693 -0.6157
  135SAPE   H2Y14597   2.492   2.888  29.397  1.5257 -2.6710 -0.2770
  135SAPE   C2314598   1.871   3.092  29.635 -0.1596 -0.4420 -0.3458
  135SAPE   H3R14599   1.922   3.032  29.557  2.1590 -0.2842  0.9325
  135SAPE   H3S14600   1.844   3.192  29.596  0.6278 -0.7590 -1.7687
  135SAPE   C2414601   1.764   2.996  29.686  0.3604  0.9714 -0.2811
  135SAPE   H4R14602   1.741   3.037  29.787  0.7037  3.2957 -1.0755
  135SAPE   H4S14603   1.802   2.896  29.716 -0.9589  0.2682 -0.8549
  135SAPE   C2514604   1.644   2.993  29.595 -0.6556  0.0884  0.5638
  135SAPE   H5R14605   1.596   3.092  29.587  0.9625  0.8901  0.1643
  135SAPE   C2614606   1.608   2.879  29.532  0.7508 -0.1937  0.4463
  135SAPE   H6R14607   1.523   2.881  29.462  1.0381 -1.2993  0.0575
  135SAPE   C2714608   1.663   2.746  29.551 -0.4419 -0.1728  0.4217
  135SAPE   H7R14609   1.668   2.701  29.653 -2.7202 -2.6784 -0.4681
  135SAPE   H7S14610   1.772   2.761  29.536 -0.2061 -0.2887  1.8378
  135SAPE   C2814611   1.607   2.648  29.457  0.4353  0.4987 -0.2334
  135SAPE   H8R14612   1.636   2.655  29.351 -1.6787 -1.2067 -0.9873
  135SAPE   C2914613   1.513   2.559  29.496 -0.1593  0.2292 -0.3103
  135SAPE   H9R14614   1.465   2.496  29.420 -1.2991  0.0628  0.5186
  135SAPE  C21014615   1.446   2.539  29.632 -0.1259 -0.4946  0.1644
  135SAPE  H10R14616   1.531   2.523  29.702  0.5681  1.5153 -0.1623
  135SAPE  H10S14617   1.393   2.441  29.632  0.2739 -0.7154  0.4723
  135SAPE  C21114618   1.360   2.652  29.675  0.0480 -0.4648  0.0009
  135SAPE  H11R14619   1.377   2.747  29.622 -2.9214 -0.6282 -1.4081
  135SAPE  C21214620   1.262   2.645  29.765  0.2673 -0.1038  0.5799
  135SAPE  H12R14621   1.207   2.734  29.799  0.2032 -0.4747  1.4765
  135SAPE  C21314622   1.216   2.516  29.837  0.2257  0.2369  0.6043
  135SAPE  H13R14623   1.297   2.440  29.832  1.0565  1.0494  1.2628
  135SAPE  H13S14624   1.132   2.485  29.772  1.9105  0.7749 -1.9707
  135SAPE  C21414625   1.179   2.506  29.983  0.1199  0.1257  0.9419
  135SAPE  H14R14626   1.215   2.594  30.039  0.8182 -0.3659  1.2820
  135SAPE  C21514627   1.140   2.401  30.050  0.1200 -0.0451 -0.1944
  135SAPE  H15R14628   1.108   2.404  30.155 -1.1169 -1.6015 -0.4981
  135SAPE  C21614629   1.125   2.266  29.998 -0.0169  0.2670 -0.2138
  135SAPE  H16R14630   1.176   2.194  30.066  0.1997  0.2023 -0.4440
  135SAPE  H16S14631   1.185   2.258  29.905 -0.5641  4.7962 -1.1780
  135SAPE  C21714632   0.976   2.226  29.977 -0.4215 -0.3429 -0.8329
  135SAPE  H17R14633   0.926   2.289  29.900 -1.6378 -1.6846 -1.1696
  135SAPE  H17S14634   0.914   2.240  30.068  0.8383 -2.5785  0.4756
  135SAPE  C21814635   0.964   2.073  29.945  0.4852 -0.2679  0.1774
  135SAPE  H18R14636   1.008   2.046  29.847 -1.4866  0.7384 -1.0529
  135SAPE  H18S14637   0.855   2.054  29.930  0.7057 -0.8931 -0.6542
  135SAPE  C21914638   0.997   1.971  30.056  0.3057  0.4921  0.0787
  135SAPE  H19R14639   0.950   1.998  30.153 -0.4550  1.1404 -0.4561
  135SAPE  H19S14640   1.107   1.981  30.070  0.2702  0.8876  0.0842
  135SAPE  C22014641   0.964   1.829  30.015 -0.7642 -0.8601 -0.4269
  135SAPE  H20R14642   0.855   1.815  29.999 -0.6919  0.2596 -2.1652
  135SAPE  H20S14643   1.015   1.757  30.083  1.5331  0.8379 -0.1946
  135SAPE  H20T14644   1.001   1.799  29.914 -0.5823  1.3292 -1.0568
  135SAPE   C3314645   2.394   2.801  29.570  0.3631  0.3020 -0.0175
  135SAPE   H3X14646   2.410   2.809  29.680  2.8143 -1.8976 -0.1212
  135SAPE   H3Y14647   2.417   2.693  29.559 -2.8778 -0.6503  1.4497
  135SAPE   C3414648   2.257   2.830  29.514  0.2831  0.9084  0.2654
  135SAPE   H4X14649   2.248   2.794  29.410 -1.3846  0.3824  0.5655
  135SAPE   H4Y14650   2.214   2.932  29.511 -0.5459  0.6443  1.9373
  135SAPE   C3514651   2.144   2.749  29.581  0.0605  0.1381  0.2762
  135SAPE   H5X14652   2.045   2.790  29.551  0.0480  0.6248  0.9475
  135SAPE   H5Y14653   2.147   2.769  29.690 -1.4531  1.0273  0.1866
  135SAPE   C3614654   2.148   2.599  29.567 -0.3986 -0.0970  0.0135
  135SAPE   H6X14655   2.065   2.553  29.625  0.5539 -1.5509  0.2689
  135SAPE   H6Y14656   2.246   2.566  29.607 -0.8954 -2.6363 -0.6860
  135SAPE   C3714657   2.137   2.545  29.423 -0.3027 -0.3917 -0.3679
  135SAPE   H7X14658   2.180   2.444  29.408  1.8291  0.5062 -0.5879
  135SAPE   H7Y14659   2.194   2.606  29.350  0.3439  0.2663  0.6705
  135SAPE   C3814660   1.991   2.555  29.372  0.6768 -0.2282  0.1035
  135SAPE   H8X14661   1.950   2.658  29.361  1.5768  0.3268  1.6558
  135SAPE   H8Y14662   1.929   2.500  29.446 -0.8744  2.6007  1.0650
  135SAPE   C3914663   1.970   2.484  29.234 -0.4225 -0.5292  0.1428
  135SAPE   H9X14664   1.868   2.438  29.235  0.2788 -2.1332  1.0586
  135SAPE   H9Y14665   2.043   2.401  29.240 -0.2708 -0.3339  1.0682
  135SAPE  C31014666   1.987   2.568  29.109  0.9640 -0.2831  0.7464
  135SAPE  H10X14667   2.076   2.629  29.134  0.6169  0.5900 -0.0765
  135SAPE  H10Y14668   1.906   2.643  29.094 -0.8749 -2.0914  1.1672
  135SAPE  C31114669   2.029   2.488  28.981  0.5990 -0.8589  0.1161
  135SAPE  H11X14670   1.962   2.400  28.970  0.8390 -1.1595  1.0492
  135SAPE  H11Y14671   2.131   2.445  28.991  0.6608 -0.4425  1.3179
  135SAPE  C31214672   2.028   2.580  28.855 -0.0480  0.3674 -0.0586
  135SAPE  H12X14673   2.106   2.660  28.859  0.1505  0.1342  0.8513
  135SAPE  H12Y14674   1.930   2.633  28.855 -0.3987 -0.2629  1.0887
  135SAPE  C31314675   2.032   2.499  28.729  0.6368 -0.3056  0.8766
  135SAPE  H13X14676   2.061   2.395  28.755 -0.6350 -1.0395 -0.4445
  135SAPE  H13Y14677   2.116   2.542  28.672 -0.5626  2.1456  0.8476
  135SAPE  C31414678   1.905   2.498  28.656  0.0773  0.7195  0.1037
  135SAPE  H14X14679   1.878   2.597  28.613 -1.1900  0.8374  1.0966
  135SAPE  H14Y14680   1.820   2.488  28.727  0.4163  0.5484  0.4908
  135SAPE  C31514681   1.902   2.383  28.556 -0.0312  0.2835 -0.4827
  135SAPE  H15X14682   1.925   2.285  28.603 -0.6455  0.1857 -0.3808
  135SAPE  H15Y14683   1.976   2.400  28.475  0.2856  2.5029  0.2060
  135SAPE  C31614684   1.768   2.368  28.485 -1.0299 -0.5121  0.8322
  135SAPE  H16X14685   1.774   2.306  28.393 -0.5558 -0.8016  1.0540
  135SAPE  H16Y14686   1.715   2.462  28.456 -2.1167 -0.5802  2.4669
  135SAPE  C31714687   1.672   2.296  28.576  0.5422 -0.5575 -0.7042
  135SAPE  H17X14688   1.668   2.345  28.676 -0.1367  1.3041 -1.5970
  135SAPE  H17Y14689   1.707   2.193  28.598 -1.2411 -0.8690  0.9531
  135SAPE  C31814690   1.536   2.279  28.507 -0.2418  0.0982  1.0640
  135SAPE  H18X14691   1.452   2.241  28.570 -1.2210 -3.7660 -2.1702
  135SAPE  H18Y14692   1.554   2.209  28.423  0.3819  1.0006  0.4289
  135SAPE  H18Z14693   1.493   2.377  28.479  1.0161  0.4039  0.1221
  136SAPE     N14694   2.074   4.011  25.177  0.4068 -0.3873  0.8636
  136SAPE   HN114695   2.058   4.102  25.224  0.4235  0.2372 -0.3010
  136SAPE   HN214696   2.015   3.940  25.225 -0.9138  0.0936  0.0121
  136SAPE   HN314697   2.175   3.987  25.183  0.8288  1.1667  0.5018
  136SAPE   C1214698   2.011   4.019  25.040 -0.2114 -0.0512  0.6368
  136SAPE  H12A14699   1.904   3.996  25.059  0.0774 -1.9349  0.2217
  136SAPE  H12B14700   2.065   3.951  24.971 -0.1608  0.5091  0.1170
  136SAPE   C1114701   2.018   4.159  24.981 -0.2057  0.3914  0.3177
  136SAPE  H11A14702   2.122   4.184  24.950 -0.5527 -0.2076 -1.4613
  136SAPE  H11B14703   1.984   4.229  25.061 -0.7525  0.6497 -0.1333
  136SAPE     P14704   1.950   4.312  24.786 -0.2457  0.6897 -0.1760
  136SAPE   O1314705   1.816   4.338  24.735  0.0699 -0.2843  0.2169
  136SAPE   O1414706   2.015   4.411  24.879  0.6924  0.0779  0.4542
  136SAPE   O1214707   1.936   4.173  24.869 -0.1497 -0.3142  0.3261
  136SAPE   O1114708   2.042   4.279  24.665 -0.5558  0.4617 -0.3218
  136SAPE    C114709   2.174   4.219  24.666  0.3997 -0.2514 -0.6690
  136SAPE    HA14710   2.224   4.249  24.761 -2.2885 -0.8229  1.0478
  136SAPE    HB14711   2.175   4.109  24.647  0.8956 -0.1576 -1.1767
  136SAPE    C214712   2.258   4.288  24.558 -0.2415  0.1767 -0.6162
  136SAPE    HS14713   2.365   4.269  24.582 -0.6428 -0.2716  0.9371
  136SAPE   O2114714   2.240   4.433  24.563  0.2235  0.2032 -0.0256
  136SAPE   C2114715   2.276   4.488  24.673 -0.0951  0.2595 -0.4591
  136SAPE   O2214716   2.347   4.448  24.763 -0.6556 -0.7014 -0.1713
  136SAPE   C2214717   2.225   4.633  24.671  0.0444  0.0214  0.5034
  136SAPE   H2R14718   2.243   4.669  24.568 -1.5412 -1.3071 -0.2884
  136SAPE   H2S14719   2.116   4.619  24.691  0.6000 -2.6960  2.1870
  136SAPE    C314720   2.222   4.236  24.416  0.1660  0.7462 -0.3983
  136SAPE    HX14721   2.285   4.286  24.340 -0.5308  0.4702 -1.1694
  136SAPE    HY14722   2.119   4.274  24.406  0.6595  2.2533 -0.0090
  136SAPE   O3114723   2.232   4.089  24.416 -0.2232 -0.3702 -0.0773
  136SAPE   C3114724   2.154   4.018  24.337  0.3915  0.7396  0.8275
  136SAPE   O3214725   2.079   4.067  24.252  0.3170  0.4812 -0.2970
  136SAPE   C3214726   2.182   3.875  24.361  0.1273 -0.5350  0.3716
  136SAPE   H2X14727   2.180   3.857  24.470 -0.0063  1.6294  0.7709
  136SAPE   H2Y14728   2.285   3.855  24.323 -0.0515 -0.1642 -0.3233
  136SAPE   C2314729   2.291   4.725  24.776  0.3747  0.2610  0.4874
  136SAPE   H3R14730   2.281   4.679  24.876 -2.6573 -1.3897 -0.4496
  136SAPE   H3S14731   2.231   4.818  24.768  0.0981 -0.0797 -2.9046
  136SAPE   C2414732   2.438   4.765  24.753  0.7987  0.5491 -0.1669
  136SAPE   H4R14733   2.498   4.687  24.804 -1.4420 -3.3212 -2.9224
  136SAPE   H4S14734   2.448   4.863  24.806  1.7645 -0.2417  1.1697
  136SAPE   C2514735   2.489   4.755  24.610  0.2316 -0.2016 -0.3167
  136SAPE   H5R14736   2.481   4.654  24.567  1.5313 -0.0183 -1.0401
  136SAPE   C2614737   2.545   4.846  24.532 -0.3221 -0.1451 -0.2689
  136SAPE   H6R14738   2.563   4.815  24.428  1.3009 -1.1163  0.2629
  136SAPE   C2714739   2.572   4.989  24.577  0.2081  0.0472  0.5599
  136SAPE   H7R14740   2.481   5.016  24.634 -1.4902 -0.5630 -1.7321
  136SAPE   H7S14741   2.572   5.066  24.497 -0.4537  0.0702  0.5755
  136SAPE   C2814742   2.691   5.003  24.669 -0.5869 -0.3935 -0.2367
  136SAPE   H8R14743   2.725   4.925  24.739  1.0907 -1.5467 -2.1894
  136SAPE   C2914744   2.765   5.117  24.665 -0.3548 -0.2474 -0.6727
  136SAPE   H9R14745   2.842   5.124  24.743 -1.7926 -1.1744  0.8957
  136SAPE  C21014746   2.753   5.247  24.585  0.0600 -0.4442  0.2165
  136SAPE  H10R14747   2.788   5.231  24.481  0.9907  1.1945  0.2494
  136SAPE  H10S14748   2.831   5.315  24.626  0.7943 -1.5658  0.7281
  136SAPE  C21114749   2.610   5.313  24.594 -0.4579  0.3174 -0.7794
  136SAPE  H11R14750   2.549   5.281  24.680  0.4544 -0.9698 -0.5832
  136SAPE  C21214751   2.561   5.391  24.496  0.0971 -0.3620  0.4281
  136SAPE  H12R14752   2.464   5.443  24.506  0.4590  0.2826  0.5724
  136SAPE  C21314753   2.634   5.427  24.368 -0.1307 -0.5182 -0.5128
  136SAPE  H13R14754   2.721   5.361  24.349  0.1928  0.3002 -1.9679
  136SAPE  H13S14755   2.679   5.528  24.379 -0.8575 -0.0109 -2.0738
  136SAPE  C21414756   2.548   5.425  24.248 -0.1090  0.5219 -0.1613
  136SAPE  H14R14757   2.489   5.333  24.233  1.2197 -0.4093  0.1405
  136SAPE  C21514758   2.525   5.516  24.151  0.1598 -0.7097 -0.0639
  136SAPE  H15R14759   2.458   5.503  24.065 -1.2436  1.6708  0.5802
  136SAPE  C21614760   2.591   5.650  24.145 -0.4309  1.1807  0.0626
  136SAPE  H16R14761   2.591   5.702  24.243 -0.7377 -2.8758  2.4537
  136SAPE  H16S14762   2.529   5.724  24.089  0.1743  0.7370 -1.2301
  136SAPE  C21714763   2.731   5.656  24.078  0.0077  0.2853  0.0132
  136SAPE  H17R14764   2.796   5.574  24.117  2.0978  1.4962 -0.7379
  136SAPE  H17S14765   2.773   5.759  24.089  2.0093 -0.6382  1.6054
  136SAPE  C21814766   2.732   5.612  23.929 -0.2921 -0.2421  0.6256
  136SAPE  H18R14767   2.694   5.699  23.871  0.9473  1.4057  2.1538
  136SAPE  H18S14768   2.668   5.522  23.914  0.2805 -0.2046 -2.7175
  136SAPE  C21914769   2.877   5.590  23.891  0.9517  0.0602  0.1932
  136SAPE  H19R14770   2.922   5.507  23.951  2.8161  1.4002  0.7409
  136SAPE  H19S14771   2.944   5.675  23.914  0.5199  0.3778  0.3017
  136SAPE  C22014772   2.895   5.555  23.742  0.5141  0.3923  0.3396
  136SAPE  H20R14773   2.818   5.613  23.687 -1.5584 -0.1894  2.4902
  136SAPE  H20S14774   2.888   5.447  23.717 -2.4705  0.4635  0.5062
  136SAPE  H20T14775   2.993   5.592  23.705  0.3619 -0.7498 -1.3231
  136SAPE   C3314776   2.086   3.779  24.273  0.1162 -0.1838 -0.6105
  136SAPE   H3X14777   2.116   3.673  24.278  1.0872  0.1353  3.5716
  136SAPE   H3Y14778   2.086   3.805  24.165 -1.7323  3.1955  0.0518
  136SAPE   C3414779   1.947   3.764  24.334 -0.3283  0.5267 -0.0170
  136SAPE   H4X14780   1.888   3.855  24.308  0.0378  0.3698 -1.5205
  136SAPE   H4Y14781   1.960   3.758  24.444 -0.9759  0.1367  0.0461
  136SAPE   C3514782   1.870   3.634  24.304 -0.2482  0.2232  0.2416
  136SAPE   H5X14783   1.783   3.628  24.374 -1.2474 -0.4219 -1.0086
  136SAPE   H5Y14784   1.936   3.549  24.332 -2.3125 -1.0964  1.3758
  136SAPE   C3614785   1.826   3.643  24.160  0.5906  0.1391 -0.4859
  136SAPE   H6X14786   1.919   3.654  24.100  0.1607  2.7572 -0.8155
  136SAPE   H6Y14787   1.778   3.741  24.137 -0.5004  0.1283  1.4798
  136SAPE   C3714788   1.731   3.541  24.103  0.0382  0.3201  0.2591
  136SAPE   H7X14789   1.625   3.569  24.121 -0.8614 -1.5753 -1.6185
  136SAPE   H7Y14790   1.751   3.447  24.158  2.6736  0.6877  0.0274
  136SAPE   C3814791   1.749   3.507  23.952  0.3534  0.3137  0.3994
  136SAPE   H8X14792   1.855   3.490  23.924 -0.1373  0.6554 -1.8873
  136SAPE   H8Y14793   1.721   3.598  23.894 -4.0849 -1.1143 -0.0713
  136SAPE   C3914794   1.668   3.383  23.906  0.2267 -0.0047  0.4933
  136SAPE   H9X14795   1.685   3.354  23.800  1.4055  0.6292  0.4921
  136SAPE   H9Y14796   1.561   3.414  23.903  0.8078  2.1839 -1.0044
  136SAPE  C31014797   1.703   3.259  23.989 -0.1623 -0.2586 -0.2082
  136SAPE  H10X14798   1.644   3.259  24.083 -0.5391 -1.2160 -0.4291
  136SAPE  H10Y14799   1.809   3.265  24.021 -0.5585  0.4262  1.0456
  136SAPE  C31114800   1.672   3.127  23.932  0.1235  0.6605 -0.3917
  136SAPE  H11X14801   1.719   3.110  23.833  0.2177 -3.1427  0.1335
  136SAPE  H11Y14802   1.562   3.113  23.921 -0.0132  0.9415  0.5210
  136SAPE  C31214803   1.720   3.016  24.025 -0.1732  0.6703 -0.0426
  136SAPE  H12X14804   1.700   3.041  24.131  1.1286 -1.6573  0.8314
  136SAPE  H12Y14805   1.830   3.003  24.021 -0.3484 -0.8550 -2.7369
  136SAPE  C31314806   1.651   2.881  24.004  0.0541  0.3364  0.4131
  136SAPE  H13X14807   1.540   2.887  24.000  0.0519  1.6103  1.7041
  136SAPE  H13Y14808   1.681   2.821  24.093 -0.6651 -0.8793 -0.1390
  136SAPE  C31414809   1.709   2.802  23.885  0.6018  0.3865  0.8230
  136SAPE  H14X14810   1.819   2.785  23.885  0.8920  2.0941 -0.1127
  136SAPE  H14Y14811   1.699   2.861  23.792  0.7959  0.0367  0.5768
  136SAPE  C31514812   1.645   2.669  23.869  0.1084 -0.4384  0.5593
  136SAPE  H15X14813   1.541   2.676  23.828 -1.2706  1.4396  3.9762
  136SAPE  H15Y14814   1.636   2.628  23.972  0.7837  0.5051  1.0086
  136SAPE  C31614815   1.725   2.576  23.781 -0.6885  0.4558 -0.2015
  136SAPE  H16X14816   1.819   2.552  23.834 -1.0603 -0.7904 -0.0733
  136SAPE  H16Y14817   1.757   2.624  23.687  3.5685 -0.4029  0.6204
  136SAPE  C31714818   1.644   2.449  23.736  0.0569 -0.3518  1.2505
  136SAPE  H17X14819   1.556   2.479  23.675 -0.1780 -1.1105  1.2110
  136SAPE  H17Y14820   1.605   2.398  23.826 -0.5757  1.4923  2.0689
  136SAPE  C31814821   1.731   2.356  23.652  0.0732 -0.3093  0.2063
  136SAPE  H18X14822   1.766   2.418  23.568 -0.1436  1.7942  1.6018
  136SAPE  H18Y14823   1.669   2.282  23.597 -0.3624  0.5859 -0.5197
  136SAPE  H18Z14824   1.815   2.308  23.708 -0.4728 -2.1680 -0.4870
  137SAPE     N14825   0.373   0.154  24.899 -0.4975  0.6814 -0.5494
  137SAPE   HN114826   0.451   0.156  24.968  0.3482  0.5262 -1.4763
  137SAPE   HN214827   0.286   0.182  24.948  0.8250  2.4275  0.9132
  137SAPE   HN314828   0.361   0.058  24.860 -1.8955  0.5670  0.1029
  137SAPE   C1214829   0.408   0.249  24.793 -0.4338 -0.3543 -0.1866
  137SAPE  H12A14830   0.455   0.338  24.841  0.3603 -2.3107  3.0402
  137SAPE  H12B14831   0.319   0.271  24.731  0.6024 -0.3799 -1.7157
  137SAPE   C1114832   0.519   0.195  24.702  1.0402 -0.0738 -0.5098
  137SAPE  H11A14833   0.606   0.185  24.771 -0.7874  1.2849  2.1803
  137SAPE  H11B14834   0.534   0.255  24.610 -0.3949 -1.6162 -1.8236
  137SAPE     P14835   0.596  -0.041  24.632  0.4577 -0.6828  0.0343
  137SAPE   O1314836   0.697   0.024  24.553  0.3044 -0.1152  0.4603
  137SAPE   O1414837   0.638  -0.080  24.768 -0.1215 -0.1171 -0.2204
  137SAPE   O1214838   0.478   0.066  24.646  0.4772  0.3420 -0.2193
  137SAPE   O1114839   0.523  -0.166  24.566 -1.1189  0.4522  0.4905
  137SAPE    C114840   0.498  -0.149  24.427  0.0199  0.3891  0.7032
  137SAPE    HA14841   0.394  -0.175  24.397 -0.5590  0.7758  2.2852
  137SAPE    HB14842   0.521  -0.048  24.385  1.3712  1.0781  2.9288
  137SAPE    C214843   0.598  -0.239  24.344  0.1312 -0.3372  0.7137
  137SAPE    HS14844   0.701  -0.200  24.358 -0.5818  1.6976  0.6589
  137SAPE   O2114845   0.552  -0.246  24.207 -0.1738 -1.1725  0.8045
  137SAPE   C2114846   0.589  -0.148  24.134 -0.0268  0.0368  1.1183
  137SAPE   O2214847   0.657  -0.052  24.168  0.2312  0.1197 -0.2624
  137SAPE   C2214848   0.561  -0.186  23.984  0.4783  0.5325 -0.7545
  137SAPE   H2R14849   0.665  -0.207  23.949  0.7487 -1.0776  0.8605
  137SAPE   H2S14850   0.496  -0.275  23.972  0.7864 -0.2552  2.5460
  137SAPE    C314851   0.610  -0.380  24.406 -0.4068  0.1560  0.0876
  137SAPE    HX14852   0.508  -0.421  24.423 -0.6477  0.6681 -0.0823
  137SAPE    HY14853   0.651  -0.361  24.508 -0.8857  0.1909  0.2766
  137SAPE   O3114854   0.683  -0.472  24.322  0.4268  0.2001  0.0397
  137SAPE   C3114855   0.811  -0.453  24.313  0.9492 -0.3476  0.0348
  137SAPE   O3214856   0.871  -0.372  24.379 -0.1907  0.4852 -0.2850
  137SAPE   C3214857   0.870  -0.547  24.220 -0.6258 -0.1099  0.4684
  137SAPE   H2X14858   0.790  -0.621  24.196 -0.5227 -0.6858  1.8340
  137SAPE   H2Y14859   0.958  -0.602  24.259 -1.2222 -1.3957  0.0460
  137SAPE   C2314860   0.511  -0.073  23.894  0.4915 -0.0321 -0.0392
  137SAPE   H3R14861   0.563   0.023  23.915  2.6244 -0.9022 -1.0926
  137SAPE   H3S14862   0.405  -0.061  23.927 -0.2215 -1.8945 -1.4440
  137SAPE   C2414863   0.522  -0.104  23.744  0.6766 -0.5040 -0.0155
  137SAPE   H4R14864   0.511  -0.213  23.723 -1.6463 -0.2280 -0.5897
  137SAPE   H4S14865   0.626  -0.089  23.708  0.3157 -0.5915 -1.1495
  137SAPE   C2514866   0.441  -0.004  23.662 -0.5127 -0.4053 -0.1516
  137SAPE   H5R14867   0.489   0.090  23.633 -0.0562 -0.5376  0.1656
  137SAPE   C2614868   0.317  -0.036  23.619  0.1375  0.1937  0.0649
  137SAPE   H6R14869   0.257   0.043  23.571 -1.1559 -0.5606  0.3806
  137SAPE   C2714870   0.237  -0.160  23.651 -0.3535  0.2946  0.0804
  137SAPE   H7R14871   0.291  -0.236  23.711  0.0772 -3.8772 -4.8624
  137SAPE   H7S14872   0.220  -0.229  23.565  0.3380 -0.8045  0.7958
  137SAPE   C2814873   0.115  -0.112  23.726  0.4551  0.6152  0.8061
  137SAPE   H8R14874   0.125  -0.030  23.799  2.1115  0.5686  0.6604
  137SAPE   C2914875  -0.015  -0.166  23.724  0.4600  0.4022 -0.2275
  137SAPE   H9R14876  -0.097  -0.115  23.777 -0.2227  0.0809 -0.9508
  137SAPE  C21014877  -0.056  -0.284  23.633  0.1506  0.7266 -0.3816
  137SAPE  H10R14878   0.031  -0.316  23.571  1.0359  0.1327  1.1290
  137SAPE  H10S14879  -0.131  -0.246  23.560 -2.6481 -1.5217  1.1305
  137SAPE  C21114880  -0.102  -0.404  23.717  0.5352 -0.5293  0.1340
  137SAPE  H11R14881  -0.180  -0.380  23.792 -1.1488  1.5798 -2.1293
  137SAPE  C21214882  -0.059  -0.533  23.711 -0.1014  0.0838 -0.0087
  137SAPE  H12R14883  -0.118  -0.601  23.773 -0.7502 -0.2064 -0.9349
  137SAPE  C21314884   0.055  -0.592  23.630  0.1560  0.2337  0.1445
  137SAPE  H13R14885   0.127  -0.643  23.697 -0.3145 -2.8736 -1.5417
  137SAPE  H13S14886   0.124  -0.511  23.597  2.0761 -2.3117 -2.6691
  137SAPE  C21414887  -0.003  -0.667  23.513  0.3331 -0.6098 -0.3804
  137SAPE  H14R14888  -0.107  -0.643  23.486 -0.0305 -0.2702  1.2231
  137SAPE  C21514889   0.064  -0.732  23.419 -0.8806  0.3495  0.4514
  137SAPE  H15R14890   0.005  -0.767  23.334  0.2140 -2.3387  0.7190
  137SAPE  C21614891   0.217  -0.755  23.417  0.6907 -0.1192 -0.2433
  137SAPE  H16R14892   0.274  -0.661  23.436 -2.1579  1.9891 -1.4398
  137SAPE  H16S14893   0.251  -0.795  23.319  1.6372  1.9480 -0.8134
  137SAPE  C21714894   0.263  -0.852  23.530 -0.2647 -0.1018  0.2342
  137SAPE  H17R14895   0.259  -0.815  23.634  0.5676 -0.9968  0.5955
  137SAPE  H17S14896   0.365  -0.880  23.497 -0.1111  0.5311  0.1648
  137SAPE  C21814897   0.181  -0.981  23.531  0.1117  0.8000  0.4848
  137SAPE  H18R14898   0.185  -1.013  23.425 -2.6099  0.5223  0.4013
  137SAPE  H18S14899   0.078  -0.948  23.556  1.3651  2.9741  3.4420
  137SAPE  C21914900   0.238  -1.098  23.620  0.2919 -0.6141  0.1060
  137SAPE  H19R14901   0.178  -1.188  23.594 -0.3796  0.4248 -2.1435
  137SAPE  H19S14902   0.222  -1.062  23.724  0.4878 -0.1522 -0.0218
  137SAPE  C22014903   0.389  -1.121  23.595  0.1469 -0.6817  0.4649
  137SAPE  H20R14904   0.416  -1.203  23.665 -2.8662 -0.9555  1.4484
  137SAPE  H20S14905   0.446  -1.026  23.603 -1.3506  0.3849 -0.8333
  137SAPE  H20T14906   0.414  -1.149  23.491 -3.0073 -1.5548 -0.1788
  137SAPE   C3314907   0.901  -0.479  24.083  0.5634 -0.1146 -0.0198
  137SAPE   H3X14908   0.992  -0.417  24.093 -0.8205  3.2303 -4.6285
  137SAPE   H3Y14909   0.815  -0.410  24.068 -1.3922 -1.9896  1.8562
  137SAPE   C3414910   0.917  -0.566  23.961 -0.2112  0.3555 -0.3695
  137SAPE   H4X14911   0.819  -0.618  23.957 -0.3050  0.3606  1.2018
  137SAPE   H4Y14912   1.003  -0.634  23.976  0.2869  0.7351 -1.4182
  137SAPE   C3514913   0.952  -0.477  23.844 -0.2910 -0.6819  0.1825
  137SAPE   H5X14914   1.038  -0.407  23.847 -0.2375 -0.7457  0.1309
  137SAPE   H5Y14915   0.863  -0.411  23.834  1.6608  2.0701 -0.3571
  137SAPE   C3614916   0.965  -0.566  23.716 -0.2196 -0.0244  0.2389
  137SAPE   H6X14917   1.055  -0.631  23.718  0.2576  0.6433  0.5571
  137SAPE   H6Y14918   0.951  -0.500  23.628  0.7715 -2.4846 -1.8804
  137SAPE   C3714919   0.837  -0.653  23.692  0.2680  1.1298  0.7160
  137SAPE   H7X14920   0.739  -0.608  23.721  0.6507  1.5739  1.3268
  137SAPE   H7Y14921   0.824  -0.741  23.759  1.7656 -1.5481 -2.2053
  137SAPE   C3814922   0.828  -0.712  23.544  0.3539  0.2672  0.3074
  137SAPE   H8X14923   0.746  -0.787  23.540  0.1532  0.3543  2.1067
  137SAPE   H8Y14924   0.929  -0.748  23.514  0.9701  1.9762  0.2625
  137SAPE   C3914925   0.795  -0.617  23.431 -1.0505  0.7528  0.2842
  137SAPE   H9X14926   0.878  -0.546  23.412 -1.8625  1.7694  0.4129
  137SAPE   H9Y14927   0.709  -0.557  23.469 -2.0324 -0.0549 -0.5963
  137SAPE  C31014928   0.746  -0.700  23.310 -0.1167  1.2978 -0.5015
  137SAPE  H10X14929   0.807  -0.791  23.290 -1.0212  0.6738 -0.4506
  137SAPE  H10Y14930   0.771  -0.631  23.227  1.7460  1.2129 -0.0494
  137SAPE  C31114931   0.593  -0.746  23.318 -0.6964  0.7352  0.1401
  137SAPE  H11X14932   0.540  -0.651  23.339 -1.4842 -0.2227  2.8897
  137SAPE  H11Y14933   0.577  -0.813  23.405  1.4874 -0.5086 -0.3348
  137SAPE  C31214934   0.537  -0.822  23.197  0.4528 -0.8012 -0.3914
  137SAPE  H12X14935   0.429  -0.845  23.209 -0.0843  1.9401  0.8344
  137SAPE  H12Y14936   0.593  -0.918  23.203  0.1423 -0.9673 -0.0896
  137SAPE  C31314937   0.553  -0.749  23.062 -0.0019 -0.8086  1.5726
  137SAPE  H13X14938   0.498  -0.813  22.989  0.3484  0.0515  0.5263
  137SAPE  H13Y14939   0.662  -0.751  23.039 -0.3656 -0.1099 -0.4211
  137SAPE  C31414940   0.516  -0.593  23.056 -0.1612  0.5874 -0.6383
  137SAPE  H14X14941   0.597  -0.551  23.120  0.4730 -3.1363  1.3609
  137SAPE  H14Y14942   0.418  -0.570  23.103 -0.7537  0.6587 -1.8905
  137SAPE  C31514943   0.526  -0.541  22.912 -0.2436 -0.0297  0.1653
  137SAPE  H15X14944   0.635  -0.540  22.889 -0.5308 -0.6254 -1.3007
  137SAPE  H15Y14945   0.495  -0.436  22.930  1.0667  0.0054  2.6035
  137SAPE  C31614946   0.438  -0.610  22.805  0.6744  0.5010 -0.6115
  137SAPE  H16X14947   0.340  -0.633  22.851  0.6391 -0.7576 -1.2610
  137SAPE  H16Y14948   0.481  -0.706  22.768 -0.1466 -0.6200  1.2040
  137SAPE  C31714949   0.419  -0.523  22.684 -0.0455 -1.1903  0.5286
  137SAPE  H17X14950   0.518  -0.525  22.634  0.3349 -0.6175  1.2412
  137SAPE  H17Y14951   0.392  -0.427  22.733  0.8064 -0.8014  0.2374
  137SAPE  C31814952   0.318  -0.587  22.591 -0.3700  0.1329 -0.5256
  137SAPE  H18X14953   0.352  -0.691  22.573 -0.5653 -0.6409  2.8907
  137SAPE  H18Y14954   0.311  -0.528  22.497 -2.6655  2.2695  0.8477
  137SAPE  H18Z14955   0.217  -0.586  22.638  0.2106 -1.1179  0.8349
  138SAPE     N14956   3.868   3.581  28.402  0.3592  1.0209 -0.3747
  138SAPE   HN114957   3.886   3.603  28.502  0.4587  0.2936 -0.2188
  138SAPE   HN214958   3.777   3.533  28.389  1.1797 -0.9860  0.7445
  138SAPE   HN314959   3.947   3.519  28.374  1.0215 -0.7809  4.4968
  138SAPE   C1214960   3.898   3.702  28.328 -0.5958  0.2949  0.7110
  138SAPE  H12A14961   3.862   3.690  28.223 -2.4598  1.2784  1.1863
  138SAPE  H12B14962   4.007   3.719  28.327 -0.8190  1.8674  0.1474
  138SAPE   C1114963   3.811   3.817  28.363  0.6920  0.7743 -0.0285
  138SAPE  H11A14964   3.703   3.793  28.349  0.1076  1.7819  2.2431
  138SAPE  H11B14965   3.842   3.900  28.296  0.7234  2.9084  2.4537
  138SAPE     P14966   3.941   3.957  28.537  0.1501  0.0630  0.0278
  138SAPE   O1314967   3.964   3.956  28.683  0.2883 -0.5024 -0.0986
  138SAPE   O1414968   4.051   3.945  28.439 -0.3941 -0.6535  0.6761
  138SAPE   O1214969   3.832   3.847  28.504  0.3209  0.3803  0.0532
  138SAPE   O1114970   3.856   4.089  28.512 -0.2598  0.1773  0.8434
  138SAPE    C114971   3.925   4.212  28.479  0.6094  0.0960 -0.2560
  138SAPE    HA14972   3.986   4.239  28.567 -1.6435 -0.8305  1.6900
  138SAPE    HB14973   3.987   4.207  28.387  2.2605 -1.6707  0.8918
  138SAPE    C214974   3.818   4.333  28.459  0.4214  0.3552 -0.4273
  138SAPE    HS14975   3.802   4.368  28.563 -0.1760 -2.1493  0.3837
  138SAPE   O2114976   3.703   4.295  28.378 -0.6852  0.1294 -0.4819
  138SAPE   C2114977   3.590   4.360  28.411 -0.2727  0.3645  0.2467
  138SAPE   O2214978   3.572   4.418  28.517 -0.4254 -0.1713  0.4252
  138SAPE   C2214979   3.488   4.336  28.299 -0.6815 -0.1260  0.7685
  138SAPE   H2R14980   3.537   4.288  28.211 -0.1845 -1.1701  1.5782
  138SAPE   H2S14981   3.406   4.271  28.336 -0.4505 -1.3802 -0.8151
  138SAPE    C314982   3.892   4.441  28.382  1.0462  0.4646 -0.0575
  138SAPE    HX14983   3.917   4.389  28.286  2.2244  0.2192  0.3696
  138SAPE    HY14984   3.986   4.463  28.436  1.4581 -0.0846 -0.5386
  138SAPE   O3114985   3.828   4.564  28.363  0.0646 -0.2429  0.8172
  138SAPE   C3114986   3.827   4.654  28.464 -0.7006 -0.5889 -0.0065
  138SAPE   O3214987   3.887   4.636  28.568 -0.3546 -1.0642 -0.4156
  138SAPE   C3214988   3.738   4.775  28.426 -0.0242  0.0607 -0.1833
  138SAPE   H2X14989   3.683   4.751  28.333  1.0379  3.5054 -1.8898
  138SAPE   H2Y14990   3.804   4.860  28.398  2.0963 -1.3499  0.3125
  138SAPE   C2314991   3.408   4.454  28.246 -0.3691 -0.1710 -0.9322
  138SAPE   H3R14992   3.349   4.490  28.333  0.5121 -0.1643 -0.3226
  138SAPE   H3S14993   3.331   4.414  28.177  1.9487 -2.6773 -2.2740
  138SAPE   C2414994   3.493   4.563  28.179  0.3287 -0.2113 -0.0690
  138SAPE   H4R14995   3.557   4.626  28.245  0.6945  1.2632 -1.7452
  138SAPE   H4S14996   3.430   4.644  28.136  0.4556  0.5614  1.1414
  138SAPE   C2514997   3.584   4.507  28.066 -0.6072 -0.3738  0.1649
  138SAPE   H5R14998   3.666   4.444  28.105 -0.2240  1.6784  3.0570
  138SAPE   C2614999   3.554   4.502  27.932 -0.1129  0.2469 -0.8051
  138SAPE   H6R15000   3.633   4.457  27.870  0.2650 -0.4392  0.1506
  138SAPE   C2715001   3.442   4.564  27.860 -0.2560 -0.3010 -0.2742
  138SAPE   H7R15002   3.350   4.576  27.921  1.1561  0.7249  1.7641
  138SAPE   H7S15003   3.411   4.488  27.785  0.2881 -0.6460 -0.1524
  138SAPE   C2815004   3.485   4.699  27.818 -0.0101 -0.3516  0.0487
  138SAPE   H8R15005   3.586   4.732  27.847  1.3039 -2.0705 -2.2955
  138SAPE   C2915006   3.412   4.793  27.744 -0.1043  0.3621  0.6018
  138SAPE   H9R15007   3.457   4.891  27.720  0.8952 -0.5641 -1.6020
  138SAPE  C21015008   3.283   4.783  27.665 -0.6684 -0.7391 -0.2208
  138SAPE  H10R15009   3.210   4.855  27.707  1.0546  1.9192 -1.4684
  138SAPE  H10S15010   3.240   4.681  27.669 -0.9738 -0.6615 -1.2074
  138SAPE  C21115011   3.304   4.810  27.516  0.7436  0.2459 -0.4951
  138SAPE  H11R15012   3.380   4.749  27.465  0.4199  1.6243 -2.7092
  138SAPE  C21215013   3.228   4.884  27.433 -1.1401 -0.1799 -0.1076
  138SAPE  H12R15014   3.254   4.885  27.327  1.0081 -2.4405  0.2963
  138SAPE  C21315015   3.117   4.979  27.480  0.0483  0.7712 -0.7197
  138SAPE  H13R15016   3.151   5.013  27.580  1.8734 -0.1949 -0.9517
  138SAPE  H13S15017   3.022   4.921  27.486  1.7140 -1.9898  2.5434
  138SAPE  C21415018   3.099   5.102  27.397  0.0799 -0.3672  0.1199
  138SAPE  H14R15019   3.148   5.198  27.418 -1.2809  0.3525  0.1542
  138SAPE  C21515020   3.018   5.102  27.290  0.1032 -0.0473 -0.2796
  138SAPE  H15R15021   3.031   5.184  27.217  0.9561 -1.1614 -1.4157
  138SAPE  C21615022   2.945   4.978  27.243 -0.6881 -0.2630  0.5136
  138SAPE  H16R15023   2.835   4.998  27.245 -0.5417  1.1769 -1.5603
  138SAPE  H16S15024   2.975   4.890  27.302  0.4220  0.3864  0.9426
  138SAPE  C21715025   2.987   4.937  27.095 -0.8593  0.6060 -0.3472
  138SAPE  H17R15026   2.968   4.828  27.085  1.4568  0.0422  0.5833
  138SAPE  H17S15027   3.098   4.938  27.089 -0.7148 -1.3441  0.8629
  138SAPE  C21815028   2.919   5.018  26.995  0.2432 -0.4777 -0.1602
  138SAPE  H18R15029   2.899   5.122  27.029  0.8386 -0.2379 -0.5327
  138SAPE  H18S15030   2.816   4.980  26.977 -1.2637  2.2413  2.0255
  138SAPE  C21915031   2.985   5.027  26.854  0.4732 -0.7080 -0.3516
  138SAPE  H19R15032   3.093   5.046  26.875  0.1775  2.2932 -1.0183
  138SAPE  H19S15033   2.937   5.109  26.797  2.3279  0.3873 -0.4223
  138SAPE  C22015034   2.971   4.894  26.780  0.1197  0.5614  0.4881
  138SAPE  H20R15035   2.867   4.867  26.751  0.3064 -1.8270  1.7247
  138SAPE  H20S15036   3.040   4.819  26.823  1.3848  1.7798  0.6488
  138SAPE  H20T15037   3.022   4.913  26.683 -0.4388 -1.6114 -0.3080
  138SAPE   C3315038   3.632   4.828  28.536  0.4530  0.0540  0.1645
  138SAPE   H3X15039   3.577   4.746  28.588 -0.8549 -0.4320 -1.8801
  138SAPE   H3Y15040   3.552   4.892  28.493  0.0137  0.6963  1.8721
  138SAPE   C3415041   3.706   4.921  28.641  0.1751 -0.3806 -0.7531
  138SAPE   H4X15042   3.763   5.005  28.597 -0.4765 -0.0343 -0.9414
  138SAPE   H4Y15043   3.795   4.869  28.682  0.4589 -0.4980 -1.4970
  138SAPE   C3515044   3.606   4.965  28.748 -0.4372  0.2115 -0.6477
  138SAPE   H5X15045   3.562   4.875  28.798 -0.2593  0.4250 -0.1024
  138SAPE   H5Y15046   3.528   5.025  28.696  1.9635  3.1448 -1.0867
  138SAPE   C3615047   3.661   5.056  28.867  0.5763  0.3538  0.5218
  138SAPE   H6X15048   3.704   5.143  28.814 -0.8259  1.5549  1.2893
  138SAPE   H6Y15049   3.736   4.995  28.922  1.2202  0.9379  0.2976
  138SAPE   C3715050   3.561   5.115  28.967  0.0954  0.9034 -0.4040
  138SAPE   H7X15051   3.523   5.043  29.042  2.6738 -0.2230 -0.0905
  138SAPE   H7Y15052   3.470   5.143  28.910 -1.3479  2.8142  2.6053
  138SAPE   C3815053   3.605   5.240  29.042 -0.3732 -0.3679 -0.0999
  138SAPE   H8X15054   3.694   5.216  29.104 -1.2400  0.8962  1.7324
  138SAPE   H8Y15055   3.523   5.275  29.108 -1.1015  0.5959 -1.4626
  138SAPE   C3915056   3.635   5.353  28.942 -0.2675  0.2040 -1.1537
  138SAPE   H9X15057   3.545   5.361  28.878  0.0383  0.4451 -1.5548
  138SAPE   H9Y15058   3.726   5.338  28.880  0.2060 -1.1999 -0.1848
  138SAPE  C31015059   3.658   5.481  29.021  0.7265 -0.6568  0.1335
  138SAPE  H10X15060   3.754   5.480  29.076  0.6830  1.7786  0.3749
  138SAPE  H10Y15061   3.572   5.493  29.091  0.0355  1.4097 -0.9908
  138SAPE  C31115062   3.662   5.602  28.926  0.2519 -0.3521  0.1481
  138SAPE  H11X15063   3.563   5.631  28.884 -0.8814 -0.9994  2.2230
  138SAPE  H11Y15064   3.724   5.572  28.840  2.4237  0.7650  1.2446
  138SAPE  C31215065   3.749   5.719  28.984 -0.1362  0.2064 -0.5210
  138SAPE  H12X15066   3.854   5.697  29.014 -0.7745  0.0211  1.7260
  138SAPE  H12Y15067   3.693   5.751  29.074  1.7905 -0.2747  0.8985
  138SAPE  C31315068   3.757   5.839  28.886  0.1802  0.7631  0.8722
  138SAPE  H13X15069   3.740   5.785  28.790 -2.1477  1.4056  0.8513
  138SAPE  H13Y15070   3.859   5.881  28.892 -0.1939  1.9092 -0.2369
  138SAPE  C31415071   3.660   5.955  28.900 -0.1545 -0.2446 -0.2557
  138SAPE  H14X15072   3.564   5.907  28.928  0.5440 -1.0150  0.8755
  138SAPE  H14Y15073   3.649   6.014  28.806 -0.2352 -0.8430 -0.6228
  138SAPE  C31515074   3.684   6.061  29.018  0.4655  0.1057  0.0698
  138SAPE  H15X15075   3.767   6.133  28.997 -1.4661  1.7572 -2.5430
  138SAPE  H15Y15076   3.700   6.003  29.111  1.0546  0.0474 -0.0634
  138SAPE  C31615077   3.559   6.147  29.047 -1.0605  0.4120 -0.1584
  138SAPE  H16X15078   3.471   6.084  29.070 -1.5486  1.1123 -0.0864
  138SAPE  H16Y15079   3.538   6.208  28.956 -1.3013  0.4348 -0.0873
  138SAPE  C31715080   3.573   6.245  29.166 -0.6816  0.4809  0.4480
  138SAPE  H17X15081   3.571   6.195  29.265 -0.9738 -0.3973  0.0128
  138SAPE  H17Y15082   3.493   6.323  29.165 -1.3175  0.0002  3.3640
  138SAPE  C31815083   3.701   6.331  29.153 -0.8963 -0.1706  0.1958
  138SAPE  H18X15084   3.707   6.404  29.069  0.1827  1.2683  1.4613
  138SAPE  H18Y15085   3.790   6.270  29.129  0.6157  2.1865 -0.5768
  138SAPE  H18Z15086   3.727   6.376  29.251 -1.1695 -0.7463  0.5376
  139SAPE     N15087   2.969   3.957  24.863  0.1429  0.3592 -0.6637
  139SAPE   HN115088   3.046   3.923  24.925 -1.1953  0.5272  1.1437
  139SAPE   HN215089   3.003   4.047  24.823  2.0883  0.2803  0.6745
  139SAPE   HN315090   2.889   3.970  24.928  0.7588  0.6514  0.0496
  139SAPE   C1215091   2.943   3.867  24.751  0.4399 -0.5656 -0.0765
  139SAPE  H12A15092   2.932   3.768  24.801  0.9023 -0.3920  0.3744
  139SAPE  H12B15093   3.040   3.866  24.697  1.2160  1.1381  1.1907
  139SAPE   C1115094   2.825   3.923  24.670 -0.7390 -1.1186 -0.0613
  139SAPE  H11A15095   2.737   3.941  24.735  0.1414  0.4122  0.7453
  139SAPE  H11B15096   2.797   3.838  24.603  2.3654 -1.1562 -1.4821
  139SAPE     P15097   2.773   4.171  24.606  0.0581 -0.3407 -0.1991
  139SAPE   O1315098   2.739   4.192  24.747 -0.0293  0.2969 -0.0441
  139SAPE   O1415099   2.839   4.274  24.527 -0.3137  0.0572  0.1096
  139SAPE   O1215100   2.865   4.041  24.596  0.5876 -0.2766 -0.6399
  139SAPE   O1115101   2.634   4.131  24.537 -0.3344 -0.1140 -0.1610
  139SAPE    C115102   2.648   4.070  24.400 -0.2284  0.7335  0.1502
  139SAPE    HA15103   2.735   4.001  24.399 -0.8876 -0.1241  0.6753
  139SAPE    HB15104   2.552   4.020  24.374 -0.2662  1.0915 -0.4283
  139SAPE    C215105   2.681   4.169  24.286 -0.2994 -0.4061 -0.2807
  139SAPE    HS15106   2.787   4.201  24.289 -0.1273 -0.6851 -2.0126
  139SAPE   O2115107   2.598   4.285  24.292  0.5520  0.0061  0.3830
  139SAPE   C2115108   2.631   4.398  24.232 -0.6590  0.4537 -0.6793
  139SAPE   O2215109   2.730   4.408  24.162  0.8650 -0.1289 -0.1758
  139SAPE   C2215110   2.517   4.496  24.239 -0.6911 -0.7181  0.2288
  139SAPE   H2R15111   2.424   4.441  24.215 -1.7510  1.0250  0.1391
  139SAPE   H2S15112   2.505   4.525  24.346 -1.0163  1.3531 -0.3296
  139SAPE    C315113   2.666   4.109  24.143 -0.3104 -0.5692 -0.3605
  139SAPE    HX15114   2.705   4.185  24.073  0.6130 -1.6292 -1.0237
  139SAPE    HY15115   2.561   4.096  24.109 -0.7123  3.7875 -1.4312
  139SAPE   O3115116   2.736   3.990  24.124  0.1080  0.3695  0.0351
  139SAPE   C3115117   2.871   4.004  24.096 -0.0889  0.5265 -0.8408
  139SAPE   O3215118   2.936   4.105  24.092 -0.1245  0.4834 -0.3648
  139SAPE   C3215119   2.925   3.864  24.092 -0.6357 -0.2355 -0.2778
  139SAPE   H2X15120   2.849   3.784  24.075 -2.2456  1.0678  0.4289
  139SAPE   H2Y15121   2.965   3.841  24.193  0.7464  2.2047 -0.1962
  139SAPE   C2315122   2.538   4.623  24.161 -0.3256 -0.3975 -0.1068
  139SAPE   H3R15123   2.641   4.666  24.165 -1.2970  2.0606  1.5227
  139SAPE   H3S15124   2.470   4.699  24.205 -1.7107 -1.6602 -0.0028
  139SAPE   C2415125   2.486   4.618  24.017  0.3823  0.7134 -0.1477
  139SAPE   H4R15126   2.519   4.712  23.966  0.9506  0.8259  0.4124
  139SAPE   H4S15127   2.376   4.632  24.022  0.3491  0.0466  1.1196
  139SAPE   C2515128   2.532   4.502  23.929  0.1109 -0.1269  0.2550
  139SAPE   H5R15129   2.639   4.510  23.908  0.2485  2.5676  1.6030
  139SAPE   C2615130   2.459   4.412  23.851  0.2683 -0.1975 -0.2231
  139SAPE   H6R15131   2.511   4.344  23.782 -2.7216 -2.5375 -0.3526
  139SAPE   C2715132   2.301   4.391  23.844 -0.9658 -0.7731  0.0092
  139SAPE   H7R15133   2.266   4.335  23.755 -1.5846  0.8813 -0.8332
  139SAPE   H7S15134   2.270   4.496  23.827  2.9384  0.8799  1.7501
  139SAPE   C2815135   2.223   4.353  23.960 -0.7985 -0.2166 -0.4580
  139SAPE   H8R15136   2.214   4.424  24.044 -2.1653  0.1377 -0.8881
  139SAPE   C2915137   2.166   4.234  23.973 -0.5201 -0.0746 -0.3660
  139SAPE   H9R15138   2.098   4.221  24.058  0.0827 -0.6072  0.0518
  139SAPE  C21015139   2.169   4.128  23.864 -0.5355  0.0274  0.4409
  139SAPE  H10R15140   2.275   4.098  23.849 -0.4012  0.5405  0.3390
  139SAPE  H10S15141   2.134   4.170  23.767 -2.3983 -1.6597  0.3184
  139SAPE  C21115142   2.087   4.009  23.909  0.0329  0.0623 -0.5949
  139SAPE  H11R15143   2.064   4.000  24.016  1.9906 -2.6945 -0.3089
  139SAPE  C21215144   2.018   3.925  23.836 -0.0209  0.4655 -0.2364
  139SAPE  H12R15145   1.960   3.848  23.889 -1.3421  1.5049 -0.1430
  139SAPE  C21315146   2.021   3.899  23.686 -0.6642 -0.4113  0.5108
  139SAPE  H13R15147   2.052   3.797  23.658 -0.4251  0.1103 -1.2292
  139SAPE  H13S15148   2.091   3.974  23.643 -1.1652 -0.0577  0.3068
  139SAPE  C21415149   1.885   3.926  23.635  0.3016  0.5010  0.0809
  139SAPE  H14R15150   1.849   4.028  23.655 -1.4398 -0.1623  0.5238
  139SAPE  C21515151   1.805   3.844  23.560 -0.3245 -0.0940  0.3724
  139SAPE  H15R15152   1.699   3.873  23.549 -0.5432 -1.0415 -0.1108
  139SAPE  C21615153   1.836   3.705  23.511 -0.2540  0.1864  0.1467
  139SAPE  H16R15154   1.764   3.633  23.557 -0.7012  0.7419  0.3176
  139SAPE  H16S15155   1.940   3.670  23.529 -0.6490 -1.0737  0.1146
  139SAPE  C21715156   1.822   3.690  23.353 -0.4205  1.0479  0.6629
  139SAPE  H17R15157   1.854   3.587  23.325  1.0796  2.0496 -1.5505
  139SAPE  H17S15158   1.881   3.770  23.304  0.5379 -0.2330 -0.3570
  139SAPE  C21815159   1.673   3.701  23.307 -0.0281 -0.1918  0.2290
  139SAPE  H18R15160   1.628   3.800  23.328  1.4269  0.3259  0.9865
  139SAPE  H18S15161   1.618   3.622  23.362  2.4536 -1.5666  0.8928
  139SAPE  C21915162   1.654   3.666  23.158  0.1720  0.3210 -0.9829
  139SAPE  H19R15163   1.741   3.601  23.134 -0.5135 -1.3235  0.7295
  139SAPE  H19S15164   1.675   3.754  23.094  1.2672  0.6372 -0.2198
  139SAPE  C22015165   1.524   3.593  23.114 -0.1995 -0.1827  0.0336
  139SAPE  H20R15166   1.443   3.667  23.133  0.0692  0.8753 -2.4716
  139SAPE  H20S15167   1.517   3.488  23.150 -0.8736 -1.1414 -2.6424
  139SAPE  H20T15168   1.530   3.584  23.003  0.5759  0.0290  0.0516
  139SAPE   C3315169   3.030   3.852  23.983  0.4358 -0.7082 -0.4618
  139SAPE   H3X15170   3.105   3.775  24.010  0.8356  0.4614  2.0634
  139SAPE   H3Y15171   3.082   3.950  23.982 -3.8613  1.8194 -1.7838
  139SAPE   C3415172   2.963   3.828  23.845 -0.5936  0.9387 -0.2264
  139SAPE   H4X15173   2.882   3.901  23.822  0.2384  1.1514 -2.7466
  139SAPE   H4Y15174   2.904   3.733  23.845  0.1742  0.3176  3.2146
  139SAPE   C3515175   3.058   3.827  23.726 -0.7892  0.1300  0.3779
  139SAPE   H5X15176   3.100   3.929  23.711  1.3228 -0.8371 -0.6044
  139SAPE   H5Y15177   2.996   3.798  23.638 -2.8357  0.4110  1.6563
  139SAPE   C3615178   3.178   3.731  23.736 -0.1357 -0.3614 -0.0334
  139SAPE   H6X15179   3.160   3.673  23.829 -2.5059 -0.0728 -0.2397
  139SAPE   H6Y15180   3.276   3.779  23.752  0.1015 -1.1806  1.0961
  139SAPE   C3715181   3.184   3.633  23.619 -0.2394  0.7102  0.8087
  139SAPE   H7X15182   3.291   3.620  23.592 -0.7386 -1.5345 -0.2797
  139SAPE   H7Y15183   3.147   3.687  23.529  2.3499 -1.8406 -1.9850
  139SAPE   C3815184   3.124   3.497  23.645  0.4243  0.1096  0.1940
  139SAPE   H8X15185   3.015   3.504  23.664  0.3787 -1.1474  0.4841
  139SAPE   H8Y15186   3.156   3.459  23.745  1.1581  0.5917  0.1506
  139SAPE   C3915187   3.164   3.405  23.527 -1.2729 -0.5604  0.4223
  139SAPE   H9X15188   3.275   3.409  23.529 -1.2672  3.3033 -0.4613
  139SAPE   H9Y15189   3.120   3.450  23.436 -2.1339 -1.0196  0.5936
  139SAPE  C31015190   3.115   3.266  23.540 -0.0892  0.2728  0.2263
  139SAPE  H10X15191   3.006   3.256  23.525  0.2362 -2.1580 -1.1084
  139SAPE  H10Y15192   3.125   3.229  23.644 -0.0101 -1.6574 -0.4305
  139SAPE  C31115193   3.187   3.170  23.442  0.2921 -0.1514  0.4073
  139SAPE  H11X15194   3.295   3.185  23.465  0.2480 -1.2474  1.3903
  139SAPE  H11Y15195   3.181   3.199  23.335  0.0531  0.4597  0.5842
  139SAPE  C31215196   3.141   3.020  23.454  0.4273 -0.4581  0.3330
  139SAPE  H12X15197   3.047   3.023  23.394  1.1598  1.3009 -0.8096
  139SAPE  H12Y15198   3.121   2.991  23.559 -0.7175  0.7159  0.4694
  139SAPE  C31315199   3.263   2.939  23.396 -0.1742  1.5594  0.5649
  139SAPE  H13X15200   3.350   2.973  23.456  1.1589  0.7474 -0.8373
  139SAPE  H13Y15201   3.303   2.965  23.296 -0.5169 -0.2105 -0.0754
  139SAPE  C31415202   3.253   2.786  23.407  0.2802  0.8401 -0.6091
  139SAPE  H14X15203   3.215   2.752  23.506  2.8834 -1.4287 -0.2641
  139SAPE  H14Y15204   3.358   2.750  23.400 -0.6058 -2.4492  0.7338
  139SAPE  C31515205   3.162   2.722  23.302  0.0967 -0.0576 -0.0249
  139SAPE  H15X15206   3.096   2.797  23.256 -1.6047 -1.4209  0.0899
  139SAPE  H15Y15207   3.102   2.638  23.345 -0.7214  1.3831  1.7691
  139SAPE  C31615208   3.247   2.655  23.187 -0.4999 -0.6460 -0.0263
  139SAPE  H16X15209   3.339   2.716  23.171 -0.0858 -1.0389  0.7901
  139SAPE  H16Y15210   3.286   2.556  23.218  2.3450  1.2011  3.0539
  139SAPE  C31715211   3.180   2.641  23.050  0.5210  0.4206 -0.0872
  139SAPE  H17X15212   3.097   2.570  23.069  0.6653 -0.0012 -0.9694
  139SAPE  H17Y15213   3.251   2.583  22.988 -2.0139  1.3507 -4.2090
  139SAPE  C31815214   3.134   2.768  22.981  0.1936 -1.1094  0.1551
  139SAPE  H18X15215   3.182   2.767  22.881  1.1857  0.1507  0.5914
  139SAPE  H18Y15216   3.168   2.869  23.012 -2.5870 -0.4677  1.4226
  139SAPE  H18Z15217   3.024   2.776  22.971  0.3118  0.4511 -0.0408
  140SAPE     N15218   1.733   3.276  31.223  0.4323  0.0325 -0.1167
  140SAPE   HN115219   1.730   3.375  31.256  3.0196  0.3130 -0.5507
  140SAPE   HN215220   1.677   3.275  31.135  0.4528  1.5047 -0.1738
  140SAPE   HN315221   1.684   3.222  31.298 -0.7939  2.8479  1.2672
  140SAPE   C1215222   1.868   3.232  31.193  0.6173 -0.1336 -0.7407
  140SAPE  H12A15223   1.932   3.261  31.280 -0.2840 -1.3338  0.3684
  140SAPE  H12B15224   1.895   3.287  31.101 -2.3183 -0.6514 -2.0252
  140SAPE   C1115225   1.867   3.084  31.152  0.1056 -0.2300  0.4495
  140SAPE  H11A15226   1.845   3.019  31.239  1.6327  0.0056  1.0255
  140SAPE  H11B15227   1.974   3.074  31.125 -0.1184  1.6618 -1.4464
  140SAPE     P15228   1.677   2.949  31.028  0.0606 -0.0758 -0.4698
  140SAPE   O1315229   1.611   2.938  31.164 -0.3520  0.0360  0.4686
  140SAPE   O1415230   1.591   2.969  30.908 -0.1597  0.5932 -0.4807
  140SAPE   O1215231   1.790   3.056  31.037  0.3094  0.1209  0.1203
  140SAPE   O1115232   1.758   2.820  31.004  0.0406 -0.3688  0.5810
  140SAPE    C115233   1.866   2.817  30.912  0.3386 -0.0200 -1.1515
  140SAPE    HA15234   1.935   2.905  30.919  0.3264 -0.0250 -0.9406
  140SAPE    HB15235   1.930   2.730  30.938  0.1673  0.3302  0.5770
  140SAPE    C215236   1.824   2.811  30.762 -0.0346  0.0471 -0.2850
  140SAPE    HS15237   1.818   2.917  30.729  0.4770  0.4111  0.7425
  140SAPE   O2115238   1.697   2.745  30.755  0.2711  0.1306  0.6356
  140SAPE   C2115239   1.627   2.738  30.644 -0.0504  0.0860 -0.2151
  140SAPE   O2215240   1.657   2.790  30.536  0.6430  0.4855 -0.0076
  140SAPE   C2215241   1.512   2.639  30.664  0.0802  0.8408  0.1269
  140SAPE   H2R15242   1.555   2.542  30.699  2.2436  1.3125 -1.0359
  140SAPE   H2S15243   1.446   2.679  30.744 -3.3694 -0.4158 -1.8799
  140SAPE    C315244   1.918   2.729  30.675  0.2604 -0.3247 -0.4422
  140SAPE    HX15245   2.017   2.769  30.707 -1.4296  1.4869  3.1257
  140SAPE    HY15246   1.909   2.750  30.566  0.1507 -0.6687 -0.4998
  140SAPE   O3115247   1.916   2.586  30.693  0.2543  0.1382 -0.3424
  140SAPE   C3115248   2.031   2.526  30.686  0.1089 -1.0222  0.3638
  140SAPE   O3215249   2.128   2.571  30.630 -0.3496 -0.3847  0.4540
  140SAPE   C3215250   2.013   2.383  30.742  0.3677  0.1281 -0.3692
  140SAPE   H2X15251   1.907   2.377  30.775  0.0567 -1.8715 -1.6034
  140SAPE   H2Y15252   2.072   2.377  30.836  0.8510  1.8637 -0.5240
  140SAPE   C2315253   1.449   2.603  30.533 -0.5361 -0.0697  1.1970
  140SAPE   H3R15254   1.402   2.502  30.542 -1.3205 -0.0115 -1.2629
  140SAPE   H3S15255   1.520   2.597  30.448 -1.0206  1.4286  0.6465
  140SAPE   C2415256   1.322   2.682  30.498 -0.0003 -0.7021 -0.4319
  140SAPE   H4R15257   1.268   2.706  30.593 -0.9563 -1.7069 -0.7032
  140SAPE   H4S15258   1.250   2.609  30.454  0.2718 -1.0313 -0.3372
  140SAPE   C2515259   1.337   2.808  30.416  0.3168  0.0643 -0.1006
  140SAPE   H5R15260   1.327   2.902  30.473 -1.4336 -1.3426  2.1167
  140SAPE   C2615261   1.388   2.828  30.297 -1.1044 -0.5827  0.1932
  140SAPE   H6R15262   1.411   2.932  30.268  1.5413 -0.4103  2.5082
  140SAPE   C2715263   1.446   2.719  30.215 -0.4400  0.4760 -0.3680
  140SAPE   H7R15264   1.395   2.622  30.233  2.6868 -0.8608  2.2949
  140SAPE   H7S15265   1.550   2.696  30.246 -0.3888 -0.7456 -1.4054
  140SAPE   C2815266   1.437   2.752  30.073 -0.3103  0.2315 -0.0842
  140SAPE   H8R15267   1.341   2.797  30.042 -0.3790 -0.8018 -1.5047
  140SAPE   C2915268   1.534   2.735  29.983 -0.6762  0.2844  0.4739
  140SAPE   H9R15269   1.522   2.775  29.882  1.3960  1.0670  0.4852
  140SAPE  C21015270   1.664   2.661  30.002 -0.5554  0.5003  0.3257
  140SAPE  H10R15271   1.693   2.613  29.906  1.9511  0.1415  1.1786
  140SAPE  H10S15272   1.652   2.580  30.076  4.2461 -0.3852  0.4492
  140SAPE  C21115273   1.775   2.754  30.048  0.7946 -0.3797 -0.5524
  140SAPE  H11R15274   1.769   2.853  30.000 -0.1933 -0.5838 -0.8634
  140SAPE  C21215275   1.866   2.716  30.133  0.7565  0.4637  0.3798
  140SAPE  H12R15276   1.943   2.781  30.177  0.1370  0.4106  1.5948
  140SAPE  C21315277   1.859   2.583  30.207  0.1234  0.1250 -0.0201
  140SAPE  H13R15278   1.837   2.508  30.128 -1.3309  0.8804 -0.3622
  140SAPE  H13S15279   1.767   2.593  30.269 -0.8865  1.3812 -1.6536
  140SAPE  C21415280   1.981   2.544  30.293  0.0155 -0.9846  0.4011
  140SAPE  H14R15281   2.002   2.634  30.353 -2.0034  0.4625 -0.9298
  140SAPE  C21515282   2.054   2.431  30.300  0.1087  0.4899  0.3593
  140SAPE  H15R15283   2.145   2.427  30.362 -0.6274  2.0099  1.6018
  140SAPE  C21615284   2.025   2.302  30.227  0.0481  0.8502 -0.5058
  140SAPE  H16R15285   1.935   2.293  30.162 -2.0673 -1.1340  2.4278
  140SAPE  H16S15286   2.001   2.221  30.300 -0.0234 -1.2681 -2.7194
  140SAPE  C21715287   2.155   2.262  30.144  1.2338 -0.5504  0.6122
  140SAPE  H17R15288   2.245   2.294  30.201  0.6320  1.2473  0.6209
  140SAPE  H17S15289   2.167   2.334  30.060  3.0714  1.5368  2.5637
  140SAPE  C21815290   2.157   2.113  30.100  0.2382  0.3961 -0.0950
  140SAPE  H18R15291   2.100   2.107  30.005  1.8137 -0.3794 -1.0365
  140SAPE  H18S15292   2.125   2.037  30.175  0.8107 -1.1063 -1.3237
  140SAPE  C21915293   2.304   2.077  30.071 -1.0505 -0.2323 -0.2403
  140SAPE  H19R15294   2.360   2.060  30.165  1.3232  3.1752 -0.8578
  140SAPE  H19S15295   2.354   2.165  30.025  0.0641 -0.1750  1.0205
  140SAPE  C22015296   2.311   1.942  30.003  0.3377  0.0434  0.5225
  140SAPE  H20R15297   2.415   1.908  29.985  0.1425 -0.4561  0.3018
  140SAPE  H20S15298   2.262   1.950  29.904  0.0965 -0.0514  0.6332
  140SAPE  H20T15299   2.255   1.875  30.072  0.5620 -0.9806 -0.2649
  140SAPE   C3315300   2.068   2.270  30.647  0.4724 -0.0660  0.4046
  140SAPE   H3X15301   2.173   2.298  30.624  0.1688  0.5665 -0.2590
  140SAPE   H3Y15302   2.001   2.258  30.558  0.5400  0.0387  0.3393
  140SAPE   C3415303   2.075   2.130  30.724 -0.4115  0.2531  0.4691
  140SAPE   H4X15304   1.979   2.089  30.762 -0.2503 -0.6223 -0.0485
  140SAPE   H4Y15305   2.137   2.152  30.814  0.7312 -0.4104 -0.1489
  140SAPE   C3515306   2.137   2.024  30.628 -0.4380 -0.3936  0.6946
  140SAPE   H5X15307   2.231   2.074  30.598 -0.8700 -0.7474 -1.3630
  140SAPE   H5Y15308   2.080   2.020  30.533 -0.2250  2.2579  0.3947
  140SAPE   C3615309   2.186   1.885  30.687 -0.1464 -0.4052  0.5761
  140SAPE   H6X15310   2.201   1.810  30.606  1.0206  0.4144 -0.0070
  140SAPE   H6Y15311   2.107   1.838  30.749  0.4563 -1.5728  0.4896
  140SAPE   C3715312   2.315   1.898  30.776  0.6638 -0.3084  0.6026
  140SAPE   H7X15313   2.304   1.983  30.846  2.1092  0.9325 -0.6157
  140SAPE   H7Y15314   2.406   1.909  30.714 -0.4044 -1.2368 -1.2560
  140SAPE   C3815315   2.330   1.772  30.861  0.4274 -0.1997  0.1918
  140SAPE   H8X15316   2.276   1.773  30.958  1.0093  0.2755  0.5182
  140SAPE   H8Y15317   2.437   1.777  30.891  0.4862  3.0691 -0.2348
  140SAPE   C3915318   2.310   1.637  30.796 -0.3134 -0.8146 -0.4907
  140SAPE   H9X15319   2.380   1.633  30.710  1.9267  1.8221  1.0139
  140SAPE   H9Y15320   2.205   1.615  30.765 -0.2149  0.6765 -2.0217
  140SAPE  C31015321   2.363   1.522  30.891  0.0727 -0.0572  0.4476
  140SAPE  H10X15322   2.322   1.523  30.995 -1.1476 -1.6022  0.0221
  140SAPE  H10Y15323   2.473   1.535  30.897 -0.0678  1.2312  0.6957
  140SAPE  C31115324   2.333   1.387  30.839  0.3128 -0.5160  0.3053
  140SAPE  H11X15325   2.406   1.358  30.759 -0.1271 -1.0495  0.0894
  140SAPE  H11Y15326   2.234   1.395  30.789  1.1060 -0.7731 -1.3777
  140SAPE  C31215327   2.325   1.272  30.943  0.0262  0.5711  0.4213
  140SAPE  H12X15328   2.252   1.303  31.022  0.9227  2.8827  0.4151
  140SAPE  H12Y15329   2.423   1.255  30.993  1.6304 -0.9548 -2.9470
  140SAPE  C31315330   2.293   1.140  30.872  0.2486  0.3712 -0.1769
  140SAPE  H13X15331   2.205   1.139  30.803  0.6085  1.6254 -0.6803
  140SAPE  H13Y15332   2.275   1.066  30.953 -2.3293 -0.2378 -1.1765
  140SAPE  C31415333   2.406   1.089  30.776 -0.0585 -0.4999  0.1139
  140SAPE  H14X15334   2.500   1.075  30.834  0.8121  2.0591 -0.5369
  140SAPE  H14Y15335   2.444   1.166  30.706 -0.3175  0.2989  0.8380
  140SAPE  C31515336   2.374   0.959  30.692 -0.1445  0.5684 -0.1536
  140SAPE  H15X15337   2.283   0.975  30.631 -0.6635  2.2799  0.9846
  140SAPE  H15Y15338   2.351   0.870  30.754 -0.2539  1.1810  0.6999
  140SAPE  C31615339   2.493   0.911  30.606  0.5160  0.4594 -0.0907
  140SAPE  H16X15340   2.447   0.823  30.557 -0.6077  0.9418  0.0561
  140SAPE  H16Y15341   2.583   0.896  30.669 -0.6676  1.4946  1.9281
  140SAPE  C31715342   2.532   0.996  30.484 -0.5351 -0.0760 -0.3496
  140SAPE  H17X15343   2.573   1.094  30.516 -0.4910 -0.6204  1.3859
  140SAPE  H17Y15344   2.448   1.021  30.415  0.3609  3.0302 -0.4717
  140SAPE  C31815345   2.644   0.928  30.401 -0.5180 -0.6050 -0.0608
  140SAPE  H18X15346   2.606   0.834  30.355  1.0767 -1.0193 -0.5808
  140SAPE  H18Y15347   2.736   0.916  30.462  0.1789  2.7567 -0.2515
  140SAPE  H18Z15348   2.672   0.994  30.317 -1.9262  0.2660  0.1182
  141SAPE     N15349   1.822   3.864  28.027 -0.1212  0.3082 -0.9865
  141SAPE   HN115350   1.817   3.912  28.120 -3.7172 -1.2615 -0.1845
  141SAPE   HN215351   1.900   3.898  27.967 -0.6980  1.4425 -1.1220
  141SAPE   HN315352   1.725   3.894  28.003 -1.6019 -0.4406  3.1339
  141SAPE   C1215353   1.826   3.718  28.055 -0.1701 -0.2346 -0.8881
  141SAPE  H12A15354   1.772   3.658  27.978  1.2939 -2.2812 -0.4057
  141SAPE  H12B15355   1.771   3.698  28.150 -0.2457  0.3583 -0.8063
  141SAPE   C1115356   1.974   3.673  28.064 -0.4394  0.8188  0.1281
  141SAPE  H11A15357   2.013   3.668  27.960  0.0430  2.0671  0.2303
  141SAPE  H11B15358   1.963   3.570  28.104 -2.5749  0.9993  0.1128
  141SAPE     P15359   2.211   3.754  28.137  0.0367  0.5338 -0.2283
  141SAPE   O1315360   2.238   3.802  27.995 -0.4702  0.4573  0.1696
  141SAPE   O1415361   2.272   3.817  28.253  0.2731  0.0665 -0.0804
  141SAPE   O1215362   2.052   3.753  28.157  0.3586 -0.4938 -0.5379
  141SAPE   O1115363   2.252   3.602  28.149 -0.2645  0.1067  0.2646
  141SAPE    C115364   2.259   3.521  28.264 -0.4569 -0.4267  0.0714
  141SAPE    HA15365   2.349   3.456  28.258 -1.0107 -1.4474  2.0414
  141SAPE    HB15366   2.264   3.577  28.360  0.7552 -0.5474  0.0982
  141SAPE    C215367   2.140   3.420  28.292  0.6008  0.2453 -0.9423
  141SAPE    HS15368   2.048   3.483  28.290  0.1052 -0.4762 -1.2746
  141SAPE   O2115369   2.155   3.380  28.430  0.1527  0.7233  0.5546
  141SAPE   C2115370   2.085   3.290  28.483 -0.2396 -0.9361 -0.2493
  141SAPE   O2215371   1.987   3.231  28.439 -0.2314  0.4914  0.7017
  141SAPE   C2215372   2.148   3.276  28.618 -0.6185  0.1161 -1.2120
  141SAPE   H2R15373   2.252   3.239  28.608 -1.6801 -3.2952 -1.0249
  141SAPE   H2S15374   2.151   3.380  28.655  0.8755 -0.3987  0.2169
  141SAPE    C315375   2.134   3.306  28.186 -0.0993  0.4754  0.0900
  141SAPE    HX15376   2.123   3.359  28.089  4.0677 -0.0669 -0.9088
  141SAPE    HY15377   2.047   3.244  28.215 -0.9288  1.9054  0.7969
  141SAPE   O3115378   2.252   3.217  28.189  0.4340  0.0222 -0.1931
  141SAPE   C3115379   2.322   3.200  28.074 -0.7714 -0.4110 -0.0395
  141SAPE   O3215380   2.289   3.244  27.964 -0.3076 -0.1648  0.6105
  141SAPE   C3215381   2.462   3.146  28.096 -0.0494 -0.4573  0.7273
  141SAPE   H2X15382   2.468   3.096  28.195  0.1675 -2.0055 -0.0435
  141SAPE   H2Y15383   2.543   3.222  28.092 -0.2360 -0.2811  0.3073
  141SAPE   C2315384   2.072   3.191  28.723  0.1718  0.7754 -0.6348
  141SAPE   H3R15385   2.057   3.086  28.690  0.7283  0.4686  0.0596
  141SAPE   H3S15386   1.965   3.219  28.725 -0.0588 -0.0004 -1.2600
  141SAPE   C2415387   2.141   3.179  28.861 -0.0146  0.3348  0.1668
  141SAPE   H4R15388   2.075   3.125  28.932  0.0683  0.2050  0.1453
  141SAPE   H4S15389   2.152   3.282  28.901  0.2076  0.0647  0.8170
  141SAPE   C2515390   2.279   3.124  28.854  0.3382 -0.3893 -0.3631
  141SAPE   H5R15391   2.342   3.180  28.784  1.1769 -1.6664 -0.6735
  141SAPE   C2615392   2.333   3.029  28.928 -0.0028  0.2490  0.2555
  141SAPE   H6R15393   2.437   3.006  28.902 -0.4345  0.9036 -2.3539
  141SAPE   C2715394   2.271   2.957  29.047 -0.6059 -0.6510 -0.1485
  141SAPE   H7R15395   2.318   2.856  29.042  1.5552  0.2878  0.2404
  141SAPE   H7S15396   2.161   2.941  29.049 -0.6652 -0.3230 -0.6783
  141SAPE   C2815397   2.313   3.022  29.176  0.3822 -0.3704  0.1281
  141SAPE   H8R15398   2.421   3.023  29.198  0.3849 -0.6986  0.1359
  141SAPE   C2915399   2.222   3.074  29.262 -0.8874  0.2248  0.0688
  141SAPE   H9R15400   2.275   3.127  29.342 -1.0866 -0.4919  0.6874
  141SAPE  C21015401   2.073   3.101  29.246 -0.3022  0.0047  0.3253
  141SAPE  H10R15402   2.069   3.160  29.151  2.4859 -1.6705 -0.9611
  141SAPE  H10S15403   2.046   3.170  29.329 -0.0407  1.6515 -0.9041
  141SAPE  C21115404   1.985   2.982  29.255 -0.4288  0.5008  0.2088
  141SAPE  H11R15405   1.999   2.920  29.344  0.8528  0.4099 -0.0305
  141SAPE  C21215406   1.891   2.947  29.173 -0.7318  0.2430  0.0477
  141SAPE  H12R15407   1.835   2.852  29.179 -3.6153  1.7888 -0.5672
  141SAPE  C21315408   1.858   3.021  29.046 -0.2325  0.1620 -0.1572
  141SAPE  H13R15409   1.909   2.970  28.962  0.1864  0.1636  0.0899
  141SAPE  H13S15410   1.890   3.127  29.043  1.6800 -0.1646  3.0092
  141SAPE  C21415411   1.711   3.026  29.020 -0.4515  1.0006 -0.2421
  141SAPE  H14R15412   1.650   3.073  29.098  0.4774 -1.4698  2.1398
  141SAPE  C21515413   1.650   2.985  28.907 -0.3517 -1.2132 -0.0224
  141SAPE  H15R15414   1.553   3.026  28.877 -0.8380 -0.8961  1.8546
  141SAPE  C21615415   1.719   2.916  28.795  0.3575  0.3138 -0.3169
  141SAPE  H16R15416   1.664   2.830  28.751  3.4102 -0.9503 -1.8905
  141SAPE  H16S15417   1.812   2.862  28.822 -0.1651 -0.9773 -1.0093
  141SAPE  C21715418   1.735   3.012  28.678  0.7611  0.1712  0.2199
  141SAPE  H17R15419   1.788   3.107  28.705 -0.1993  0.6069  0.6177
  141SAPE  H17S15420   1.633   3.045  28.648  0.4646 -1.9227 -1.2382
  141SAPE  C21815421   1.809   2.953  28.564 -0.8452  0.5719 -0.3421
  141SAPE  H18R15422   1.911   2.921  28.594 -0.3731 -0.1400 -2.5172
  141SAPE  H18S15423   1.823   3.033  28.488 -1.5687 -2.0966 -3.5131
  141SAPE  C21915424   1.721   2.855  28.485 -0.1026  0.6062  0.0920
  141SAPE  H19R15425   1.635   2.916  28.450 -1.2724 -1.3326 -0.5774
  141SAPE  H19S15426   1.684   2.766  28.541  0.1413 -0.6295 -1.6301
  141SAPE  C22015427   1.802   2.804  28.363  0.1978 -0.0705  0.0578
  141SAPE  H20R15428   1.823   2.898  28.308 -3.5682  0.3599 -0.9421
  141SAPE  H20S15429   1.733   2.741  28.302 -0.1843  0.7636 -0.4018
  141SAPE  H20T15430   1.894   2.751  28.395  1.2848  1.3602 -0.5624
  141SAPE   C3315431   2.502   3.039  27.989  0.4683  0.4778  0.1531
  141SAPE   H3X15432   2.613   3.035  27.991  0.4508 -0.9852 -0.3984
  141SAPE   H3Y15433   2.468   3.070  27.887  0.8230  0.6070  0.0735
  141SAPE   C3415434   2.440   2.904  28.007 -0.6079  0.4192 -0.2594
  141SAPE   H4X15435   2.331   2.909  27.990 -0.5497  1.5827 -0.3960
  141SAPE   H4Y15436   2.463   2.874  28.112 -0.4059 -0.0179 -0.4284
  141SAPE   C3515437   2.496   2.800  27.903 -0.5533  0.6166  0.2122
  141SAPE   H5X15438   2.606   2.794  27.914 -0.5721  0.0285  0.1177
  141SAPE   H5Y15439   2.458   2.842  27.807  2.2517  2.8742 -0.0571
  141SAPE   C3615440   2.441   2.656  27.910  0.8118  0.2596  0.4232
  141SAPE   H6X15441   2.441   2.578  27.831 -0.0576 -2.0163  2.5453
  141SAPE   H6Y15442   2.333   2.679  27.914 -0.1485 -3.0673 -1.8911
  141SAPE   C3715443   2.475   2.572  28.033  0.0125 -0.3022 -0.7980
  141SAPE   H7X15444   2.458   2.636  28.122  0.7320  1.3947 -1.8227
  141SAPE   H7Y15445   2.584   2.554  28.019  0.1653  1.0104 -1.5449
  141SAPE   C3815446   2.390   2.439  28.044  0.0524 -0.0841  0.7277
  141SAPE   H8X15447   2.450   2.370  28.106  2.3357  0.8082 -0.3484
  141SAPE   H8Y15448   2.388   2.382  27.949 -0.5734 -1.2523  1.4337
  141SAPE   C3915449   2.256   2.456  28.109  1.2719  0.3198  0.7025
  141SAPE   H9X15450   2.186   2.503  28.036  0.9641 -1.3460 -0.1330
  141SAPE   H9Y15451   2.260   2.513  28.203 -1.8329 -1.1730  1.8943
  141SAPE  C31015452   2.179   2.323  28.119  0.1274  0.3451  0.0426
  141SAPE  H10X15453   2.242   2.260  28.186  1.1589  0.3198 -0.9275
  141SAPE  H10Y15454   2.167   2.273  28.021 -0.8532 -0.6366  0.6346
  141SAPE  C31115455   2.039   2.337  28.175 -0.1676  0.0823 -0.4161
  141SAPE  H11X15456   1.983   2.408  28.109  0.3491 -0.7472 -1.7808
  141SAPE  H11Y15457   2.037   2.372  28.281 -0.7803  1.0115 -0.7197
  141SAPE  C31215458   1.960   2.204  28.176 -0.1459  0.4548 -0.0449
  141SAPE  H12X15459   1.999   2.144  28.090 -1.9399 -3.2503  1.4908
  141SAPE  H12Y15460   1.851   2.224  28.165 -0.1278  1.0144  0.7656
  141SAPE  C31315461   1.988   2.097  28.286  0.2084 -0.2911  0.0200
  141SAPE  H13X15462   1.911   2.017  28.288 -0.1969  0.1026  0.8276
  141SAPE  H13Y15463   1.999   2.149  28.384  0.1277  0.7248 -0.4969
  141SAPE  C31415464   2.118   2.016  28.262  0.5445  0.1911  0.2627
  141SAPE  H14X15465   2.197   2.087  28.296 -1.3921  1.9585  1.3001
  141SAPE  H14Y15466   2.133   1.983  28.156  4.2206 -1.4193  1.1115
  141SAPE  C31515467   2.122   1.892  28.354 -0.9797 -0.4148  0.1880
  141SAPE  H15X15468   2.073   1.802  28.311 -0.8176  0.2731 -1.5425
  141SAPE  H15Y15469   2.066   1.916  28.446 -0.6270 -2.2612  0.9139
  141SAPE  C31615470   2.263   1.849  28.400 -0.0725 -0.9128  0.5106
  141SAPE  H16X15471   2.324   1.936  28.429  1.1365 -0.2811 -3.3497
  141SAPE  H16Y15472   2.325   1.812  28.316  0.3572 -1.4221  1.0385
  141SAPE  C31715473   2.268   1.737  28.505  0.0334  0.0572  0.4904
  141SAPE  H17X15474   2.201   1.652  28.479 -0.8415  1.1190 -0.9127
  141SAPE  H17Y15475   2.233   1.785  28.599 -0.3890  1.1248 -0.1914
  141SAPE  C31815476   2.406   1.688  28.536 -0.5206  0.3449 -0.1349
  141SAPE  H18X15477   2.477   1.772  28.546  1.3941 -1.0406 -1.3688
  141SAPE  H18Y15478   2.432   1.633  28.443 -0.6295  0.7526 -0.4079
  141SAPE  H18Z15479   2.407   1.623  28.626 -1.4609  0.1741 -0.2311
  142SAPE     N15480   1.332   3.362  28.169 -0.8104  0.5450 -0.1737
  142SAPE   HN115481   1.388   3.444  28.201  1.0879 -1.7355  2.8673
  142SAPE   HN215482   1.337   3.367  28.065  0.7767  2.6410 -0.0720
  142SAPE   HN315483   1.232   3.375  28.197 -0.7931  0.5525 -0.1176
  142SAPE   C1215484   1.382   3.237  28.236  0.5928 -0.0113 -0.2625
  142SAPE  H12A15485   1.298   3.164  28.241  1.3826 -0.8928  0.9019
  142SAPE  H12B15486   1.397   3.264  28.343 -0.7354  0.3111 -0.1512
  142SAPE   C1115487   1.508   3.185  28.173  0.2191  0.4794 -0.7107
  142SAPE  H11A15488   1.480   3.123  28.085 -2.1265 -0.0427  0.3429
  142SAPE  H11B15489   1.544   3.114  28.250 -1.7286  2.8970  2.7311
  142SAPE     P15490   1.687   3.293  28.015 -0.6455 -0.1947  0.5987
  142SAPE   O1315491   1.608   3.368  27.918 -0.0219  0.4878  0.5631
  142SAPE   O1415492   1.827   3.347  28.035 -0.1573  0.6393  0.7630
  142SAPE   O1215493   1.612   3.289  28.150 -0.4099 -0.2557  0.2116
  142SAPE   O1115494   1.686   3.136  27.972 -0.0298 -0.4371 -0.7235
  142SAPE    C115495   1.770   3.036  28.038  0.4842  0.3437 -0.7484
  142SAPE    HA15496   1.804   3.079  28.135  0.9831 -0.0657 -0.7355
  142SAPE    HB15497   1.710   2.943  28.047 -0.2373  0.7735 -1.0627
  142SAPE    C215498   1.906   3.004  27.967 -0.4483  0.1382  0.6384
  142SAPE    HS15499   1.966   3.096  27.951 -1.0362  0.7300  1.6851
  142SAPE   O2115500   1.868   2.943  27.843 -0.3717 -0.3097 -0.0107
  142SAPE   C2115501   1.838   3.027  27.749  0.2395  0.2452  0.6607
  142SAPE   O2215502   1.875   3.142  27.738 -0.1024 -0.2865 -0.4569
  142SAPE   C2215503   1.717   2.963  27.684 -0.3379 -0.9690  0.7701
  142SAPE   H2R15504   1.640   3.002  27.754  0.0545  0.0464  0.6612
  142SAPE   H2S15505   1.706   3.005  27.582  1.3954  0.6175  1.1795
  142SAPE    C315506   2.000   2.911  28.038 -0.4388 -0.6352 -0.4609
  142SAPE    HX15507   2.080   2.895  27.963  2.5634  2.0030  1.9365
  142SAPE    HY15508   1.960   2.807  28.035  1.9318 -1.6722 -4.8383
  142SAPE   O3115509   2.044   2.960  28.169 -0.5240  0.2045 -0.0535
  142SAPE   C3115510   2.108   2.861  28.235  0.4325  0.4458 -0.4481
  142SAPE   O3215511   2.122   2.750  28.189 -0.3377  0.4261  0.2319
  142SAPE   C3215512   2.158   2.911  28.369 -0.5165 -0.2192  0.4635
  142SAPE   H2X15513   2.116   2.863  28.460  1.3170  1.3052  2.2078
  142SAPE   H2Y15514   2.139   3.021  28.373 -1.7751 -0.4564  2.3789
  142SAPE   C2315515   1.719   2.807  27.668  0.6953 -0.5585  0.2573
  142SAPE   H3R15516   1.753   2.756  27.761 -0.3284 -1.5251  0.1173
  142SAPE   H3S15517   1.781   2.779  27.580 -1.5613  0.4601 -1.7882
  142SAPE   C2415518   1.576   2.749  27.631  0.0826 -0.3693  0.2158
  142SAPE   H4R15519   1.591   2.650  27.582 -1.1551 -1.3170  1.6400
  142SAPE   H4S15520   1.528   2.821  27.561 -2.3849 -2.5622 -0.5554
  142SAPE   C2515521   1.489   2.724  27.758 -0.1584  0.4273  0.1161
  142SAPE   H5R15522   1.524   2.668  27.847 -0.3365  0.0310 -0.0626
  142SAPE   C2615523   1.359   2.762  27.756 -0.0363 -0.6878  0.0728
  142SAPE   H6R15524   1.293   2.742  27.843  0.4499 -1.1320  0.3437
  142SAPE   C2715525   1.284   2.829  27.647  0.1250  0.0106  0.0990
  142SAPE   H7R15526   1.177   2.802  27.661  0.2778 -1.7812 -1.8172
  142SAPE   H7S15527   1.319   2.792  27.549  0.3698  0.3044  0.0736
  142SAPE   C2815528   1.299   2.973  27.632 -0.4627 -0.1246 -0.2732
  142SAPE   H8R15529   1.387   3.000  27.571  0.7045  0.1957  1.4651
  142SAPE   C2915530   1.239   3.073  27.703 -0.8645  0.4679  0.1885
  142SAPE   H9R15531   1.256   3.178  27.674 -2.2563  1.0169  1.2676
  142SAPE  C21015532   1.132   3.047  27.808 -0.2799  0.0407 -0.5348
  142SAPE  H10R15533   1.176   3.061  27.908  3.2899 -2.7975 -1.4970
  142SAPE  H10S15534   1.080   2.949  27.817 -0.0185  0.1290  3.5695
  142SAPE  C21115535   1.013   3.143  27.795  0.3292  0.0794  0.3629
  142SAPE  H11R15536   1.046   3.248  27.804 -1.7370  0.5765  4.7238
  142SAPE  C21215537   0.881   3.118  27.790  0.0324  1.0176  0.4678
  142SAPE  H12R15538   0.804   3.196  27.782 -2.5907 -1.4450  0.3915
  142SAPE  C21315539   0.811   2.985  27.768  0.7280  0.0106  0.0233
  142SAPE  H13R15540   0.741   2.956  27.849 -2.7483  1.1705 -2.2870
  142SAPE  H13S15541   0.876   2.896  27.760  0.5892 -0.4679  3.0111
  142SAPE  C21415542   0.732   2.980  27.640  0.2233  0.0533  0.3883
  142SAPE  H14R15543   0.789   3.017  27.554  1.1706 -0.9214  0.5756
  142SAPE  C21515544   0.611   2.924  27.616 -0.0114 -0.2655 -0.4154
  142SAPE  H15R15545   0.569   2.931  27.514 -0.3549 -0.1741 -0.2682
  142SAPE  C21615546   0.526   2.837  27.710  0.4767 -1.0203 -0.4300
  142SAPE  H16R15547   0.587   2.786  27.788  1.2511  0.2713 -0.1607
  142SAPE  H16S15548   0.466   2.763  27.653 -1.6715  1.3403 -1.4246
  142SAPE  C21715549   0.427   2.917  27.791  0.5386 -0.2386  1.0035
  142SAPE  H17R15550   0.368   2.985  27.726 -1.7966 -1.1932  1.9818
  142SAPE  H17S15551   0.477   2.990  27.858 -0.7737  2.2587 -0.5667
  142SAPE  C21815552   0.324   2.824  27.858 -0.3367 -0.5945 -0.6569
  142SAPE  H18R15553   0.272   2.758  27.785  0.7156 -0.0789 -1.9098
  142SAPE  H18S15554   0.245   2.892  27.899 -0.6687 -0.4920 -1.4527
  142SAPE  C21915555   0.375   2.738  27.974  0.3045  0.1989 -0.3150
  142SAPE  H19R15556   0.418   2.804  28.052  2.4293 -1.0528 -0.3599
  142SAPE  H19S15557   0.459   2.675  27.937 -0.0853 -1.2392  1.1358
  142SAPE  C22015558   0.270   2.658  28.057  0.4717 -0.2486  0.0221
  142SAPE  H20R15559   0.325   2.627  28.148 -0.6825  2.9514  1.9845
  142SAPE  H20S15560   0.240   2.563  28.009 -0.9894  0.7706 -1.1811
  142SAPE  H20T15561   0.183   2.722  28.082 -0.5919 -1.5484 -0.2537
  142SAPE   C3315562   2.311   2.883  28.408 -0.2475 -0.5440  0.0399
  142SAPE   H3X15563   2.338   2.929  28.504 -0.1050 -0.0660 -0.2272
  142SAPE   H3Y15564   2.387   2.920  28.336  0.6981  0.5985  1.5796
  142SAPE   C3415565   2.331   2.726  28.411 -0.1651 -0.1525 -0.0482
  142SAPE   H4X15566   2.371   2.690  28.314 -1.6711 -1.6051 -0.1803
  142SAPE   H4Y15567   2.231   2.680  28.431 -1.3513  2.4030  0.3625
  142SAPE   C3515568   2.428   2.684  28.525  0.2216 -0.1156  0.6291
  142SAPE   H5X15569   2.391   2.725  28.621 -0.8249  0.0089  0.1892
  142SAPE   H5Y15570   2.526   2.734  28.505 -0.8501  1.2358 -1.8200
  142SAPE   C3615571   2.440   2.533  28.535 -0.2650 -0.1400 -0.2446
  142SAPE   H6X15572   2.339   2.503  28.572 -0.7490  1.8194  0.1717
  142SAPE   H6Y15573   2.522   2.510  28.606  0.8286  0.1701 -1.3740
  142SAPE   C3715574   2.479   2.460  28.410  0.4234  0.0078 -0.3901
  142SAPE   H7X15575   2.398   2.466  28.335  1.3060  3.4127 -1.2299
  142SAPE   H7Y15576   2.500   2.354  28.438  2.5330  0.2660 -0.8140
  142SAPE   C3815577   2.608   2.509  28.341  0.4661  0.0240 -0.1632
  142SAPE   H8X15578   2.666   2.549  28.426 -0.4847 -1.8830  1.4901
  142SAPE   H8Y15579   2.611   2.595  28.271 -0.5882 -0.3436 -0.6938
  142SAPE   C3915580   2.682   2.399  28.271  0.5227 -0.8151  0.6580
  142SAPE   H9X15581   2.709   2.432  28.168 -2.3804 -1.1888 -0.3096
  142SAPE   H9Y15582   2.617   2.310  28.257 -1.3094  0.6992 -1.1439
  142SAPE  C31015583   2.808   2.367  28.347  0.4774 -0.0218  0.0938
  142SAPE  H10X15584   2.774   2.323  28.443 -4.3676  0.1978 -1.2551
  142SAPE  H10Y15585   2.863   2.462  28.358  1.5367 -0.6204  0.1064
  142SAPE  C31115586   2.896   2.265  28.278 -0.7826 -0.5114 -0.4427
  142SAPE  H11X15587   2.928   2.317  28.185 -3.5150  0.3835 -0.9734
  142SAPE  H11Y15588   2.839   2.177  28.241  0.6046 -2.3378  1.5658
  142SAPE  C31215589   3.018   2.215  28.351  0.2063 -0.4110  0.1913
  142SAPE  H12X15590   2.984   2.172  28.447 -1.7993 -1.4032 -0.9192
  142SAPE  H12Y15591   3.086   2.301  28.374 -0.4797  0.3243 -0.4627
  142SAPE  C31315592   3.091   2.110  28.272  0.4397  0.3634 -0.6661
  142SAPE  H13X15593   3.138   2.159  28.184 -0.7682  0.4677 -1.2669
  142SAPE  H13Y15594   3.018   2.042  28.222 -0.9892  0.7231  0.8533
  142SAPE  C31415595   3.179   2.014  28.361 -0.0004  0.1868  0.2772
  142SAPE  H14X15596   3.118   1.961  28.437 -1.4116 -0.4327 -1.2195
  142SAPE  H14Y15597   3.242   2.079  28.425 -0.8538  2.4773 -1.0506
  142SAPE  C31515598   3.278   1.933  28.282 -0.3600  0.7025  0.1599
  142SAPE  H15X15599   3.375   1.919  28.335 -0.6335 -0.1287  0.4707
  142SAPE  H15Y15600   3.298   1.985  28.187  0.9732  0.5786  0.3560
  142SAPE  C31615601   3.238   1.782  28.256 -0.2942  0.3093 -0.0974
  142SAPE  H16X15602   3.130   1.775  28.229 -0.6733  1.4083  1.0109
  142SAPE  H16Y15603   3.237   1.718  28.347 -2.0664 -2.7163 -2.0945
  142SAPE  C31715604   3.319   1.722  28.144 -0.4020  0.7581  0.7195
  142SAPE  H17X15605   3.423   1.696  28.170 -0.2505  0.0421 -0.5364
  142SAPE  H17Y15606   3.317   1.795  28.061  0.1558 -2.7991 -2.7369
  142SAPE  C31815607   3.259   1.586  28.090  0.4044 -0.1829 -0.6147
  142SAPE  H18X15608   3.253   1.508  28.168  2.8447 -0.5043 -0.6543
  142SAPE  H18Y15609   3.305   1.536  28.002 -3.1666 -4.5940 -0.2993
  142SAPE  H18Z15610   3.159   1.612  28.049 -0.9185 -1.9036  1.3256
  143SAPE     N15611   3.190   3.691  28.231 -0.3901  0.0298 -0.0315
  143SAPE   HN115612   3.144   3.777  28.196 -1.7621 -0.5754  0.2394
  143SAPE   HN215613   3.289   3.705  28.202 -0.6144  2.7287  0.2691
  143SAPE   HN315614   3.151   3.608  28.182 -0.0172  0.6847 -1.4982
  143SAPE   C1215615   3.190   3.688  28.377  0.3743 -0.7965  0.0901
  143SAPE  H12A15616   3.087   3.689  28.418  1.0747 -1.4180  1.9426
  143SAPE  H12B15617   3.248   3.770  28.424 -0.2573 -0.7012  0.7194
  143SAPE   C1115618   3.246   3.551  28.420  0.2049  0.3383 -0.6676
  143SAPE  H11A15619   3.183   3.471  28.375 -0.8067  0.0680  1.1234
  143SAPE  H11B15620   3.228   3.547  28.530 -2.8512  0.9412 -1.0543
  143SAPE     P15621   3.483   3.506  28.495 -0.0405  0.4133 -0.0697
  143SAPE   O1315622   3.619   3.476  28.437  0.2201  0.1330 -0.5020
  143SAPE   O1415623   3.477   3.609  28.602  0.3965  0.0675 -0.2051
  143SAPE   O1215624   3.387   3.546  28.381  1.1208 -0.2597  0.1243
  143SAPE   O1115625   3.426   3.368  28.557  1.2466 -0.0900  0.2839
  143SAPE    C115626   3.428   3.248  28.478  0.2342  0.6276  0.2007
  143SAPE    HA15627   3.518   3.245  28.414  0.4637  1.2151  0.4840
  143SAPE    HB15628   3.433   3.163  28.550  1.3864  1.0097  0.5985
  143SAPE    C215629   3.294   3.225  28.401 -0.3728 -0.2839  0.3155
  143SAPE    HS15630   3.290   3.303  28.323 -3.1045 -1.0612 -0.4532
  143SAPE   O2115631   3.176   3.229  28.489  0.1359  0.0568  0.4305
  143SAPE   C2115632   3.064   3.234  28.424  0.2984 -0.0412  1.2100
  143SAPE   O2215633   3.048   3.256  28.305 -0.0965 -0.2218 -0.3038
  143SAPE   C2215634   2.942   3.205  28.517 -0.5599  0.0013  0.1356
  143SAPE   H2R15635   2.963   3.239  28.621  1.2193 -1.1762  0.2031
  143SAPE   H2S15636   2.861   3.268  28.472  1.3176  2.0718 -0.5238
  143SAPE    C315637   3.307   3.097  28.313  1.0404 -0.3537 -0.4184
  143SAPE    HX15638   3.223   3.084  28.241 -0.7553 -0.8713  1.6452
  143SAPE    HY15639   3.303   3.002  28.371 -1.7110 -0.5106 -0.7230
  143SAPE   O3115640   3.430   3.096  28.244 -0.4946 -0.8007 -0.3466
  143SAPE   C3115641   3.433   3.041  28.127  0.0388 -0.0936 -0.3523
  143SAPE   O3215642   3.335   3.008  28.063 -0.1298  0.6238 -0.0285
  143SAPE   C3215643   3.580   3.046  28.077 -0.4571 -0.0093  0.3428
  143SAPE   H2X15644   3.643   3.019  28.165  0.1013 -2.1650 -0.6393
  143SAPE   H2Y15645   3.598   3.155  28.061  1.3520  0.1157  2.6201
  143SAPE   C2315646   2.892   3.064  28.516  0.7190 -0.5733 -0.3171
  143SAPE   H3R15647   2.861   3.029  28.415  3.1314 -0.3223 -1.2158
  143SAPE   H3S15648   2.798   3.065  28.576  1.2955  1.5989  0.6681
  143SAPE   C2415649   2.986   2.961  28.587 -0.0679 -0.1860 -0.1245
  143SAPE   H4R15650   3.081   2.972  28.530  0.5262 -0.7750  0.7244
  143SAPE   H4S15651   2.953   2.857  28.567 -1.0119 -0.2446  1.5332
  143SAPE   C2515652   3.009   2.979  28.735  0.9609 -0.0780  0.2938
  143SAPE   H5R15653   2.922   3.012  28.794 -1.0385  0.1855 -2.5587
  143SAPE   C2615654   3.118   2.954  28.804 -0.3310 -0.3068  0.2188
  143SAPE   H6R15655   3.113   2.981  28.910 -2.2661 -0.5278  0.2211
  143SAPE   C2715656   3.253   2.916  28.754  0.3556  0.5102  0.1470
  143SAPE   H7R15657   3.278   2.962  28.656  2.7061  1.5480  1.1488
  143SAPE   H7S15658   3.256   2.805  28.754 -2.5173  0.3531  0.1384
  143SAPE   C2815659   3.364   2.977  28.838  0.6967  0.4804 -0.1373
  143SAPE   H8R15660   3.350   3.073  28.891 -0.2314  0.6650 -0.6997
  143SAPE   C2915661   3.486   2.953  28.798 -0.9667  0.4391 -0.1698
  143SAPE   H9R15662   3.565   2.993  28.864  0.7866  1.7297 -2.8535
  143SAPE  C21015663   3.534   2.851  28.702 -0.3327 -0.0818  0.1362
  143SAPE  H10R15664   3.461   2.767  28.690 -0.2909 -0.1496  0.3476
  143SAPE  H10S15665   3.621   2.804  28.752  0.5095  0.0651 -1.1404
  143SAPE  C21115666   3.586   2.912  28.569 -0.0041 -0.6105 -0.5080
  143SAPE  H11R15667   3.630   3.013  28.576 -0.8823 -0.2048 -0.7066
  143SAPE  C21215668   3.565   2.862  28.454 -0.1242  0.4750 -0.5730
  143SAPE  H12R15669   3.610   2.915  28.369  2.5514  1.6361  1.4042
  143SAPE  C21315670   3.490   2.732  28.438  0.5090 -0.2309 -0.1083
  143SAPE  H13R15671   3.385   2.763  28.454  0.2221  0.3386 -2.7537
  143SAPE  H13S15672   3.525   2.659  28.514  1.8861 -0.3426 -0.8100
  143SAPE  C21415673   3.505   2.656  28.318  0.2609 -0.2592  0.1105
  143SAPE  H14R15674   3.611   2.644  28.292  0.5198  1.1640  0.4568
  143SAPE  C21515675   3.405   2.601  28.252 -1.1453  0.5114 -0.2345
  143SAPE  H15R15676   3.442   2.558  28.158  2.3838  0.2707  1.1292
  143SAPE  C21615677   3.253   2.600  28.274 -0.4461 -0.6857  0.2899
  143SAPE  H16R15678   3.213   2.552  28.366  0.2902 -3.1926 -0.6237
  143SAPE  H16S15679   3.218   2.533  28.192  1.7980  2.3477 -3.4943
  143SAPE  C21715680   3.197   2.738  28.249  0.2812  0.1528 -0.0580
  143SAPE  H17R15681   3.245   2.771  28.154  1.3969 -2.7758 -0.6092
  143SAPE  H17S15682   3.220   2.809  28.331 -1.0098 -0.8340  1.2018
  143SAPE  C21815683   3.049   2.756  28.231 -0.1012 -0.1702 -0.5077
  143SAPE  H18R15684   3.001   2.751  28.332  1.0999 -2.4010 -0.0020
  143SAPE  H18S15685   3.008   2.668  28.178  0.0486  0.6075 -1.9886
  143SAPE  C21915686   3.009   2.881  28.158  0.0488 -0.4810 -0.4832
  143SAPE  H19R15687   3.048   2.873  28.054 -0.5690  0.4370 -0.8001
  143SAPE  H19S15688   3.057   2.971  28.202 -3.1245 -0.0784  2.5869
  143SAPE  C22015689   2.854   2.890  28.162  0.6754  0.5470 -0.1275
  143SAPE  H20R15690   2.817   2.986  28.123  2.9260  1.5713  0.1134
  143SAPE  H20S15691   2.819   2.879  28.267  2.1620  1.6104  0.5126
  143SAPE  H20T15692   2.830   2.805  28.095  0.9033  0.8473 -0.5920
  143SAPE   C3315693   3.622   2.956  27.963  0.2474 -0.1971  0.3046
  143SAPE   H3X15694   3.720   2.994  27.928  0.3007 -0.5261  0.0877
  143SAPE   H3Y15695   3.555   2.971  27.875  2.0080  0.9904 -0.8832
  143SAPE   C3415696   3.643   2.807  27.995 -0.0691 -0.5184 -0.4665
  143SAPE   H4X15697   3.551   2.773  28.047 -0.2610  1.7106  0.7472
  143SAPE   H4Y15698   3.735   2.789  28.055  0.4229 -2.0210 -1.5897
  143SAPE   C3515699   3.660   2.730  27.865  0.6042  0.2358  0.2740
  143SAPE   H5X15700   3.749   2.765  27.808  3.3285 -1.6869  3.0898
  143SAPE   H5Y15701   3.573   2.755  27.800  0.1204 -1.3821  0.2448
  143SAPE   C3615702   3.664   2.578  27.894 -0.1276 -0.4583 -0.5234
  143SAPE   H6X15703   3.568   2.547  27.940  0.7024  0.4578  2.0549
  143SAPE   H6Y15704   3.753   2.570  27.961  1.3219 -1.1611 -2.4502
  143SAPE   C3715705   3.693   2.490  27.775  0.2297 -0.0201  0.5137
  143SAPE   H7X15706   3.792   2.515  27.730 -0.2324 -1.9839 -1.8437
  143SAPE   H7Y15707   3.619   2.513  27.696 -0.9648  1.5293  2.0112
  143SAPE   C3815708   3.695   2.348  27.820 -0.2446  0.6450 -0.0158
  143SAPE   H8X15709   3.602   2.320  27.875  0.6302 -1.2038  0.6327
  143SAPE   H8Y15710   3.776   2.328  27.894 -0.9267 -2.4488  0.0609
  143SAPE   C3915711   3.753   2.262  27.706 -0.5993  0.6393  0.2227
  143SAPE   H9X15712   3.856   2.299  27.690  0.1528 -1.5881 -0.4664
  143SAPE   H9Y15713   3.708   2.266  27.604 -0.7841  0.3636  0.2938
  143SAPE  C31015714   3.771   2.112  27.748  0.9799  0.7224  0.0472
  143SAPE  H10X15715   3.671   2.064  27.746  1.1158  0.4206  0.4333
  143SAPE  H10Y15716   3.801   2.099  27.854 -2.4807 -1.1052  0.9528
  143SAPE  C31115717   3.871   2.042  27.666 -0.3237  0.5132 -0.2432
  143SAPE  H11X15718   3.965   2.101  27.666  0.3167 -0.4578 -1.0125
  143SAPE  H11Y15719   3.840   2.036  27.559  0.0516  1.0336 -0.3838
  143SAPE  C31215720   3.911   1.906  27.715 -0.9065 -0.1379 -0.0382
  143SAPE  H12X15721   3.828   1.833  27.700 -3.0288  2.1871 -0.3697
  143SAPE  H12Y15722   3.941   1.907  27.822 -2.1377 -2.5359  0.3996
  143SAPE  C31315723   4.044   1.869  27.647  0.4641  0.4362  0.2508
  143SAPE  H13X15724   4.130   1.935  27.668  2.2412 -1.5847 -0.3450
  143SAPE  H13Y15725   4.017   1.863  27.539  0.1790  2.3846  0.1844
  143SAPE  C31415726   4.080   1.725  27.682  0.0920 -0.2476  0.1461
  143SAPE  H14X15727   3.997   1.658  27.652 -0.7247  1.0702 -0.6228
  143SAPE  H14Y15728   4.092   1.712  27.792  0.1013 -1.9605 -0.0209
  143SAPE  C31515729   4.214   1.679  27.616 -0.1086  0.3107  0.7825
  143SAPE  H15X15730   4.295   1.753  27.633  1.5273 -1.5439  1.5231
  143SAPE  H15Y15731   4.203   1.676  27.505 -2.4855  0.3688  0.9730
  143SAPE  C31615732   4.266   1.539  27.674 -0.4260  0.1780  0.3233
  143SAPE  H16X15733   4.179   1.470  27.678  0.0788 -0.4157  1.3946
  143SAPE  H16Y15734   4.314   1.547  27.773 -0.6065  1.3962  0.3325
  143SAPE  C31715735   4.368   1.474  27.579  0.6284  0.0553  0.0433
  143SAPE  H17X15736   4.331   1.457  27.476  0.9831 -2.6974  0.3072
  143SAPE  H17Y15737   4.380   1.374  27.625  0.6643  0.4398  0.8850
  143SAPE  C31815738   4.503   1.545  27.582 -0.3054  0.1342  0.1080
  143SAPE  H18X15739   4.567   1.519  27.495 -1.2067 -0.0539 -0.5101
  143SAPE  H18Y15740   4.560   1.527  27.676 -0.3773  0.0631  0.1383
  143SAPE  H18Z15741   4.484   1.654  27.580  2.4716  0.7458  2.0823
  144SAPE     N15742   1.510   0.567  26.004  0.7735 -0.2536 -0.0220
  144SAPE   HN115743   1.492   0.507  25.921 -0.4073  1.1094 -0.7839
  144SAPE   HN215744   1.607   0.603  26.008 -0.0594  2.0855  0.6239
  144SAPE   HN315745   1.494   0.504  26.085  0.0561  1.3057  1.0895
  144SAPE   C1215746   1.446   0.700  26.008  0.0087 -0.7292  0.0117
  144SAPE  H12A15747   1.485   0.770  25.931 -1.5261 -0.4522 -0.5446
  144SAPE  H12B15748   1.472   0.747  26.106  2.3040 -0.9219 -0.4309
  144SAPE   C1115749   1.297   0.706  25.996  0.4953  0.2585 -0.0982
  144SAPE  H11A15750   1.262   0.812  25.997 -1.5489 -0.2447 -3.3290
  144SAPE  H11B15751   1.259   0.661  26.091  0.7682 -0.7088 -0.4317
  144SAPE     P15752   1.110   0.595  25.851 -0.2112  0.5099 -0.0248
  144SAPE   O1315753   1.102   0.449  25.866 -0.2939 -0.2237  0.9628
  144SAPE   O1415754   1.019   0.667  25.939  0.9386  0.5458  0.2653
  144SAPE   O1215755   1.256   0.643  25.877  0.3695 -0.2624 -0.3269
  144SAPE   O1115756   1.084   0.626  25.701  0.4661 -0.3723 -0.5224
  144SAPE    C115757   1.177   0.600  25.597 -0.4973  1.2065  0.0969
  144SAPE    HA15758   1.272   0.556  25.633 -1.2180 -0.3922  0.1186
  144SAPE    HB15759   1.139   0.526  25.524  0.7140  2.3297 -1.7474
  144SAPE    C215760   1.211   0.729  25.516  0.1860  0.1276  0.4252
  144SAPE    HS15761   1.112   0.761  25.476  0.6749 -0.7342 -1.5950
  144SAPE   O2115762   1.309   0.691  25.415 -0.3478  0.0202  0.1720
  144SAPE   C2115763   1.256   0.627  25.314  0.2933  0.2383  0.4668
  144SAPE   O2215764   1.138   0.608  25.291  0.3496 -0.4371  0.4392
  144SAPE   C2215765   1.363   0.592  25.216 -0.2527  0.2546 -0.1252
  144SAPE   H2R15766   1.436   0.528  25.271 -0.6211  1.1772  1.5148
  144SAPE   H2S15767   1.322   0.551  25.121  0.0968  0.1110 -0.2166
  144SAPE    C315768   1.278   0.837  25.611 -0.0879 -0.4880 -0.5848
  144SAPE    HX15769   1.362   0.800  25.673 -0.6323  1.4373  1.4463
  144SAPE    HY15770   1.200   0.850  25.689 -1.3845 -1.9554 -1.5895
  144SAPE   O3115771   1.302   0.961  25.534 -0.8108 -0.2817 -0.1928
  144SAPE   C3115772   1.434   0.986  25.519 -0.2395 -0.9946  0.2358
  144SAPE   O3215773   1.522   0.916  25.560 -0.2386  0.9471  0.4172
  144SAPE   C3215774   1.459   1.108  25.431  0.2894  0.0187  0.7559
  144SAPE   H2X15775   1.382   1.108  25.351  0.7464  0.4380  0.3109
  144SAPE   H2Y15776   1.562   1.097  25.392  0.1138 -0.8221  0.5080
  144SAPE   C2315777   1.435   0.722  25.170 -0.4293 -0.4954  0.1915
  144SAPE   H3R15778   1.482   0.708  25.071  0.3954 -1.4092  0.6946
  144SAPE   H3S15779   1.502   0.770  25.244 -1.8587  1.4035  0.3398
  144SAPE   C2415780   1.333   0.840  25.136 -0.4145  0.4585 -0.2894
  144SAPE   H4R15781   1.276   0.856  25.230  2.0586 -0.5787  1.4765
  144SAPE   H4S15782   1.250   0.815  25.067 -0.3554  1.3731 -0.7116
  144SAPE   C2515783   1.407   0.964  25.097 -0.3816 -0.4413  0.8437
  144SAPE   H5R15784   1.514   0.965  25.123 -0.1370 -2.0178  0.0475
  144SAPE   C2615785   1.353   1.071  25.039  0.2305  0.4641  0.8783
  144SAPE   H6R15786   1.417   1.160  25.034  1.5245 -0.4418  0.7604
  144SAPE   C2715787   1.208   1.105  25.003 -0.3037  0.4103  0.8485
  144SAPE   H7R15788   1.151   1.154  25.085  0.3018  1.3796  0.7098
  144SAPE   H7S15789   1.157   1.009  24.984  0.9459 -0.3053  1.0232
  144SAPE   C2815790   1.206   1.188  24.873 -0.3424  0.3122 -0.4452
  144SAPE   H8R15791   1.286   1.176  24.799  0.7489 -0.8172  0.8604
  144SAPE   C2915792   1.107   1.271  24.848 -0.9715 -0.2513 -0.0419
  144SAPE   H9R15793   1.114   1.326  24.753  0.1649 -0.6341 -0.1930
  144SAPE  C21015794   0.984   1.297  24.928  0.5226 -0.0556 -0.1900
  144SAPE  H10R15795   0.923   1.384  24.895 -0.4456 -0.4915  0.4030
  144SAPE  H10S15796   1.015   1.321  25.032 -0.8174 -0.2373  0.2710
  144SAPE  C21115797   0.894   1.181  24.915 -0.3589 -0.6384 -0.2006
  144SAPE  H11R15798   0.931   1.107  24.844  1.4363 -1.1701  1.2048
  144SAPE  C21215799   0.769   1.177  24.967  0.2054  0.0107 -0.1768
  144SAPE  H12R15800   0.726   1.078  24.949  0.2677 -0.4979  2.0753
  144SAPE  C21315801   0.695   1.276  25.054  0.0854  0.1330 -0.2035
  144SAPE  H13R15802   0.718   1.372  25.003  0.8227  0.0121 -0.1042
  144SAPE  H13S15803   0.743   1.277  25.154 -0.0191  1.1405 -0.1551
  144SAPE  C21415804   0.545   1.259  25.051 -0.3115  0.1253 -0.1177
  144SAPE  H14R15805   0.507   1.197  25.134  0.0584  1.6799  1.2579
  144SAPE  C21515806   0.456   1.327  24.976 -0.6608 -0.3789  0.8343
  144SAPE  H15R15807   0.350   1.300  24.980 -0.8879  0.5449  1.3561
  144SAPE  C21615808   0.494   1.414  24.857  0.2306  0.4300 -0.5719
  144SAPE  H16R15809   0.553   1.360  24.780 -0.7657  1.1998 -1.9111
  144SAPE  H16S15810   0.569   1.490  24.889  0.0354  1.6551 -2.8013
  144SAPE  C21715811   0.367   1.476  24.800 -0.6694  0.2628  0.7510
  144SAPE  H17R15812   0.335   1.549  24.878  0.1602  0.1174  1.2388
  144SAPE  H17S15813   0.295   1.394  24.784  1.2255 -1.4121  0.3843
  144SAPE  C21815814   0.398   1.532  24.661  1.2222  0.9556 -0.2461
  144SAPE  H18R15815   0.451   1.449  24.609  0.9141  1.0540 -0.7173
  144SAPE  H18S15816   0.458   1.625  24.655  0.6872  1.2521 -1.0814
  144SAPE  C21915817   0.261   1.555  24.593 -0.9283 -0.0665 -0.4372
  144SAPE  H19R15818   0.212   1.458  24.569 -0.9167 -0.1304 -0.2021
  144SAPE  H19S15819   0.282   1.597  24.493  0.5420 -1.1527 -0.6121
  144SAPE  C22015820   0.161   1.640  24.669 -0.1280 -0.5884 -0.6233
  144SAPE  H20R15821   0.055   1.633  24.637  0.3692 -1.0866 -2.2385
  144SAPE  H20S15822   0.196   1.746  24.667  0.3500 -0.6659 -4.3220
  144SAPE  H20T15823   0.158   1.606  24.775  0.4078 -1.7973 -0.9740
  144SAPE   C3315824   1.443   1.229  25.519  0.1824 -0.3416  0.7449
  144SAPE   H3X15825   1.519   1.237  25.599  1.3077  0.2531 -0.3621
  144SAPE   H3Y15826   1.339   1.230  25.561  0.7778  2.4186  2.4420
  144SAPE   C3415827   1.460   1.354  25.437  0.0746 -0.5265 -0.3553
  144SAPE   H4X15828   1.368   1.356  25.375  0.7200  0.1859 -1.3240
  144SAPE   H4Y15829   1.555   1.354  25.379 -0.8377 -2.9880 -1.9971
  144SAPE   C3515830   1.450   1.479  25.523 -0.3793  0.0594 -0.5942
  144SAPE   H5X15831   1.526   1.470  25.603  0.1451  4.4912 -0.3774
  144SAPE   H5Y15832   1.351   1.495  25.571  0.2738  3.2929 -0.1162
  144SAPE   C3615833   1.477   1.601  25.428 -0.6634  0.5006 -0.0120
  144SAPE   H6X15834   1.395   1.605  25.354  0.6090 -1.3310 -1.6217
  144SAPE   H6Y15835   1.575   1.581  25.380 -0.5618  0.7545  0.0868
  144SAPE   C3715836   1.478   1.729  25.513 -0.3646  0.4768  0.9082
  144SAPE   H7X15837   1.537   1.810  25.465 -0.7888  0.2054 -0.0948
  144SAPE   H7Y15838   1.535   1.697  25.603 -0.4494 -1.0528  0.4509
  144SAPE   C3815839   1.347   1.797  25.538  1.0131  0.2992 -0.3089
  144SAPE   H8X15840   1.261   1.727  25.546  0.3221  1.1249 -0.4091
  144SAPE   H8Y15841   1.322   1.876  25.465  0.0257  1.1745  0.9198
  144SAPE   C3915842   1.354   1.876  25.679 -0.0707 -0.3167  0.3667
  144SAPE   H9X15843   1.437   1.950  25.682 -0.7972  0.5567 -0.4891
  144SAPE   H9Y15844   1.367   1.797  25.757  0.8476  1.0792  1.6914
  144SAPE  C31015845   1.230   1.957  25.698 -0.2976  0.1732 -0.0399
  144SAPE  H10X15846   1.140   1.893  25.698 -2.3968  2.9510  0.4146
  144SAPE  H10Y15847   1.224   2.030  25.615 -0.4611 -0.2109 -0.3675
  144SAPE  C31115848   1.242   2.036  25.828  0.4088  0.0027  0.3431
  144SAPE  H11X15849   1.159   2.108  25.845  2.0421  1.7836  1.1418
  144SAPE  H11Y15850   1.324   2.108  25.809  0.8611 -0.7269 -0.5740
  144SAPE  C31215851   1.287   1.957  25.954 -0.3643  0.2512 -0.4826
  144SAPE  H12X15852   1.231   1.861  25.948 -0.3573  0.1942  0.2803
  144SAPE  H12Y15853   1.249   2.025  26.033 -1.4482 -1.0662  0.1867
  144SAPE  C31315854   1.437   1.946  25.968 -0.6053  0.5236 -0.0524
  144SAPE  H13X15855   1.490   2.035  25.931 -2.7674  0.6481 -3.2002
  144SAPE  H13Y15856   1.480   1.870  25.899 -1.5840  0.2736 -0.4130
  144SAPE  C31415857   1.471   1.931  26.117 -0.5804  0.0989  0.2522
  144SAPE  H14X15858   1.436   2.009  26.187 -0.3511  0.4757 -0.0434
  144SAPE  H14Y15859   1.582   1.938  26.124 -0.4435  0.6009 -1.8343
  144SAPE  C31515860   1.444   1.793  26.166  0.4475  0.3722  0.0855
  144SAPE  H15X15861   1.503   1.726  26.100 -1.7589 -3.8449  1.9620
  144SAPE  H15Y15862   1.336   1.769  26.162  0.3100  1.1501 -1.6202
  144SAPE  C31615863   1.494   1.773  26.307  0.7166  0.4732 -0.0787
  144SAPE  H16X15864   1.604   1.786  26.312  0.7270  0.2508  0.2668
  144SAPE  H16Y15865   1.483   1.664  26.327  1.8039  0.4557  0.5229
  144SAPE  C31715866   1.407   1.844  26.408  0.0569 -0.0448  0.4296
  144SAPE  H17X15867   1.404   1.779  26.498  0.7485  0.8995  1.1613
  144SAPE  H17Y15868   1.305   1.861  26.369  0.5739 -1.0411 -1.4934
  144SAPE  C31815869   1.477   1.978  26.459 -0.6466  0.2356  0.4560
  144SAPE  H18X15870   1.585   1.954  26.465 -0.1209  2.4457  0.4103
  144SAPE  H18Y15871   1.437   2.005  26.559 -1.3120 -2.6177  1.0456
  144SAPE  H18Z15872   1.456   2.061  26.388 -0.7782 -0.9135 -0.9001
  145SAPE     N15873   3.628   3.810  28.725 -0.6601  1.0692  0.5852
  145SAPE   HN115874   3.569   3.731  28.693  1.3298 -0.2106 -0.1236
  145SAPE   HN215875   3.588   3.896  28.683 -0.9759  0.2883 -0.7598
  145SAPE   HN315876   3.723   3.798  28.685  0.2873  2.9929  2.0535
  145SAPE   C1215877   3.642   3.833  28.875  0.2167  0.0339 -0.1224
  145SAPE  H12A15878   3.540   3.839  28.920  2.1683  1.0450  4.8305
  145SAPE  H12B15879   3.697   3.928  28.892  1.3362 -0.6249  0.0668
  145SAPE   C1115880   3.715   3.713  28.942  0.4241  0.3938 -0.1438
  145SAPE  H11A15881   3.658   3.618  28.931  0.6928  0.0911  1.0176
  145SAPE  H11B15882   3.721   3.730  29.052  0.1476 -0.2927 -0.0204
  145SAPE     P15883   3.897   3.572  28.803 -0.1295  0.1580  0.3029
  145SAPE   O1315884   3.838   3.574  28.666 -0.6560  0.9082  0.9093
  145SAPE   O1415885   4.042   3.590  28.810  0.0203  0.2387 -0.1254
  145SAPE   O1215886   3.846   3.698  28.889  0.2638  0.4313  0.1663
  145SAPE   O1115887   3.847   3.449  28.883 -0.5781  0.5820 -0.2770
  145SAPE    C115888   3.883   3.433  29.019  0.0791  0.8367  0.0192
  145SAPE    HA15889   3.854   3.520  29.082 -1.5899 -0.7875  1.6402
  145SAPE    HB15890   3.826   3.350  29.067 -0.0784  0.5216 -0.6904
  145SAPE    C215891   4.035   3.406  29.051 -0.4835 -0.2115 -0.2270
  145SAPE    HS15892   4.103   3.480  29.002  0.0115 -0.6494 -0.2050
  145SAPE   O2115893   4.069   3.269  29.024  0.4429  0.1420 -0.1559
  145SAPE   C2115894   4.145   3.246  28.922  0.6799  0.5589  0.4394
  145SAPE   O2215895   4.204   3.328  28.853  0.0098  0.2568 -0.4970
  145SAPE   C2215896   4.135   3.094  28.882 -0.0157  0.2564 -0.6481
  145SAPE   H2R15897   4.226   3.088  28.819  1.1434 -1.3619  1.0791
  145SAPE   H2S15898   4.163   3.044  28.977 -0.4515 -2.4235 -1.8511
  145SAPE    C315899   4.058   3.430  29.204 -0.3664 -0.4670 -0.1455
  145SAPE    HX15900   3.984   3.363  29.253 -1.8225  0.0641 -1.5172
  145SAPE    HY15901   4.023   3.530  29.237  2.0889 -0.1825  1.8630
  145SAPE   O3115902   4.194   3.395  29.256  0.2414 -0.1138 -0.1346
  145SAPE   C3115903   4.283   3.484  29.217  0.5923 -0.1686 -0.3539
  145SAPE   O3215904   4.261   3.591  29.160 -0.4124  0.2387  0.3723
  145SAPE   C3215905   4.420   3.418  29.244  0.2330  0.0458  1.0120
  145SAPE   H2X15906   4.437   3.406  29.353 -2.1816 -0.4139  1.3870
  145SAPE   H2Y15907   4.489   3.497  29.206 -1.1949  0.2049 -1.4316
  145SAPE   C2315908   4.007   3.057  28.818 -0.0585  1.1134 -0.2113
  145SAPE   H3R15909   3.988   3.111  28.722 -0.3011  0.1313 -0.7304
  145SAPE   H3S15910   3.919   3.087  28.879 -0.1769 -0.7670  0.6092
  145SAPE   C2415911   4.001   2.900  28.801  0.1417  0.1875  0.3532
  145SAPE   H4R15912   3.896   2.869  28.780  0.7203 -1.2503 -0.5217
  145SAPE   H4S15913   4.025   2.856  28.900  0.1116  0.1960  0.3658
  145SAPE   C2515914   4.083   2.860  28.681  0.2458 -0.5183 -0.1767
  145SAPE   H5R15915   4.045   2.904  28.588 -0.9324  0.0421  0.5387
  145SAPE   C2615916   4.187   2.771  28.688  0.3751  0.2861 -0.2192
  145SAPE   H6R15917   4.249   2.744  28.601  0.4961  0.3757 -0.1618
  145SAPE   C2715918   4.240   2.697  28.810  0.2210 -0.1942 -0.0779
  145SAPE   H7R15919   4.188   2.599  28.821  1.5207 -0.8542  0.3251
  145SAPE   H7S15920   4.229   2.740  28.912  0.7813 -0.7757  0.2345
  145SAPE   C2815921   4.383   2.644  28.782  0.5968  0.0195 -0.1444
  145SAPE   H8R15922   4.463   2.696  28.837 -0.3117 -0.2834  1.5398
  145SAPE   C2915923   4.424   2.536  28.725  0.3546 -0.2402 -0.0777
  145SAPE   H9R15924   4.529   2.505  28.712  0.6927  1.1099 -0.7453
  145SAPE  C21015925   4.322   2.440  28.650 -0.1484 -0.8524 -0.3183
  145SAPE  H10R15926   4.223   2.491  28.644  0.5268  0.4984 -0.3731
  145SAPE  H10S15927   4.308   2.362  28.728  0.6609  0.9444  1.7313
  145SAPE  C21115928   4.363   2.378  28.521  0.8477  0.4873 -0.1739
  145SAPE  H11R15929   4.325   2.426  28.429 -3.7246 -1.5460  0.3671
  145SAPE  C21215930   4.439   2.272  28.509 -0.3380  0.7208 -0.5055
  145SAPE  H12R15931   4.458   2.247  28.404 -0.9116  0.7543 -0.6227
  145SAPE  C21315932   4.491   2.186  28.620  0.5253 -0.1977 -0.0172
  145SAPE  H13R15933   4.416   2.183  28.702  0.6760  0.6121  0.1584
  145SAPE  H13S15934   4.581   2.224  28.675  0.2182 -0.1873  0.4899
  145SAPE  C21415935   4.507   2.045  28.578 -0.4418 -0.5589  0.7951
  145SAPE  H14R15936   4.418   1.982  28.587 -2.5920  2.0586 -0.7648
  145SAPE  C21515937   4.623   2.002  28.521 -0.3053 -0.0332 -0.1164
  145SAPE  H15R15938   4.633   1.898  28.486  0.7537  0.6793 -2.0614
  145SAPE  C21615939   4.749   2.091  28.500  0.1873 -0.3344 -0.3432
  145SAPE  H16R15940   4.809   2.093  28.594 -1.2914 -0.3719  0.6308
  145SAPE  H16S15941   4.725   2.199  28.490 -0.3072 -0.2135  1.7370
  145SAPE  C21715942   4.836   2.037  28.380 -0.3784 -0.4717  0.5955
  145SAPE  H17R15943   4.789   2.037  28.279 -0.4471  0.3716  0.6220
  145SAPE  H17S15944   4.854   1.927  28.390 -2.6814 -1.1218 -1.5446
  145SAPE  C21815945   4.966   2.111  28.383  0.4416  0.0420  0.3424
  145SAPE  H18R15946   5.024   2.070  28.468  3.1186 -0.0947 -1.4181
  145SAPE  H18S15947   4.944   2.219  28.395 -2.0986 -0.1084 -1.8439
  145SAPE  C21915948   5.038   2.074  28.261  0.4452 -0.7900 -0.0857
  145SAPE  H19R15949   5.013   2.149  28.182 -3.5862 -0.0791  1.5948
  145SAPE  H19S15950   5.009   1.974  28.223  0.1257 -0.8599  0.3403
  145SAPE  C22015951   5.189   2.081  28.283  0.8743  0.0979 -0.2274
  145SAPE  H20R15952   5.218   2.187  28.302 -0.3578  0.5807 -0.9551
  145SAPE  H20S15953   5.248   2.021  28.211 -0.6130 -1.6635 -0.0413
  145SAPE  H20T15954   5.215   2.030  28.379  1.9627  0.5304 -0.2771
  145SAPE   C3315955   4.422   3.285  29.166 -0.5925 -0.2111 -1.2524
  145SAPE   H3X15956   4.332   3.248  29.112 -0.9034 -2.0342  0.4041
  145SAPE   H3Y15957   4.449   3.209  29.243 -1.0307  0.6296 -0.2424
  145SAPE   C3415958   4.539   3.307  29.067  0.8094 -0.8491  0.2684
  145SAPE   H4X15959   4.626   3.364  29.106  1.7792 -2.3468  0.3925
  145SAPE   H4Y15960   4.499   3.371  28.986  0.5244 -1.1423  0.1728
  145SAPE   C3515961   4.575   3.176  28.998 -0.1496  0.4866  0.3150
  145SAPE   H5X15962   4.604   3.197  28.892 -0.5055 -1.4378 -0.1890
  145SAPE   H5Y15963   4.497   3.097  28.995  0.4816 -0.1972  1.4803
  145SAPE   C3615964   4.702   3.125  29.074  0.1232 -0.0690 -0.8541
  145SAPE   H6X15965   4.667   3.113  29.179 -0.6956 -0.2657 -1.1394
  145SAPE   H6Y15966   4.783   3.200  29.067  2.4722 -2.4974 -1.6660
  145SAPE   C3715967   4.766   2.987  29.034 -0.3671  0.0699  0.2480
  145SAPE   H7X15968   4.797   2.989  28.927 -1.1326  1.1237  0.0314
  145SAPE   H7Y15969   4.698   2.900  29.049  1.3954 -1.5063 -0.5388
  145SAPE   C3815970   4.898   2.959  29.118 -1.2059  0.8804  0.7361
  145SAPE   H8X15971   4.867   2.958  29.224 -0.5585  0.9650  0.9271
  145SAPE   H8Y15972   4.962   3.046  29.093  0.4080 -0.7528 -1.2089
  145SAPE   C3915973   4.962   2.827  29.077 -0.6976  0.0901 -0.1191
  145SAPE   H9X15974   5.049   2.835  29.008  0.8063 -2.3062  1.3673
  145SAPE   H9Y15975   4.888   2.749  29.048  0.8220 -0.8285 -1.6403
  145SAPE  C31015976   5.027   2.764  29.203 -0.3667 -0.2083 -0.3737
  145SAPE  H10X15977   4.947   2.741  29.276  1.0552 -1.4968  0.8480
  145SAPE  H10Y15978   5.092   2.841  29.250  0.1523 -0.6941 -0.2918
  145SAPE  C31115979   5.099   2.637  29.179 -0.8085  0.2258  0.9646
  145SAPE  H11X15980   5.178   2.664  29.106 -1.3406  0.0666  0.3149
  145SAPE  H11Y15981   5.034   2.557  29.136 -1.0251 -0.2241  2.0964
  145SAPE  C31215982   5.155   2.584  29.312  0.3892  0.6454 -0.1351
  145SAPE  H12X15983   5.080   2.582  29.394  0.5527 -0.2603  0.0007
  145SAPE  H12Y15984   5.242   2.641  29.350  0.2354  1.4417 -0.9604
  145SAPE  C31315985   5.205   2.439  29.306  0.1665  0.4881 -0.3312
  145SAPE  H13X15986   5.303   2.434  29.254  0.1327 -1.6941 -0.2759
  145SAPE  H13Y15987   5.135   2.374  29.250 -0.6152  0.0202  1.1592
  145SAPE  C31415988   5.217   2.392  29.454 -0.0631  0.4342  0.1776
  145SAPE  H14X15989   5.121   2.397  29.510  0.5173  2.0696  1.0783
  145SAPE  H14Y15990   5.274   2.467  29.513  0.4237  1.3653 -1.4368
  145SAPE  C31515991   5.275   2.248  29.470 -0.3541  0.0587 -0.1431
  145SAPE  H15X15992   5.373   2.237  29.419  1.3509  1.1735  2.6606
  145SAPE  H15Y15993   5.195   2.189  29.420 -2.6242  1.6374  1.4204
  145SAPE  C31615994   5.296   2.198  29.614  0.0389  0.1002 -0.0490
  145SAPE  H16X15995   5.200   2.180  29.666 -0.1205  1.4906  0.1737
  145SAPE  H16Y15996   5.339   2.277  29.679  0.4118 -0.8749  0.9198
  145SAPE  C31715997   5.373   2.065  29.602 -0.2529  0.4501  0.5405
  145SAPE  H17X15998   5.462   2.072  29.536  0.6975  0.4114  1.7769
  145SAPE  H17Y15999   5.300   1.994  29.557 -1.3654  1.8577  0.0426
  145SAPE  C31816000   5.426   2.023  29.741 -0.3114 -0.5168  0.2464
  145SAPE  H18X16001   5.510   1.951  29.732  0.5513  0.5343 -0.3407
  145SAPE  H18Y16002   5.344   1.987  29.808 -1.0128  0.0351 -0.2973
  145SAPE  H18Z16003   5.462   2.117  29.787  1.1318 -0.3768 -1.1193
  146SAPE     N16004   0.691   0.001  27.839  0.0736 -0.1121  0.2346
  146SAPE   HN116005   0.685  -0.084  27.780 -0.3269 -0.4570  0.7653
  146SAPE   HN216006   0.658  -0.032  27.932 -0.1050  1.9514  0.9559
  146SAPE   HN316007   0.629   0.078  27.807 -0.3133 -0.4646  0.1211
  146SAPE   C1216008   0.829   0.049  27.872 -0.1314 -0.0405 -0.3935
  146SAPE  H12A16009   0.893  -0.037  27.902 -0.6025 -0.4966 -0.6826
  146SAPE  H12B16010   0.818   0.119  27.958  0.1831 -1.1675  0.5994
  146SAPE   C1116011   0.879   0.102  27.739 -0.2640  0.1309 -0.0682
  146SAPE  H11A16012   0.983   0.137  27.754 -0.9928  3.2979 -1.5063
  146SAPE  H11B16013   0.831   0.196  27.704  2.4719  1.7860  0.3216
  146SAPE     P16014   0.844   0.023  27.492  0.2526  0.5387  0.2775
  146SAPE   O1316015   0.901  -0.084  27.410 -0.2574 -0.7449 -0.3921
  146SAPE   O1416016   0.697   0.027  27.494  0.4775 -0.3359 -0.5390
  146SAPE   O1216017   0.889  -0.006  27.645  0.8485 -0.0950 -0.3929
  146SAPE   O1116018   0.903   0.170  27.459 -0.3341  0.2873 -0.5666
  146SAPE    C116019   1.041   0.175  27.463 -0.0102 -0.6980 -0.1756
  146SAPE    HA16020   1.071   0.154  27.567 -1.4716 -0.5400  0.3010
  146SAPE    HB16021   1.085   0.103  27.391 -1.5108 -0.3394 -1.5361
  146SAPE    C216022   1.090   0.316  27.418  0.2065 -1.0996  0.4740
  146SAPE    HS16023   1.198   0.336  27.432  0.4195  0.0031 -2.1191
  146SAPE   O2116024   1.014   0.430  27.482 -0.4921 -0.0278  0.1534
  146SAPE   C2116025   1.029   0.426  27.610 -0.1629  0.1138  0.5730
  146SAPE   O2216026   1.114   0.361  27.672 -0.5622 -0.4219  0.5950
  146SAPE   C2216027   0.921   0.519  27.666 -0.4509  0.4021 -0.4495
  146SAPE   H2R16028   0.914   0.600  27.590 -0.9456  1.7495  0.9558
  146SAPE   H2S16029   0.832   0.453  27.668 -0.0473 -0.1936  2.2397
  146SAPE    C316030   1.056   0.344  27.268  0.2872 -0.1819  0.4642
  146SAPE    HX16031   0.949   0.335  27.237 -0.1519  0.1703  1.8247
  146SAPE    HY16032   1.103   0.259  27.213 -0.1769  0.7135 -1.4259
  146SAPE   O3116033   1.117   0.458  27.204  0.0793  0.2675  0.1810
  146SAPE   C3116034   1.035   0.567  27.204  0.7879  0.1455  0.4079
  146SAPE   O3216035   0.923   0.573  27.246 -0.3645 -0.5016  0.2170
  146SAPE   C3216036   1.112   0.688  27.154  0.1345  1.0677  0.4350
  146SAPE   H2X16037   1.100   0.689  27.043 -1.2635 -0.5337  0.5232
  146SAPE   H2Y16038   1.220   0.677  27.177  0.0859  1.1618  0.7071
  146SAPE   C2316039   0.951   0.584  27.808 -0.4177  0.4217  0.1439
  146SAPE   H3R16040   0.984   0.499  27.870  0.9565 -1.5256 -2.9911
  146SAPE   H3S16041   0.859   0.612  27.864 -0.2590  1.1029  0.0781
  146SAPE   C2416042   1.061   0.687  27.814  0.5028  0.5631 -0.6607
  146SAPE   H4R16043   1.141   0.648  27.747 -1.3640 -3.6685 -0.7194
  146SAPE   H4S16044   1.108   0.685  27.915 -0.9572 -0.6581  0.0290
  146SAPE   C2516045   1.019   0.830  27.786  0.3326  0.0209  1.4578
  146SAPE   H5R16046   1.037   0.861  27.682 -1.3203 -1.2333  0.7459
  146SAPE   C2616047   0.971   0.916  27.881  0.0698  0.3816  0.1325
  146SAPE   H6R16048   0.943   1.017  27.848  1.0633  0.0307 -1.8893
  146SAPE   C2716049   0.926   0.878  28.024 -0.0574 -0.4987 -0.0489
  146SAPE   H7R16050   1.008   0.827  28.078 -0.9291 -1.5927  0.2716
  146SAPE   H7S16051   0.843   0.804  28.029 -0.7620  0.3631  1.7652
  146SAPE   C2816052   0.893   1.000  28.111  0.2087  0.4692  0.0476
  146SAPE   H8R16053   0.962   1.027  28.193  0.5144 -2.7995  1.0058
  146SAPE   C2916054   0.777   1.079  28.105 -0.0323  0.2037 -0.0540
  146SAPE   H9R16055   0.777   1.172  28.163  0.9666  0.2175 -0.0573
  146SAPE  C21016056   0.656   1.064  28.020 -0.9726  0.6535 -0.5143
  146SAPE  H10R16057   0.653   0.959  27.983 -1.1041 -1.2439  4.1644
  146SAPE  H10S16058   0.667   1.124  27.927  0.5458  0.7246 -0.3024
  146SAPE  C21116059   0.525   1.095  28.088 -0.6563 -0.5969 -0.1713
  146SAPE  H11R16060   0.519   1.079  28.197 -1.5503 -0.8808 -0.2558
  146SAPE  C21216061   0.411   1.132  28.024 -0.6299  0.3699  1.0526
  146SAPE  H12R16062   0.325   1.168  28.082 -0.4515  3.0736 -0.2053
  146SAPE  C21316063   0.396   1.148  27.872  0.3638 -0.6322  0.0985
  146SAPE  H13R16064   0.387   1.052  27.817 -0.4579 -1.0930  0.9969
  146SAPE  H13S16065   0.483   1.208  27.839 -0.6248  0.9000  0.1268
  146SAPE  C21416066   0.267   1.229  27.861 -0.2273  0.5651 -0.0406
  146SAPE  H14R16067   0.270   1.330  27.905  0.8866  0.5953 -0.1621
  146SAPE  C21516068   0.154   1.184  27.794  0.1096  0.2832  0.0736
  146SAPE  H15R16069   0.068   1.252  27.788  1.1247  1.4924 -1.5471
  146SAPE  C21616070   0.127   1.043  27.749  0.4820  1.4022  0.1497
  146SAPE  H16R16071   0.019   1.021  27.761  0.9332 -0.2051  1.7264
  146SAPE  H16S16072   0.182   0.970  27.812 -2.3862 -1.3186 -0.2703
  146SAPE  C21716073   0.157   1.012  27.598  0.3164  0.0421  0.4279
  146SAPE  H17R16074   0.267   1.024  27.584  0.5046  0.4677  2.0010
  146SAPE  H17S16075   0.113   1.082  27.525  1.2195  0.3854  0.1988
  146SAPE  C21816076   0.122   0.863  27.564  0.1755  0.0004  0.5643
  146SAPE  H18R16077   0.015   0.840  27.548 -0.0604 -0.8448  2.9137
  146SAPE  H18S16078   0.156   0.792  27.642 -2.4779  0.0073  1.8465
  146SAPE  C21916079   0.199   0.835  27.432 -0.7923  0.2759  0.7544
  146SAPE  H19R16080   0.308   0.820  27.439 -0.8093  0.4033  1.2861
  146SAPE  H19S16081   0.193   0.920  27.360 -3.8911 -0.0838  0.4314
  146SAPE  C22016082   0.144   0.723  27.347  1.7355  0.1653  0.4342
  146SAPE  H20R16083   0.109   0.644  27.417  1.4195  1.0761  1.3225
  146SAPE  H20S16084   0.221   0.684  27.277  1.1804  0.6970 -0.5024
  146SAPE  H20T16085   0.051   0.757  27.296  1.7602  0.4964  0.6124
  146SAPE   C3316086   1.033   0.818  27.197  0.3658 -0.6764  0.2583
  146SAPE   H3X16087   1.065   0.833  27.302 -1.9703 -0.0416  0.9448
  146SAPE   H3Y16088   0.924   0.805  27.178  0.4595 -0.7270 -0.2677
  146SAPE   C3416089   1.078   0.940  27.109  0.6843 -0.2653 -0.2070
  146SAPE   H4X16090   1.050   0.926  27.002  1.9780 -0.6266 -0.5155
  146SAPE   H4Y16091   1.188   0.957  27.119  1.1091 -2.0999 -1.2695
  146SAPE   C3516092   1.010   1.076  27.151 -0.4895  0.5367 -0.5407
  146SAPE   H5X16093   1.041   1.091  27.257 -0.6530 -1.1593 -0.2292
  146SAPE   H5Y16094   0.900   1.062  27.152 -0.2737 -1.4893  0.9581
  146SAPE   C3616095   1.047   1.197  27.066 -0.0155  0.3035  0.0884
  146SAPE   H6X16096   0.989   1.281  27.108 -3.0236 -0.5500 -2.0272
  146SAPE   H6Y16097   1.016   1.169  26.964  2.2734  1.7361 -1.0817
  146SAPE   C3716098   1.198   1.246  27.067 -0.2706 -0.0985  0.6994
  146SAPE   H7X16099   1.257   1.161  27.027 -0.8286 -0.0008 -0.3610
  146SAPE   H7Y16100   1.224   1.269  27.173  0.5802  0.3062  0.4118
  146SAPE   C3816101   1.223   1.380  26.982 -0.5434  0.1151 -0.7389
  146SAPE   H8X16102   1.297   1.451  27.023 -0.5722  1.1046 -2.3243
  146SAPE   H8Y16103   1.128   1.436  26.996 -0.8871 -1.0808  2.6835
  146SAPE   C3916104   1.235   1.349  26.833  0.6146 -0.2966  0.4881
  146SAPE   H9X16105   1.202   1.445  26.788  3.7965 -0.7064 -3.2636
  146SAPE   H9Y16106   1.149   1.284  26.806 -0.1769  0.6013  0.7760
  146SAPE  C31016107   1.366   1.298  26.777  0.4244 -0.1810  0.3910
  146SAPE  H10X16108   1.381   1.188  26.785  0.6818 -0.0381  2.4187
  146SAPE  H10Y16109   1.442   1.343  26.843  0.8771 -0.3833  0.0163
  146SAPE  C31116110   1.400   1.348  26.639  0.7483  0.6490 -0.0776
  146SAPE  H11X16111   1.373   1.455  26.647 -0.5024  0.3312  0.1421
  146SAPE  H11Y16112   1.353   1.301  26.550 -1.0462  0.6224  0.8578
  146SAPE  C31216113   1.552   1.332  26.621 -0.2944 -0.4842 -0.6257
  146SAPE  H12X16114   1.581   1.226  26.638 -2.3284 -0.8888  0.6995
  146SAPE  H12Y16115   1.610   1.391  26.695  0.7939  2.0343 -3.3019
  146SAPE  C31316116   1.597   1.375  26.482 -0.1913 -0.6179  1.1307
  146SAPE  H13X16117   1.568   1.480  26.459  1.7802  0.7699  4.3045
  146SAPE  H13Y16118   1.545   1.314  26.406  0.5404 -0.8869  0.8409
  146SAPE  C31416119   1.742   1.354  26.441 -0.0109  0.1349 -0.4487
  146SAPE  H14X16120   1.810   1.430  26.485 -0.4320  1.1534 -1.4897
  146SAPE  H14Y16121   1.744   1.363  26.330 -0.2747 -2.5173 -0.7400
  146SAPE  C31516122   1.784   1.212  26.475  0.0116 -0.1286  0.5525
  146SAPE  H15X16123   1.734   1.134  26.413 -2.4717  1.6112  0.2014
  146SAPE  H15Y16124   1.787   1.195  26.584  0.5369  0.4511  0.6355
  146SAPE  C31616125   1.929   1.187  26.433 -0.2526  0.2363  0.5854
  146SAPE  H16X16126   2.010   1.236  26.490 -0.0608  0.3141  0.2505
  146SAPE  H16Y16127   1.939   1.219  26.327 -0.5825  2.6225  1.2213
  146SAPE  C31716128   1.971   1.043  26.444  0.5412  0.2611 -0.4013
  146SAPE  H17X16129   1.905   0.991  26.371  0.0064 -1.2815  1.1151
  146SAPE  H17Y16130   1.937   0.997  26.540  1.0419 -0.4314 -0.5465
  146SAPE  C31816131   2.117   1.027  26.418  0.6517  0.1990  0.4801
  146SAPE  H18X16132   2.136   1.090  26.328 -1.4750  2.7755  1.7256
  146SAPE  H18Y16133   2.139   0.922  26.388  0.3688 -0.0388  1.1029
  146SAPE  H18Z16134   2.169   1.054  26.513 -1.2871 -2.0826  2.3094
  147SAPE     N16135   0.464   1.577  19.613  0.3875  0.5917 -0.0898
  147SAPE   HN116136   0.523   1.547  19.532  1.5613  1.8178  0.2668
  147SAPE   HN216137   0.417   1.667  19.589  1.5897  1.4364  0.6150
  147SAPE   HN316138   0.523   1.599  19.696 -0.0980  0.1921  0.3660
  147SAPE   C1216139   0.371   1.469  19.661 -0.7193 -1.3335  0.1732
  147SAPE  H12A16140   0.433   1.376  19.656 -0.8757 -1.3647 -1.7508
  147SAPE  H12B16141   0.296   1.456  19.580 -0.7852  3.1597 -0.7437
  147SAPE   C1116142   0.325   1.496  19.805  1.2952 -0.3312 -0.8190
  147SAPE  H11A16143   0.409   1.508  19.877  0.7550 -3.1850  0.4466
  147SAPE  H11B16144   0.267   1.405  19.834  2.8117 -1.0186  0.1986
  147SAPE     P16145   0.107   1.626  19.736  0.0117  0.1732 -0.5953
  147SAPE   O1316146   0.004   1.651  19.837  0.0876 -0.5380 -0.3915
  147SAPE   O1416147   0.124   1.726  19.631 -0.2984  0.2845  0.0457
  147SAPE   O1216148   0.251   1.615  19.805 -0.2547  0.0789 -0.2759
  147SAPE   O1116149   0.088   1.481  19.672 -0.5685  0.2322  0.0459
  147SAPE    C116150  -0.017   1.395  19.709 -0.1440 -0.6370 -0.6741
  147SAPE    HA16151  -0.018   1.373  19.818 -1.5864  1.4846 -0.1867
  147SAPE    HB16152  -0.113   1.445  19.685  1.0866  1.3980 -1.6265
  147SAPE    C216153  -0.003   1.266  19.630 -0.2222 -0.4021  0.5519
  147SAPE    HS16154  -0.096   1.210  19.654 -0.6638  0.4631  0.9214
  147SAPE   O2116155   0.118   1.198  19.670 -0.0732  0.2430 -0.2495
  147SAPE   C2116156   0.100   1.103  19.765 -0.0527  0.6219  0.1593
  147SAPE   O2216157  -0.011   1.076  19.806 -0.0435  0.4103  0.0943
  147SAPE   C2216158   0.226   1.051  19.815 -0.0794 -0.3949  0.2929
  147SAPE   H2R16159   0.243   0.961  19.754 -3.8499  1.5268 -4.1684
  147SAPE   H2S16160   0.307   1.125  19.798  1.1114 -1.4524  1.1820
  147SAPE    C316161  -0.007   1.295  19.478 -1.0959 -0.2366  0.1289
  147SAPE    HX16162   0.086   1.348  19.451 -0.1973 -0.3252  2.7477
  147SAPE    HY16163  -0.087   1.369  19.454  0.0933  0.7545 -0.8723
  147SAPE   O3116164  -0.022   1.163  19.413  0.0113  0.0431 -0.5050
  147SAPE   C3116165  -0.042   1.179  19.287 -0.2170  0.0882  0.3348
  147SAPE   O3216166  -0.030   1.284  19.223 -1.1098  0.1956  0.3066
  147SAPE   C3216167  -0.087   1.048  19.225 -0.1022 -0.2106 -0.4214
  147SAPE   H2X16168  -0.195   1.052  19.199 -0.3347 -1.9080  0.2101
  147SAPE   H2Y16169  -0.075   0.961  19.293 -1.2456 -0.3810 -0.4106
  147SAPE   C2316170   0.233   1.013  19.962  0.1932  0.2159  0.2896
  147SAPE   H3R16171   0.148   0.955  20.004  0.5100 -0.9792 -0.6774
  147SAPE   H3S16172   0.259   1.096  20.032  1.8079  0.3148 -0.3884
  147SAPE   C2416173   0.362   0.930  19.975  0.6250 -0.1994 -0.1031
  147SAPE   H4R16174   0.442   0.998  19.941 -1.4974  2.7445  0.4099
  147SAPE   H4S16175   0.352   0.841  19.909 -3.0098  1.0102 -1.4048
  147SAPE   C2516176   0.398   0.895  20.119  0.4202 -0.5198 -0.7825
  147SAPE   H5R16177   0.454   0.964  20.184  0.3240  0.2794 -1.5214
  147SAPE   C2616178   0.347   0.789  20.177 -0.5638  0.4559 -0.1519
  147SAPE   H6R16179   0.365   0.764  20.283 -0.0097 -0.6237 -0.4886
  147SAPE   C2716180   0.247   0.692  20.123 -0.2426  0.4484 -0.5201
  147SAPE   H7R16181   0.207   0.723  20.024 -2.8212  0.2138  0.3635
  147SAPE   H7S16182   0.163   0.694  20.195  1.2237 -0.3859  1.2796
  147SAPE   C2816183   0.298   0.552  20.127 -1.0754 -0.6256 -0.3607
  147SAPE   H8R16184   0.349   0.527  20.034 -1.4285 -0.9010 -0.4839
  147SAPE   C2916185   0.287   0.465  20.227 -0.8010 -0.4848 -0.8677
  147SAPE   H9R16186   0.350   0.375  20.229  1.8682  1.2813  0.2004
  147SAPE  C21016187   0.215   0.492  20.361  0.4928  0.3439  0.2344
  147SAPE  H10R16188   0.192   0.600  20.375 -0.2532  0.1964  0.2269
  147SAPE  H10S16189   0.273   0.445  20.443  0.1098 -0.7754 -0.1166
  147SAPE  C21116190   0.080   0.414  20.358 -0.9623 -0.1908  0.7447
  147SAPE  H11R16191   0.034   0.416  20.258  1.4124  0.4666 -0.4042
  147SAPE  C21216192   0.018   0.349  20.460  0.5280 -0.3131  0.1045
  147SAPE  H12R16193  -0.078   0.297  20.450  1.6631 -2.1150 -2.3057
  147SAPE  C21316194   0.075   0.335  20.594 -0.1207  1.2977  0.5510
  147SAPE  H13R16195  -0.010   0.342  20.666 -0.0085  0.2892  0.8073
  147SAPE  H13S16196   0.153   0.403  20.635  1.5579 -0.5513  0.5532
  147SAPE  C21416197   0.139   0.201  20.617 -0.3255  0.1797 -0.0228
  147SAPE  H14R16198   0.176   0.148  20.528 -1.2198  0.0496 -0.3262
  147SAPE  C21516199   0.141   0.131  20.734 -0.6868  0.1308 -0.1586
  147SAPE  H15R16200   0.203   0.041  20.734 -1.1254 -0.1753 -0.5306
  147SAPE  C21616201   0.068   0.158  20.868  0.2717  0.3385  0.0641
  147SAPE  H16R16202  -0.018   0.226  20.849 -0.1690  0.3027  1.8290
  147SAPE  H16S16203   0.139   0.207  20.937  1.3466  0.7739 -1.3013
  147SAPE  C21716204   0.028   0.022  20.939 -0.2435 -0.1678 -0.9530
  147SAPE  H17R16205   0.109  -0.054  20.938  0.3739  0.4331  0.5981
  147SAPE  H17S16206  -0.049  -0.021  20.872  0.5543  0.9379 -2.6715
  147SAPE  C21816207  -0.011   0.050  21.081  0.6680 -0.0818 -0.0879
  147SAPE  H18R16208   0.068   0.098  21.143  0.5461  1.2494 -0.9120
  147SAPE  H18S16209  -0.026  -0.043  21.140  0.2595  1.4494  2.4026
  147SAPE  C21916210  -0.141   0.133  21.094 -0.0365 -0.1018 -0.6036
  147SAPE  H19R16211  -0.221   0.071  21.050 -0.0522 -1.6327  1.4423
  147SAPE  H19S16212  -0.134   0.233  21.045  1.2943  1.8060  3.0273
  147SAPE  C22016213  -0.161   0.146  21.242 -0.8309 -0.0533 -0.0431
  147SAPE  H20R16214  -0.098   0.225  21.286  1.1020 -0.1889 -2.3537
  147SAPE  H20S16215  -0.146   0.050  21.297  0.3252 -0.5904 -1.2437
  147SAPE  H20T16216  -0.262   0.170  21.281 -1.1627 -0.2614 -0.7442
  147SAPE   C3316217  -0.021   1.031  19.087  0.4542 -0.1586  0.0302
  147SAPE   H3X16218   0.090   1.039  19.096  0.6767 -0.1983 -2.1464
  147SAPE   H3Y16219  -0.047   1.106  19.009  2.2059 -0.4596 -0.9103
  147SAPE   C3416220  -0.056   0.887  19.033 -0.3706  0.1174  0.1185
  147SAPE   H4X16221  -0.040   0.884  18.923 -1.8230  1.4545 -0.1749
  147SAPE   H4Y16222  -0.157   0.855  19.066  0.5318 -1.9611  1.0459
  147SAPE   C3516223   0.054   0.795  19.091  0.8012 -0.4950 -0.3262
  147SAPE   H5X16224   0.104   0.842  19.178  0.8860  0.2901 -0.7872
  147SAPE   H5Y16225   0.138   0.779  19.021  1.7541 -0.2953  0.7485
  147SAPE   C3616226  -0.004   0.658  19.120 -0.2221 -0.1191  0.4991
  147SAPE   H6X16227  -0.031   0.622  19.018  2.0180  2.7883 -1.3053
  147SAPE   H6Y16228  -0.098   0.677  19.177 -0.2757  0.6158  0.1858
  147SAPE   C3716229   0.086   0.558  19.199 -0.0330 -0.5958 -0.1270
  147SAPE   H7X16230   0.144   0.621  19.271 -1.1910 -0.6482  0.8835
  147SAPE   H7Y16231   0.151   0.512  19.122  0.8304 -2.4642  1.6348
  147SAPE   C3816232   0.000   0.451  19.268  0.0100 -0.4867  0.5633
  147SAPE   H8X16233  -0.066   0.407  19.190 -0.3942  0.6186  0.2609
  147SAPE   H8Y16234  -0.060   0.504  19.345  1.3861  2.8319 -0.4434
  147SAPE   C3916235   0.094   0.347  19.320 -0.0733 -0.2875  0.4889
  147SAPE   H9X16236   0.178   0.392  19.378  0.5233 -0.9857  0.1917
  147SAPE   H9Y16237   0.148   0.296  19.237 -0.3341  0.0157  0.1242
  147SAPE  C31016238   0.014   0.244  19.408  0.0291 -0.0628 -0.3417
  147SAPE  H10X16239  -0.047   0.170  19.353  0.1367  0.7593 -1.6060
  147SAPE  H10Y16240  -0.062   0.308  19.458 -2.1828 -1.0012 -2.3240
  147SAPE  C31116241   0.113   0.181  19.503 -0.5497 -0.2568 -0.3139
  147SAPE  H11X16242   0.177   0.256  19.554 -2.0747  1.1951 -0.4584
  147SAPE  H11Y16243   0.191   0.132  19.441  1.6362  1.8996  0.5994
  147SAPE  C31216244   0.048   0.087  19.599  0.1120 -0.6585 -0.4622
  147SAPE  H12X16245  -0.042   0.142  19.635  0.4208 -1.0193  0.9387
  147SAPE  H12Y16246   0.108   0.067  19.691 -0.8070  0.5332  0.4386
  147SAPE  C31316247  -0.006  -0.041  19.540  0.0011  0.1416  0.7955
  147SAPE  H13X16248   0.068  -0.100  19.482 -1.2945 -0.0333 -0.7738
  147SAPE  H13Y16249  -0.087  -0.006  19.472 -0.4329  1.1176  1.7766
  147SAPE  C31416250  -0.048  -0.135  19.650  0.4745 -0.3663  0.2272
  147SAPE  H14X16251  -0.131  -0.083  19.703 -0.9552  0.2760 -2.4725
  147SAPE  H14Y16252   0.037  -0.142  19.721  1.6609  0.5443 -1.0338
  147SAPE  C31516253  -0.105  -0.260  19.594  0.3149 -0.1611  0.3605
  147SAPE  H15X16254  -0.017  -0.323  19.565  1.8372  2.0381 -0.0625
  147SAPE  H15Y16255  -0.162  -0.227  19.504 -2.0253 -0.3946  1.6975
  147SAPE  C31616256  -0.206  -0.329  19.690  0.4671 -0.4109 -0.3285
  147SAPE  H16X16257  -0.250  -0.420  19.644  0.4489  0.7232 -2.6604
  147SAPE  H16Y16258  -0.286  -0.254  19.710  0.6748 -0.2940  0.0808
  147SAPE  C31716259  -0.141  -0.371  19.828  0.6500 -0.3772  0.4606
  147SAPE  H17X16260  -0.210  -0.353  19.914  2.2700 -0.1655  1.7763
  147SAPE  H17Y16261  -0.052  -0.308  19.851  0.2921  0.0921  0.5750
  147SAPE  C31816262  -0.101  -0.514  19.832 -1.0273  0.1350 -0.0747
  147SAPE  H18X16263  -0.058  -0.544  19.930 -0.0506  0.1535 -0.4803
  147SAPE  H18Y16264  -0.031  -0.534  19.748 -1.1529  0.9274 -0.3708
  147SAPE  H18Z16265  -0.183  -0.587  19.816 -0.8384  0.1290 -1.1035
  148SAPE     N16266   0.826   1.740  20.256 -0.2556 -0.5532  0.5139
  148SAPE   HN116267   0.763   1.756  20.174  1.4984 -2.0542 -1.2375
  148SAPE   HN216268   0.787   1.776  20.345  1.1718  0.1257  0.8846
  148SAPE   HN316269   0.911   1.793  20.231  1.6971 -4.1830 -1.3864
  148SAPE   C1216270   0.873   1.598  20.265 -0.5949  0.2819 -0.8790
  148SAPE  H12A16271   0.922   1.601  20.365 -0.4834 -2.1201 -0.7994
  148SAPE  H12B16272   0.950   1.583  20.187 -0.1454  0.1117 -0.4099
  148SAPE   C1116273   0.767   1.493  20.252 -0.5574  0.4159 -0.4834
  148SAPE  H11A16274   0.825   1.403  20.281 -1.6550  0.5905  2.6040
  148SAPE  H11B16275   0.722   1.493  20.150  0.6500  0.2757 -1.0332
  148SAPE     P16276   0.563   1.414  20.397 -0.0099  0.2740  0.4117
  148SAPE   O1316277   0.462   1.480  20.482 -0.1472  0.4093 -0.5505
  148SAPE   O1416278   0.515   1.326  20.284  0.5401  0.3478  0.2960
  148SAPE   O1216279   0.663   1.520  20.340  0.6181 -0.3519  0.1277
  148SAPE   O1116280   0.672   1.324  20.483  0.5101  0.3473 -0.3220
  148SAPE    C116281   0.733   1.375  20.600 -0.4978  0.1337  0.0641
  148SAPE    HA16282   0.801   1.458  20.573 -2.0761  0.7532 -2.2504
  148SAPE    HB16283   0.658   1.423  20.666  0.9315  1.3437  0.8402
  148SAPE    C216284   0.810   1.265  20.671 -0.0911  1.1292  0.2238
  148SAPE    HS16285   0.858   1.323  20.752 -2.5221  2.3955  0.8675
  148SAPE   O2116286   0.899   1.195  20.578 -0.4813 -0.0839  0.1274
  148SAPE   C2116287   0.999   1.263  20.530  1.1364 -0.2872  0.5309
  148SAPE   O2216288   1.024   1.380  20.560  0.2375  0.6265 -0.4389
  148SAPE   C2216289   1.081   1.186  20.434  0.3969 -0.0401 -0.0214
  148SAPE   H2R16290   1.137   1.132  20.513 -0.3088  0.0320  0.5367
  148SAPE   H2S16291   1.012   1.121  20.377 -0.8049 -1.0338  2.4375
  148SAPE    C316292   0.707   1.165  20.724 -0.3836  0.3332 -0.3215
  148SAPE    HX16293   0.620   1.154  20.656 -1.1149  1.1556  0.4540
  148SAPE    HY16294   0.676   1.227  20.811 -0.2423  0.0290 -0.0517
  148SAPE   O3116295   0.779   1.044  20.759  0.0877 -0.3359  0.9204
  148SAPE   C3116296   0.718   0.958  20.843  0.1846  1.0340 -0.1549
  148SAPE   O3216297   0.611   0.990  20.902 -0.5310  0.4929  0.2225
  148SAPE   C3216298   0.785   0.828  20.850 -1.1703  0.0551 -0.3128
  148SAPE   H2X16299   0.892   0.838  20.878 -1.6413  1.2441  1.2669
  148SAPE   H2Y16300   0.775   0.774  20.754  1.1854 -1.2256  0.0721
  148SAPE   C2316301   1.166   1.273  20.335  0.5416  0.3566  0.1315
  148SAPE   H3R16302   1.232   1.345  20.387  1.0426  0.7965 -1.0920
  148SAPE   H3S16303   1.098   1.337  20.275  0.4072 -0.0829 -0.1868
  148SAPE   C2416304   1.235   1.185  20.227  0.4714  0.5041 -0.2864
  148SAPE   H4R16305   1.305   1.127  20.291  0.5992  1.5988  0.6155
  148SAPE   H4S16306   1.292   1.254  20.160 -0.8316  2.6133  0.6518
  148SAPE   C2516307   1.151   1.092  20.137  0.1866  0.3232 -0.2965
  148SAPE   H5R16308   1.122   1.138  20.041 -1.8304  1.5026  0.7990
  148SAPE   C2616309   1.119   0.963  20.151 -0.1355  0.1967 -0.6171
  148SAPE   H6R16310   1.060   0.911  20.074  0.7154 -1.5900 -0.1116
  148SAPE   C2716311   1.150   0.863  20.264  0.6701 -0.8613 -0.6852
  148SAPE   H7R16312   1.079   0.885  20.347  0.1655  1.5750 -1.6622
  148SAPE   H7S16313   1.247   0.886  20.313  0.7562 -1.7217 -0.4410
  148SAPE   C2816314   1.119   0.717  20.229  0.1039 -0.3464  0.7164
  148SAPE   H8R16315   1.176   0.667  20.150 -3.2484  0.8574 -2.7493
  148SAPE   C2916316   1.032   0.634  20.288 -0.0366 -0.0129  0.3445
  148SAPE   H9R16317   1.029   0.530  20.252  0.4978 -0.3135  1.1400
  148SAPE  C21016318   0.933   0.663  20.401 -0.2048 -0.4638  0.0484
  148SAPE  H10R16319   0.839   0.608  20.381 -0.0768 -0.2837 -1.1293
  148SAPE  H10S16320   0.896   0.767  20.388  0.9722  0.0912  0.9744
  148SAPE  C21116321   0.973   0.662  20.550 -0.1521  0.9397  0.0120
  148SAPE  H11R16322   0.975   0.759  20.602  1.9008  0.9868 -0.0486
  148SAPE  C21216323   1.007   0.552  20.615 -0.8069  0.1187 -0.1684
  148SAPE  H12R16324   1.044   0.566  20.717  2.2140 -0.6666 -1.0577
  148SAPE  C21316325   1.033   0.415  20.558  0.0461 -0.5322  0.2636
  148SAPE  H13R16326   1.092   0.359  20.634 -1.0086  0.0678  1.5543
  148SAPE  H13S16327   1.108   0.439  20.480  0.7825 -0.9349  0.8387
  148SAPE  C21416328   0.918   0.325  20.508 -0.0186 -0.0981 -0.4729
  148SAPE  H14R16329   0.838   0.373  20.450 -0.1719 -0.6236 -0.6996
  148SAPE  C21516330   0.904   0.195  20.536  0.0597  0.2417  0.5190
  148SAPE  H15R16331   0.816   0.145  20.493  0.7560 -1.1240  0.6216
  148SAPE  C21616332   0.980   0.096  20.622 -0.5126 -0.3668 -0.1966
  148SAPE  H16R16333   1.086   0.126  20.634 -0.1276 -1.3223 -1.0672
  148SAPE  H16S16334   0.987  -0.005  20.577  2.7357 -0.2907 -0.0740
  148SAPE  C21716335   0.924   0.073  20.765 -0.1374 -0.0422 -1.0505
  148SAPE  H17R16336   0.814   0.085  20.772  0.1878  2.9631  0.2087
  148SAPE  H17S16337   0.973   0.141  20.837 -2.0692 -0.6292  0.9170
  148SAPE  C21816338   0.967  -0.068  20.826 -0.6008  0.6176  0.6468
  148SAPE  H18R16339   0.909  -0.138  20.763  0.2060  1.6721 -1.3664
  148SAPE  H18S16340   0.927  -0.082  20.929 -0.4781 -1.9405  0.3933
  148SAPE  C21916341   1.115  -0.082  20.842 -0.3968 -0.7409  0.2669
  148SAPE  H19R16342   1.149  -0.018  20.926 -1.5706  0.2683  0.0061
  148SAPE  H19S16343   1.167  -0.047  20.750  3.0111 -0.2967  2.1872
  148SAPE  C22016344   1.167  -0.231  20.872  0.2160 -0.1312  0.5420
  148SAPE  H20R16345   1.271  -0.232  20.908 -0.6205 -1.2716  3.1277
  148SAPE  H20S16346   1.155  -0.293  20.780 -0.1129  1.5630 -0.6125
  148SAPE  H20T16347   1.102  -0.271  20.953 -0.3072  0.4350  0.4087
  148SAPE   C3316348   0.732   0.730  20.955  0.7176 -0.0421  0.6544
  148SAPE   H3X16349   0.626   0.698  20.942  0.7248  0.2799 -0.2391
  148SAPE   H3Y16350   0.735   0.788  21.050 -0.4656 -0.4500  0.9731
  148SAPE   C3416351   0.808   0.598  20.979  0.6924 -0.1768  0.1420
  148SAPE   H4X16352   0.910   0.622  21.017  1.0138 -1.6574  0.2772
  148SAPE   H4Y16353   0.818   0.545  20.882 -1.4470 -0.0137 -0.1978
  148SAPE   C3516354   0.744   0.493  21.078 -0.2311 -0.9519  0.8983
  148SAPE   H5X16355   0.639   0.475  21.046  0.1112 -0.5929 -0.5122
  148SAPE   H5Y16356   0.742   0.535  21.181  1.0031 -0.5710  0.7855
  148SAPE   C3616357   0.821   0.359  21.074  0.0103 -0.9205  0.0075
  148SAPE   H6X16358   0.925   0.396  21.083 -0.6771  1.1788  0.0027
  148SAPE   H6Y16359   0.822   0.313  20.972  0.3115 -0.9231  0.0110
  148SAPE   C3716360   0.791   0.269  21.195 -0.3251  0.2352 -0.1387
  148SAPE   H7X16361   0.693   0.219  21.181  0.7758 -1.8816 -0.5662
  148SAPE   H7Y16362   0.793   0.325  21.291  1.3701 -2.1432  1.3203
  148SAPE   C3816363   0.901   0.160  21.188 -0.3199 -0.1486 -1.1009
  148SAPE   H8X16364   1.008   0.186  21.174  0.1007 -0.4546  1.1795
  148SAPE   H8Y16365   0.876   0.097  21.099  1.3329  1.0358 -2.4836
  148SAPE   C3916366   0.897   0.076  21.310 -0.0647  0.1393 -0.4119
  148SAPE   H9X16367   0.792   0.049  21.337  0.3055 -1.6089 -0.5955
  148SAPE   H9Y16368   0.952   0.133  21.388 -1.7502  0.4322  0.6158
  148SAPE  C31016369   0.965  -0.060  21.289  0.1929 -0.6437  0.1575
  148SAPE  H10X16370   1.074  -0.050  21.271  0.5171 -3.1422  0.4467
  148SAPE  H10Y16371   0.916  -0.101  21.198 -0.5564  0.0292  0.2444
  148SAPE  C31116372   0.956  -0.153  21.412 -0.3484 -0.0184  1.1115
  148SAPE  H11X16373   0.850  -0.182  21.398 -0.3435  0.7986 -0.9436
  148SAPE  H11Y16374   0.981  -0.109  21.511  0.2613  1.1767  0.4510
  148SAPE  C31216375   1.052  -0.272  21.405  0.3661  0.0527  0.1020
  148SAPE  H12X16376   1.028  -0.346  21.486 -2.4904 -0.6020 -1.2265
  148SAPE  H12Y16377   1.146  -0.223  21.438  0.4874 -0.0857 -0.0362
  148SAPE  C31316378   1.084  -0.347  21.270 -0.0942 -0.5893 -0.2381
  148SAPE  H13X16379   1.101  -0.279  21.184  1.2258 -0.4167  0.1352
  148SAPE  H13Y16380   0.993  -0.401  21.236 -0.6770  1.3502 -1.9365
  148SAPE  C31416381   1.202  -0.450  21.281 -0.2195  0.5718 -0.1289
  148SAPE  H14X16382   1.206  -0.504  21.378 -3.4564 -1.3835 -0.9350
  148SAPE  H14Y16383   1.300  -0.399  21.273  1.5032 -2.5291 -0.2435
  148SAPE  C31516384   1.200  -0.551  21.164  0.5461 -0.2035  0.2616
  148SAPE  H15X16385   1.191  -0.494  21.069  1.1587 -1.9016 -0.8790
  148SAPE  H15Y16386   1.114  -0.622  21.169  0.7560 -0.7110 -1.9863
  148SAPE  C31616387   1.323  -0.653  21.172  0.1826  0.6909  0.1095
  148SAPE  H16X16388   1.328  -0.709  21.268 -0.8835  0.8399  0.2694
  148SAPE  H16Y16389   1.416  -0.598  21.146 -1.0127  1.5729 -2.7360
  148SAPE  C31716390   1.313  -0.749  21.051 -0.6196 -0.0607 -0.4736
  148SAPE  H17X16391   1.310  -0.696  20.954  1.0764 -0.1543 -0.6101
  148SAPE  H17Y16392   1.235  -0.827  21.068 -1.7073  1.0591 -0.2425
  148SAPE  C31816393   1.439  -0.828  21.025 -0.1803 -0.0116  0.1604
  148SAPE  H18X16394   1.455  -0.906  21.102  2.2802  0.6587  0.4024
  148SAPE  H18Y16395   1.537  -0.775  21.031  1.3186 -2.5797 -0.1974
  148SAPE  H18Z16396   1.440  -0.879  20.926  1.1181 -0.6512  0.4828
  149SAPE     N16397   0.235   1.281  17.073 -0.4551 -0.4724  0.5169
  149SAPE   HN116398   0.277   1.363  17.025  0.0275 -0.9374  0.1336
  149SAPE   HN216399   0.306   1.210  17.047  0.9802  0.6500  1.2684
  149SAPE   HN316400   0.151   1.257  17.016 -0.2683 -1.2892  0.5827
  149SAPE   C1216401   0.209   1.306  17.216  0.1614 -0.0590  0.5164
  149SAPE  H12A16402   0.144   1.224  17.253  0.1468  0.2990  1.3252
  149SAPE  H12B16403   0.150   1.400  17.228  1.9005  0.9447  1.7474
  149SAPE   C1116404   0.345   1.321  17.295  0.5840 -0.6242  1.2092
  149SAPE  H11A16405   0.391   1.221  17.310  1.2137 -0.3435  1.1757
  149SAPE  H11B16406   0.315   1.363  17.394 -1.4923  1.4013 -0.1958
  149SAPE     P16407   0.521   1.525  17.280 -0.1534  0.2271 -0.2174
  149SAPE   O1316408   0.648   1.549  17.203  0.4263 -0.1503  0.4085
  149SAPE   O1416409   0.438   1.645  17.293 -0.0858 -0.1041  0.0398
  149SAPE   O1216410   0.437   1.410  17.223  0.1126  0.7067  0.0272
  149SAPE   O1116411   0.573   1.467  17.420  0.1466  0.5840 -0.4348
  149SAPE    C116412   0.656   1.351  17.413 -0.0287  0.0947 -0.8952
  149SAPE    HA16413   0.620   1.276  17.339  3.6011  0.3523 -3.1875
  149SAPE    HB16414   0.755   1.386  17.377 -0.2435  1.4075 -0.2421
  149SAPE    C216415   0.676   1.277  17.546 -0.4584 -0.0226 -0.6689
  149SAPE    HS16416   0.757   1.201  17.545 -0.7865 -0.3927 -2.1536
  149SAPE   O2116417   0.548   1.217  17.592 -0.5046 -0.3893  0.0723
  149SAPE   C2116418   0.509   1.106  17.532  0.3744 -0.4639 -0.8259
  149SAPE   O2216419   0.557   1.058  17.432 -0.2068  0.2957 -0.9758
  149SAPE   C2216420   0.386   1.043  17.604 -0.2349  0.1148 -0.5614
  149SAPE   H2R16421   0.302   1.116  17.599  0.7591  1.2113 -2.5917
  149SAPE   H2S16422   0.357   0.954  17.544 -1.4607  0.0313  0.1148
  149SAPE    C316423   0.727   1.388  17.650 -0.3425 -0.3972 -0.5381
  149SAPE    HX16424   0.640   1.458  17.656  1.2185  1.6408 -0.3557
  149SAPE    HY16425   0.816   1.448  17.621  1.3696 -1.4908  2.0499
  149SAPE   O3116426   0.761   1.326  17.773 -0.2448 -0.1054  0.5418
  149SAPE   C3116427   0.665   1.328  17.868 -0.0164 -0.0388  1.4225
  149SAPE   O3216428   0.554   1.378  17.859 -0.0965 -0.3325  0.0054
  149SAPE   C3216429   0.719   1.253  17.994 -0.5329  0.5100  0.6410
  149SAPE   H2X16430   0.809   1.305  18.033 -0.2537  1.3965 -1.0648
  149SAPE   H2Y16431   0.749   1.154  17.954  0.7817  1.2322 -0.2279
  149SAPE   C2316432   0.431   0.990  17.738  0.5198 -0.2149 -0.5598
  149SAPE   H3R16433   0.467   1.067  17.808  0.1692 -1.3127  0.8712
  149SAPE   H3S16434   0.514   0.919  17.722 -0.1215 -1.1899  0.2846
  149SAPE   C2416435   0.318   0.904  17.814 -0.1228  0.2570  0.2646
  149SAPE   H4R16436   0.368   0.858  17.902  1.2328  1.0935 -0.0297
  149SAPE   H4S16437   0.295   0.827  17.737 -0.2247  0.3119  0.2395
  149SAPE   C2516438   0.204   0.999  17.840  0.0624  0.1508 -0.5772
  149SAPE   H5R16439   0.223   1.104  17.812  1.4306  0.1390  0.2137
  149SAPE   C2616440   0.094   0.969  17.907  0.0335 -0.0060  0.1048
  149SAPE   H6R16441   0.021   1.051  17.905 -0.0535 -0.0400 -2.6841
  149SAPE   C2716442   0.051   0.832  17.957 -0.0784 -0.0407  0.1320
  149SAPE   H7R16443   0.137   0.777  18.001 -0.4885 -1.0083 -0.2517
  149SAPE   H7S16444   0.010   0.769  17.875  1.8855 -1.6493  0.3040
  149SAPE   C2816445  -0.064   0.844  18.052  0.0711 -0.9363  1.2782
  149SAPE   H8R16446  -0.082   0.946  18.087  3.2542 -0.4194  1.7466
  149SAPE   C2916447  -0.130   0.749  18.116 -0.2591 -0.7152 -0.5409
  149SAPE   H9R16448  -0.208   0.785  18.184  2.3525  0.8995  1.8676
  149SAPE  C21016449  -0.117   0.603  18.093 -0.1808  0.7147 -0.0040
  149SAPE  H10R16450  -0.022   0.568  18.048 -0.8264 -0.2034 -0.6892
  149SAPE  H10S16451  -0.203   0.569  18.031  0.1948  0.6257 -0.4808
  149SAPE  C21116452  -0.109   0.533  18.227 -0.2863 -0.3493  0.3188
  149SAPE  H11R16453  -0.114   0.588  18.323  1.6237 -0.1533  0.3329
  149SAPE  C21216454  -0.092   0.401  18.237  0.6903  0.5434  0.3232
  149SAPE  H12R16455  -0.117   0.360  18.336 -4.5974 -1.3393 -1.4292
  149SAPE  C21316456  -0.099   0.299  18.120  0.0314  0.0376  0.0581
  149SAPE  H13R16457  -0.139   0.342  18.026 -0.7054 -0.6044  0.0709
  149SAPE  H13S16458  -0.170   0.219  18.150 -1.2034  1.3490  0.7700
  149SAPE  C21416459   0.039   0.251  18.077  0.0817 -0.0427 -0.8194
  149SAPE  H14R16460   0.113   0.241  18.157  0.4919 -2.2812 -1.4230
  149SAPE  C21516461   0.064   0.190  17.963 -0.5745 -0.2077 -0.5780
  149SAPE  H15R16462   0.164   0.153  17.935 -0.3845  0.2014 -0.4566
  149SAPE  C21616463  -0.029   0.178  17.842  0.1021  0.8198 -0.4086
  149SAPE  H16R16464  -0.105   0.259  17.844 -1.5531 -0.6267  2.8716
  149SAPE  H16S16465  -0.090   0.087  17.830 -0.6618  1.1466  0.8102
  149SAPE  C21716466   0.055   0.186  17.710  0.1709 -0.8289  0.5124
  149SAPE  H17R16467  -0.018   0.163  17.630 -1.9768 -0.4602  2.2614
  149SAPE  H17S16468   0.134   0.108  17.715  0.8612 -0.2665 -0.9138
  149SAPE  C21816469   0.134   0.318  17.684  0.3212 -0.3510  0.2308
  149SAPE  H18R16470   0.181   0.298  17.585  0.2844 -4.7775  0.9021
  149SAPE  H18S16471   0.216   0.341  17.755  0.8798 -1.9456  0.1448
  149SAPE  C21916472   0.058   0.453  17.678  0.6453  0.7741 -0.0855
  149SAPE  H19R16473   0.129   0.538  17.681 -0.4537  1.6934  0.5322
  149SAPE  H19S16474  -0.001   0.480  17.768 -0.7960  1.0961 -1.1006
  149SAPE  C22016475  -0.045   0.458  17.565  0.3126  1.0578 -0.1380
  149SAPE  H20R16476  -0.107   0.365  17.562  0.5534  0.9174 -0.7364
  149SAPE  H20S16477   0.003   0.467  17.466 -2.1246 -1.2974 -1.6955
  149SAPE  H20T16478  -0.111   0.546  17.578 -0.5679  0.9503 -3.1749
  149SAPE   C3316479   0.608   1.216  18.094  0.1668 -0.4584 -0.0122
  149SAPE   H3X16480   0.509   1.192  18.049 -1.3406 -0.5023  3.0745
  149SAPE   H3Y16481   0.595   1.298  18.167 -0.6068 -1.6850  1.2869
  149SAPE   C3416482   0.654   1.090  18.168 -0.1980  0.5413  0.1303
  149SAPE   H4X16483   0.601   1.099  18.265  0.2299  2.5441  0.2260
  149SAPE   H4Y16484   0.765   1.091  18.178 -0.3052  0.9033  1.5214
  149SAPE   C3516485   0.601   0.965  18.101  0.5785  0.5099  0.6992
  149SAPE   H5X16486   0.646   0.955  18.000 -0.1713  0.9691  0.3125
  149SAPE   H5Y16487   0.490   0.971  18.096  0.0452 -2.3914  4.6401
  149SAPE   C3616488   0.639   0.832  18.175  0.3892  0.2676  0.5996
  149SAPE   H6X16489   0.580   0.814  18.267 -0.8649 -1.8932 -0.5350
  149SAPE   H6Y16490   0.748   0.819  18.186  0.2298 -1.9983  0.0435
  149SAPE   C3716491   0.600   0.712  18.077 -0.4440  0.5079 -0.6077
  149SAPE   H7X16492   0.664   0.735  17.990  0.4537  0.9368  0.1406
  149SAPE   H7Y16493   0.492   0.716  18.050 -0.1360  2.1416 -1.7551
  149SAPE   C3816494   0.622   0.566  18.122  0.3558 -0.2426 -0.1289
  149SAPE   H8X16495   0.733   0.558  18.134  1.0483  1.4989 -3.9273
  149SAPE   H8Y16496   0.600   0.490  18.045 -1.3758 -0.7313  0.7961
  149SAPE   C3916497   0.553   0.535  18.258  0.6990 -0.2763 -0.8732
  149SAPE   H9X16498   0.442   0.526  18.253  0.4766  0.6546  1.3029
  149SAPE   H9Y16499   0.584   0.614  18.329  0.8170  0.4812 -1.7585
  149SAPE  C31016500   0.591   0.397  18.320 -0.1451  0.7807  0.5510
  149SAPE  H10X16501   0.701   0.384  18.311 -0.2302 -0.1373  0.7049
  149SAPE  H10Y16502   0.547   0.321  18.251 -0.6474  0.1308  1.5571
  149SAPE  C31116503   0.540   0.391  18.464  0.1099  0.0650  0.7634
  149SAPE  H11X16504   0.429   0.386  18.456  0.1736 -0.7573  0.1697
  149SAPE  H11Y16505   0.578   0.481  18.515 -1.8609  0.6632  1.2619
  149SAPE  C31216506   0.597   0.272  18.540  0.5753 -0.4880 -0.3209
  149SAPE  H12X16507   0.708   0.277  18.534  0.4832  2.3214 -0.7325
  149SAPE  H12Y16508   0.548   0.186  18.489 -1.4831  1.0005 -0.9828
  149SAPE  C31316509   0.556   0.282  18.687 -0.1955 -0.3620  0.1146
  149SAPE  H13X16510   0.460   0.337  18.690  1.0794  2.1507 -1.3544
  149SAPE  H13Y16511   0.620   0.364  18.724  1.3425 -0.3884 -2.2582
  149SAPE  C31416512   0.553   0.146  18.759  0.1912 -0.1105 -0.8067
  149SAPE  H14X16513   0.544   0.163  18.868 -2.2576  0.5701 -1.0643
  149SAPE  H14Y16514   0.652   0.101  18.736 -0.2442 -0.9708 -1.0253
  149SAPE  C31516515   0.439   0.057  18.718  0.9276  0.2570  0.5331
  149SAPE  H15X16516   0.462   0.006  18.622 -0.8934  0.9916 -0.3282
  149SAPE  H15Y16517   0.344   0.114  18.707 -0.9795 -2.2095  2.7426
  149SAPE  C31616518   0.400  -0.053  18.822  0.5139 -0.0927  0.0160
  149SAPE  H16X16519   0.317  -0.117  18.787  1.8854 -1.0330 -1.6485
  149SAPE  H16Y16520   0.366   0.005  18.911 -2.2800  0.1005 -1.0940
  149SAPE  C31716521   0.518  -0.144  18.851  0.6720  0.5276  0.6885
  149SAPE  H17X16522   0.485  -0.229  18.915 -1.1807  0.1276 -0.6936
  149SAPE  H17Y16523   0.596  -0.092  18.910  1.4310  1.8439 -1.3726
  149SAPE  C31816524   0.581  -0.205  18.720  0.2900 -0.2630  0.0608
  149SAPE  H18X16525   0.610  -0.121  18.652 -0.4726 -0.0561 -0.0213
  149SAPE  H18Y16526   0.502  -0.262  18.666  0.8786 -1.9965  0.9851
  149SAPE  H18Z16527   0.670  -0.269  18.737  1.9452  1.7822 -0.4983
  150SAPE     N16528   1.175   1.846  21.810 -0.4789 -0.3703  0.2677
  150SAPE   HN116529   1.191   1.749  21.775  1.2377  0.2712 -0.8819
  150SAPE   HN216530   1.225   1.912  21.748 -0.4969  0.6106  1.2664
  150SAPE   HN316531   1.226   1.855  21.901  0.5900  2.7815 -0.5294
  150SAPE   C1216532   1.041   1.884  21.854 -0.5763  0.3023 -0.2108
  150SAPE  H12A16533   1.043   1.976  21.915  0.5276  1.0578 -1.3310
  150SAPE  H12B16534   1.011   1.804  21.925  0.7504 -0.5879 -0.6023
  150SAPE   C1116535   0.946   1.916  21.745  0.2541 -0.3299  0.1763
  150SAPE  H11A16536   0.970   2.007  21.685  1.1242 -1.6950 -1.6535
  150SAPE  H11B16537   0.847   1.938  21.790 -1.5932 -2.0412 -2.7164
  150SAPE     P16538   0.843   1.677  21.655  0.0633  0.0358 -0.2839
  150SAPE   O1316539   0.731   1.681  21.558  0.0570  0.1400  0.3074
  150SAPE   O1416540   0.933   1.563  21.632  0.4451 -1.0332  0.1914
  150SAPE   O1216541   0.938   1.810  21.642  0.0367  0.4486  0.5096
  150SAPE   O1116542   0.793   1.673  21.808 -0.1998  0.2175  0.0137
  150SAPE    C116543   0.662   1.698  21.845  0.2710  0.1699  0.5161
  150SAPE    HA16544   0.589   1.687  21.762 -2.6346 -1.2782  3.0342
  150SAPE    HB16545   0.637   1.619  21.919 -0.7915 -0.4486 -0.4731
  150SAPE    C216546   0.636   1.834  21.920 -0.0350 -0.2502  0.0026
  150SAPE    HS16547   0.621   1.904  21.835 -0.4927  1.2777  1.2837
  150SAPE   O2116548   0.760   1.866  21.998  0.3681 -0.4612  0.3911
  150SAPE   C2116549   0.755   1.974  22.074 -0.2168  0.0179  0.1411
  150SAPE   O2216550   0.672   2.062  22.068  0.6730  0.0876  0.0274
  150SAPE   C2216551   0.877   1.972  22.166  0.7830  0.1366 -0.3840
  150SAPE   H2R16552   0.907   1.874  22.209 -0.0664  0.1519  0.2554
  150SAPE   H2S16553   0.968   2.013  22.117  0.8620 -0.8517 -1.0889
  150SAPE    C316554   0.505   1.838  22.012 -0.1808 -0.0789  0.6229
  150SAPE    HX16555   0.423   1.783  21.962  0.1897  1.8559 -2.3865
  150SAPE    HY16556   0.462   1.938  22.031 -1.3045 -0.5553  0.6767
  150SAPE   O3116557   0.531   1.770  22.139 -0.9707 -0.2705  0.0811
  150SAPE   C3116558   0.415   1.733  22.203  0.8061 -0.3018  1.0240
  150SAPE   O3216559   0.305   1.742  22.147 -0.4361  0.5820 -0.3712
  150SAPE   C3216560   0.440   1.646  22.323 -0.1189  0.4195 -0.1219
  150SAPE   H2X16561   0.512   1.689  22.396  2.0023 -1.4752 -0.9647
  150SAPE   H2Y16562   0.466   1.543  22.290  1.6780  0.8092 -0.0381
  150SAPE   C2316563   0.835   2.058  22.280  0.4346  0.1034 -0.5262
  150SAPE   H3R16564   0.750   2.016  22.339  0.5273 -0.5220 -0.8277
  150SAPE   H3S16565   0.799   2.154  22.238 -0.5121 -0.1921 -0.4382
  150SAPE   C2416566   0.952   2.069  22.382  0.2922 -0.4123  0.7096
  150SAPE   H4R16567   1.041   2.101  22.324 -0.4781  1.1671  0.3466
  150SAPE   H4S16568   0.970   1.969  22.428 -1.4930 -0.1028  2.2162
  150SAPE   C2516569   0.934   2.175  22.487 -0.1498 -0.0849 -0.7297
  150SAPE   H5R16570   0.907   2.279  22.461  1.0405  0.1223 -1.2129
  150SAPE   C2616571   0.949   2.152  22.620 -0.1632 -0.1449  0.2414
  150SAPE   H6R16572   0.918   2.222  22.699  0.1256 -1.7381  1.8300
  150SAPE   C2716573   0.994   2.014  22.672  0.3997  0.2633  0.0226
  150SAPE   H7R16574   1.100   1.989  22.648  1.2333  1.0993  2.4965
  150SAPE   H7S16575   0.930   1.933  22.632 -0.3769  1.2330 -0.7473
  150SAPE   C2816576   0.989   2.006  22.820  0.2537  0.4387 -0.0963
  150SAPE   H8R16577   1.031   2.097  22.865 -0.5788  0.4572  0.6693
  150SAPE   C2916578   0.942   1.901  22.886 -0.0514 -0.2941 -0.1602
  150SAPE   H9R16579   0.950   1.885  22.995 -1.7221 -0.5125 -0.0452
  150SAPE  C21016580   0.877   1.781  22.823 -0.5374 -0.1438 -1.0319
  150SAPE  H10R16581   0.939   1.752  22.736 -0.2141 -2.3875 -0.1208
  150SAPE  H10S16582   0.769   1.795  22.803 -0.8977 -1.9548 -0.4958
  150SAPE  C21116583   0.882   1.666  22.918  0.1820  0.5293  0.5090
  150SAPE  H11R16584   0.983   1.641  22.955  1.0836  1.9600 -0.8429
  150SAPE  C21216585   0.776   1.589  22.959 -0.1076  0.4002  0.2308
  150SAPE  H12R16586   0.791   1.503  23.026 -0.6023 -0.1174 -0.3096
  150SAPE  C21316587   0.633   1.603  22.901 -0.9287 -0.4086  0.0802
  150SAPE  H13R16588   0.616   1.709  22.873  1.5635  0.6701  2.1858
  150SAPE  H13S16589   0.564   1.573  22.982 -0.3227  0.1935  0.8370
  150SAPE  C21416590   0.612   1.521  22.779 -0.5854  0.3057 -0.4704
  150SAPE  H14R16591   0.641   1.563  22.681  2.5616 -1.8112 -0.5951
  150SAPE  C21516592   0.580   1.388  22.784 -0.1986  0.2487 -0.0675
  150SAPE  H15R16593   0.554   1.330  22.694 -3.1321 -0.8771  1.3685
  150SAPE  C21616594   0.554   1.315  22.918  1.0783 -0.3359  0.6263
  150SAPE  H16R16595   0.452   1.312  22.961  2.0192 -1.9757  2.9728
  150SAPE  H16S16596   0.614   1.367  22.997  0.6402  0.6281  0.3399
  150SAPE  C21716597   0.600   1.169  22.912  0.9821  0.2810 -0.0359
  150SAPE  H17R16598   0.689   1.164  22.846  1.4791 -0.8071  0.6965
  150SAPE  H17S16599   0.526   1.110  22.855 -0.1391  0.3851  1.2711
  150SAPE  C21816600   0.637   1.117  23.050 -0.4516  0.4959 -0.2754
  150SAPE  H18R16601   0.557   1.142  23.123  0.5605  1.4402  0.5645
  150SAPE  H18S16602   0.715   1.179  23.099 -1.3885  0.2544  1.6260
  150SAPE  C21916603   0.667   0.966  23.058  0.8549 -0.5524  0.3427
  150SAPE  H19R16604   0.755   0.945  22.994 -0.7601 -2.9908 -1.2385
  150SAPE  H19S16605   0.572   0.915  23.033 -0.7958  1.5497  1.9595
  150SAPE  C22016606   0.709   0.940  23.201  0.5748  0.4456  0.2808
  150SAPE  H20R16607   0.615   0.952  23.260  0.2713  2.4486 -0.5238
  150SAPE  H20S16608   0.786   1.009  23.242 -0.3287  0.8677  1.3278
  150SAPE  H20T16609   0.744   0.835  23.203 -0.0979  0.2123  0.1773
  150SAPE   C3316610   0.313   1.632  22.413  0.6282  0.2880 -0.4547
  150SAPE   H3X16611   0.225   1.594  22.356  0.2941 -0.0671  0.2883
  150SAPE   H3Y16612   0.279   1.722  22.468 -0.5113 -0.1152 -0.4695
  150SAPE   C3416613   0.339   1.519  22.514  0.1500  0.4085  0.7619
  150SAPE   H4X16614   0.399   1.564  22.596 -0.3643  0.9537  0.8464
  150SAPE   H4Y16615   0.389   1.429  22.473 -3.0053 -0.7898 -0.7723
  150SAPE   C3516616   0.218   1.480  22.593  0.1864 -0.2696 -0.0083
  150SAPE   H5X16617   0.137   1.460  22.519 -0.3526  0.0643  0.4842
  150SAPE   H5Y16618   0.177   1.566  22.650  2.0833  0.5832  0.1409
  150SAPE   C3616619   0.239   1.357  22.686  0.2131  0.0829 -0.4994
  150SAPE   H6X16620   0.308   1.382  22.769  0.4961  1.1251 -1.0195
  150SAPE   H6Y16621   0.293   1.275  22.635 -1.1566 -0.7779 -0.6256
  150SAPE   C3716622   0.110   1.301  22.745 -0.5189 -0.0869 -0.3346
  150SAPE   H7X16623   0.071   1.220  22.680 -0.4317 -0.2363 -0.1981
  150SAPE   H7Y16624   0.033   1.382  22.749  1.3202  1.6968  0.8571
  150SAPE   C3816625   0.138   1.236  22.878 -0.0701 -0.6524 -0.5605
  150SAPE   H8X16626   0.036   1.221  22.921 -0.6753 -3.6891 -2.6952
  150SAPE   H8Y16627   0.198   1.295  22.949  2.5159 -1.0907 -2.2619
  150SAPE   C3916628   0.197   1.087  22.861 -0.1096  0.4739 -0.0428
  150SAPE   H9X16629   0.306   1.086  22.840 -0.1553  0.5486 -0.2884
  150SAPE   H9Y16630   0.145   1.047  22.771 -0.3087  1.1801 -0.2529
  150SAPE  C31016631   0.179   0.994  22.989 -0.9134 -0.6514 -0.3481
  150SAPE  H10X16632   0.077   0.984  23.033 -0.3286 -2.1304  0.7114
  150SAPE  H10Y16633   0.251   1.021  23.069 -1.6166 -0.5073  0.2456
  150SAPE  C31116634   0.206   0.850  22.943 -0.5257  0.4061  0.1271
  150SAPE  H11X16635   0.296   0.843  22.879  0.2187 -0.8635  1.2711
  150SAPE  H11Y16636   0.132   0.843  22.861  1.3922  1.9186 -1.8664
  150SAPE  C31216637   0.202   0.737  23.035 -0.4681  0.2165 -0.3566
  150SAPE  H12X16638   0.149   0.655  22.982 -1.2821 -0.1326  0.9567
  150SAPE  H12Y16639   0.139   0.770  23.121  0.2406 -0.6180  0.4971
  150SAPE  C31316640   0.346   0.704  23.080  0.1795 -0.1817 -0.1747
  150SAPE  H13X16641   0.406   0.794  23.104 -0.0156 -0.0419 -0.2055
  150SAPE  H13Y16642   0.389   0.649  22.994  3.1548  0.7265  0.6188
  150SAPE  C31416643   0.341   0.619  23.202 -0.2704  0.6542  0.6738
  150SAPE  H14X16644   0.284   0.527  23.177  0.6995  0.4063 -0.7632
  150SAPE  H14Y16645   0.288   0.680  23.279 -1.2548  0.2824  0.3048
  150SAPE  C31516646   0.482   0.574  23.245  0.1535  0.8022  0.1369
  150SAPE  H15X16647   0.556   0.655  23.262  0.2958  1.1910 -1.9987
  150SAPE  H15Y16648   0.526   0.520  23.158  1.3102  1.1084  0.5173
  150SAPE  C31616649   0.468   0.494  23.371 -0.1976 -0.0458 -0.5793
  150SAPE  H16X16650   0.400   0.411  23.344 -0.1376  0.7950 -3.7521
  150SAPE  H16Y16651   0.423   0.549  23.456  0.9778 -2.0998  1.4883
  150SAPE  C31716652   0.600   0.434  23.417 -0.3056 -0.1059 -0.5006
  150SAPE  H17X16653   0.664   0.516  23.458 -0.9489 -0.1724  0.6798
  150SAPE  H17Y16654   0.656   0.399  23.328 -0.7945  1.9861 -1.6806
  150SAPE  C31816655   0.587   0.317  23.520  0.4468 -0.4089  0.0312
  150SAPE  H18X16656   0.499   0.344  23.581  1.8641  1.3313  1.4082
  150SAPE  H18Y16657   0.686   0.310  23.570  0.8342  0.1283 -0.6395
  150SAPE  H18Z16658   0.574   0.220  23.466 -0.5959 -0.0575 -0.3818
  151SAPE     N16659   0.073   1.915  18.795  0.3939 -0.0292 -0.9580
  151SAPE   HN116660   0.149   1.847  18.773  1.0421  0.4421 -0.2275
  151SAPE   HN216661   0.034   1.882  18.886  1.1417  2.8605  0.5295
  151SAPE   HN316662  -0.002   1.923  18.724 -0.5077  2.7110  0.1750
  151SAPE   C1216663   0.125   2.055  18.813 -0.5717  0.2059 -0.8210
  151SAPE  H12A16664   0.202   2.059  18.893 -0.3321 -0.1760 -1.0313
  151SAPE  H12B16665   0.036   2.116  18.837 -2.0963 -1.2342 -2.5034
  151SAPE   C1116666   0.185   2.096  18.686  0.1559 -0.5112  0.5658
  151SAPE  H11A16667   0.215   2.203  18.697  1.1204 -0.4756 -1.8171
  151SAPE  H11B16668   0.102   2.090  18.613  0.2451  2.2632  0.1390
  151SAPE     P16669   0.446   2.067  18.666 -0.1181 -0.1822 -0.0435
  151SAPE   O1316670   0.528   1.986  18.763  1.2736  0.3080 -0.0433
  151SAPE   O1416671   0.494   2.083  18.527 -0.1864 -0.2781 -0.2078
  151SAPE   O1216672   0.297   2.013  18.653  0.3727  0.2510 -0.2961
  151SAPE   O1116673   0.424   2.216  18.722 -0.4283 -0.2696 -0.7027
  151SAPE    C116674   0.466   2.264  18.848  0.5293 -0.1171 -0.0191
  151SAPE    HA16675   0.391   2.226  18.921 -0.6177  1.3867 -0.3674
  151SAPE    HB16676   0.566   2.223  18.872  0.0587 -0.8545  0.7892
  151SAPE    C216677   0.473   2.420  18.855  0.0305 -0.5561 -0.3509
  151SAPE    HS16678   0.496   2.453  18.959 -0.3846  0.2807 -0.5123
  151SAPE   O2116679   0.354   2.481  18.807 -0.3973 -0.5284  0.3207
  151SAPE   C2116680   0.246   2.467  18.882  0.0273 -0.2079  0.4426
  151SAPE   O2216681   0.238   2.409  18.985 -0.1469  0.3205  0.1734
  151SAPE   C2216682   0.136   2.560  18.824 -0.0173  0.3162 -0.2163
  151SAPE   H2R16683   0.193   2.654  18.841  1.2943  0.1969 -3.2789
  151SAPE   H2S16684   0.118   2.548  18.715 -1.1319 -2.5913  0.2006
  151SAPE    C316685   0.594   2.490  18.780  0.5282  0.1510 -0.1460
  151SAPE    HX16686   0.599   2.461  18.673  0.5150 -1.3444  0.2393
  151SAPE    HY16687   0.685   2.452  18.832  0.6800  1.1859  0.3709
  151SAPE   O3116688   0.586   2.636  18.786  0.2178 -0.4563  0.0010
  151SAPE   C3116689   0.552   2.712  18.674  0.4761  1.0408 -0.1763
  151SAPE   O3216690   0.535   2.663  18.562  0.0990 -0.4877  0.5373
  151SAPE   C3216691   0.539   2.862  18.704 -1.0782 -0.0306 -0.2183
  151SAPE   H2X16692   0.557   2.866  18.814 -1.4823 -1.1710 -0.0992
  151SAPE   H2Y16693   0.435   2.896  18.689 -1.1979 -0.5247 -0.5317
  151SAPE   C2316694   0.003   2.571  18.904 -0.1021  0.5802  0.2303
  151SAPE   H3R16695   0.005   2.662  18.968  0.1373  0.9194 -0.2544
  151SAPE   H3S16696  -0.001   2.483  18.972  1.5587  2.3440  2.7977
  151SAPE   C2416697  -0.121   2.568  18.816 -0.3624  1.2280  0.3776
  151SAPE   H4R16698  -0.097   2.646  18.740 -0.8755  0.3302 -0.7464
  151SAPE   H4S16699  -0.210   2.603  18.873  0.5816  1.9489  1.4587
  151SAPE   C2516700  -0.139   2.435  18.740 -1.3397 -0.0348  0.3185
  151SAPE   H5R16701  -0.147   2.342  18.797  1.5570 -0.4384  0.1951
  151SAPE   C2616702  -0.150   2.431  18.606  0.7155 -0.2366  0.4547
  151SAPE   H6R16703  -0.166   2.327  18.572 -0.0721 -0.9655  2.8604
  151SAPE   C2716704  -0.146   2.550  18.504 -0.3904 -0.2970 -0.5711
  151SAPE   H7R16705  -0.178   2.644  18.552  1.1745  0.2333 -0.5403
  151SAPE   H7S16706  -0.219   2.528  18.423 -2.5454  2.2395  0.5342
  151SAPE   C2816707  -0.008   2.578  18.453 -0.5277  0.2601  0.1103
  151SAPE   H8R16708   0.077   2.541  18.513 -0.3556  1.0911  0.3925
  151SAPE   C2916709   0.025   2.659  18.348  0.4074  0.3679  0.4204
  151SAPE   H9R16710   0.131   2.660  18.321  0.1143 -0.5550 -0.9207
  151SAPE  C21016711  -0.076   2.737  18.260 -0.0031  0.9329  0.3719
  151SAPE  H10R16712  -0.033   2.839  18.259  1.0888  0.5121 -1.9680
  151SAPE  H10S16713  -0.178   2.741  18.302 -0.7147  1.6763 -1.3342
  151SAPE  C21116714  -0.089   2.685  18.117 -0.0072 -0.1934 -0.2930
  151SAPE  H11R16715  -0.151   2.595  18.102 -1.1153  0.6688 -1.0881
  151SAPE  C21216716  -0.044   2.760  18.014 -0.1274  0.3388 -0.2195
  151SAPE  H12R16717  -0.049   2.714  17.914  0.7543 -0.6662  0.1817
  151SAPE  C21316718   0.045   2.889  18.012  0.0914  0.8408 -0.1814
  151SAPE  H13R16719   0.146   2.847  17.997 -0.5432 -1.6443  1.8010
  151SAPE  H13S16720   0.036   2.925  18.116 -0.1360 -0.3681  0.2328
  151SAPE  C21416721  -0.003   2.998  17.919  0.0713 -0.8621 -0.8239
  151SAPE  H14R16722  -0.103   2.986  17.876 -0.1659 -1.2358 -0.1639
  151SAPE  C21516723   0.071   3.110  17.899  0.5196 -0.3618  0.5407
  151SAPE  H15R16724   0.027   3.193  17.840  0.4107 -0.1337  0.9407
  151SAPE  C21616725   0.208   3.136  17.958  0.1137  0.2230 -0.2664
  151SAPE  H16R16726   0.276   3.087  17.885 -0.8804 -0.3379 -0.8382
  151SAPE  H16S16727   0.217   3.099  18.063  0.1223 -1.6250 -0.8751
  151SAPE  C21716728   0.224   3.286  17.978  1.3117  0.0047 -0.7097
  151SAPE  H17R16729   0.144   3.313  18.050  1.9512 -0.1398  0.0729
  151SAPE  H17S16730   0.201   3.340  17.884 -0.3918  1.8584  0.6768
  151SAPE  C21816731   0.347   3.329  18.055  0.3871 -0.3209 -0.0484
  151SAPE  H18R16732   0.445   3.300  18.013  1.6920  0.9696  1.9302
  151SAPE  H18S16733   0.344   3.270  18.149 -1.5150 -1.9128 -1.0365
  151SAPE  C21916734   0.351   3.478  18.098 -0.3770  0.4433  0.0717
  151SAPE  H19R16735   0.245   3.508  18.114  0.3544  3.4750 -0.1193
  151SAPE  H19S16736   0.382   3.543  18.014  3.5270 -2.8411 -1.3860
  151SAPE  C22016737   0.424   3.504  18.234 -0.1766  0.8309 -0.5120
  151SAPE  H20R16738   0.399   3.606  18.271  0.7247  0.4034  1.4074
  151SAPE  H20S16739   0.401   3.419  18.302  1.2786  0.2917 -0.6595
  151SAPE  H20T16740   0.532   3.503  18.208 -0.4464 -0.3735 -1.7014
  151SAPE   C3316741   0.652   2.946  18.632  0.4631  0.0041  0.3706
  151SAPE   H3X16742   0.648   2.947  18.521 -0.6042  1.9655  0.3903
  151SAPE   H3Y16743   0.751   2.907  18.664  1.1612  0.9877 -0.5514
  151SAPE   C3416744   0.648   3.094  18.668 -0.6450 -0.2082 -0.0506
  151SAPE   H4X16745   0.642   3.115  18.778  1.1166  1.7271 -0.2482
  151SAPE   H4Y16746   0.553   3.137  18.629  0.4241  1.9501 -0.4685
  151SAPE   C3516747   0.763   3.180  18.606 -0.1244  0.3846  0.4169
  151SAPE   H5X16748   0.769   3.168  18.496  1.0446  0.8030  0.4259
  151SAPE   H5Y16749   0.861   3.149  18.646 -2.2091 -4.7284  2.4370
  151SAPE   C3616750   0.748   3.336  18.643 -0.2743  0.0979 -0.2239
  151SAPE   H6X16751   0.738   3.342  18.753 -0.5787 -0.8002 -0.1958
  151SAPE   H6Y16752   0.654   3.364  18.590 -1.1593 -0.7810  0.8413
  151SAPE   C3716753   0.861   3.426  18.600  0.8930 -0.4276 -0.1166
  151SAPE   H7X16754   0.952   3.421  18.664  0.9835  2.2010  0.0952
  151SAPE   H7Y16755   0.812   3.526  18.607 -1.6715 -1.7247  2.0970
  151SAPE   C3816756   0.894   3.396  18.451 -0.2229 -0.2469 -0.6147
  151SAPE   H8X16757   0.802   3.415  18.392 -1.1309 -1.3124  0.4255
  151SAPE   H8Y16758   0.916   3.290  18.426 -0.4485 -0.1726 -1.1285
  151SAPE   C3916759   1.020   3.472  18.410  0.8664 -0.2189 -0.3489
  151SAPE   H9X16760   1.055   3.440  18.309  0.7968 -0.5564 -0.2661
  151SAPE   H9Y16761   1.098   3.440  18.483  1.2900 -0.8402 -1.0570
  151SAPE  C31016762   0.994   3.620  18.424 -0.2421 -0.8476  0.3237
  151SAPE  H10X16763   0.987   3.655  18.529  1.8467 -1.2982  0.6574
  151SAPE  H10Y16764   0.892   3.644  18.386  0.3732 -0.8318 -1.4399
  151SAPE  C31116765   1.115   3.706  18.381  0.4223 -0.4299  0.8376
  151SAPE  H11X16766   1.144   3.691  18.275 -0.2439  1.4783  0.3603
  151SAPE  H11Y16767   1.208   3.685  18.438  1.0816  0.4050  0.0914
  151SAPE  C31216768   1.086   3.853  18.415  0.1415  0.0042  0.5363
  151SAPE  H12X16769   1.026   3.867  18.507  0.4501 -1.1165  0.9243
  151SAPE  H12Y16770   1.034   3.888  18.324  0.0646 -0.6448  0.3269
  151SAPE  C31316771   1.222   3.929  18.410 -0.4238 -0.4430  0.4353
  151SAPE  H13X16772   1.283   3.901  18.321 -1.0391 -0.8299  0.1338
  151SAPE  H13Y16773   1.275   3.884  18.497 -1.7984 -1.0121  1.0028
  151SAPE  C31416774   1.209   4.074  18.451 -0.2337  0.4089  0.0521
  151SAPE  H14X16775   1.310   4.120  18.456 -0.1004  0.0115  2.7776
  151SAPE  H14Y16776   1.169   4.081  18.555  0.1013  1.4565  0.1268
  151SAPE  C31516777   1.120   4.174  18.373  0.0357  0.4003  0.1749
  151SAPE  H15X16778   1.117   4.273  18.423  1.8251  0.6227 -0.0712
  151SAPE  H15Y16779   1.017   4.137  18.355 -0.3202  0.8458  1.2435
  151SAPE  C31616780   1.167   4.205  18.225 -0.0120  0.3241 -0.3533
  151SAPE  H16X16781   1.167   4.119  18.156 -0.4579  1.3167 -1.6289
  151SAPE  H16Y16782   1.262   4.260  18.239 -0.7178  0.7592  4.7569
  151SAPE  C31716783   1.062   4.291  18.153  0.2655  0.4879 -1.3723
  151SAPE  H17X16784   0.975   4.230  18.122 -0.7296  0.3927  1.3495
  151SAPE  H17Y16785   1.109   4.317  18.056 -0.4509  1.2611 -1.5213
  151SAPE  C31816786   1.023   4.428  18.215  0.1783  0.1372  0.4889
  151SAPE  H18X16787   1.106   4.484  18.262 -2.5952  3.1084  2.2305
  151SAPE  H18Y16788   0.952   4.395  18.294 -0.2360  0.5723  0.3031
  151SAPE  H18Z16789   0.968   4.496  18.147  1.3648  0.3578 -0.2678
  152SAPE     N16790   2.730   2.261  21.262  0.3703  0.8622  0.0705
  152SAPE   HN116791   2.756   2.232  21.166  0.1207  1.5049 -0.1938
  152SAPE   HN216792   2.715   2.179  21.325  0.5624  0.0180 -0.9623
  152SAPE   HN316793   2.648   2.325  21.253  1.9426  3.2104  1.4249
  152SAPE   C1216794   2.834   2.352  21.314 -0.9617  0.0456 -0.4827
  152SAPE  H12A16795   2.892   2.313  21.401  1.5420  1.9138 -1.2067
  152SAPE  H12B16796   2.777   2.433  21.365 -2.3232  0.6178 -2.7586
  152SAPE   C1116797   2.919   2.425  21.204  0.0599 -0.0717  0.2671
  152SAPE  H11A16798   2.997   2.354  21.167 -0.6666 -0.4090 -0.6740
  152SAPE  H11B16799   2.968   2.513  21.251  0.9805 -0.2268 -0.3723
  152SAPE     P16800   2.823   2.395  20.958 -0.1725 -0.3139 -0.2563
  152SAPE   O1316801   2.790   2.259  21.000 -0.1123 -0.1398  0.7203
  152SAPE   O1416802   2.721   2.456  20.866  0.1208  0.1136  0.2757
  152SAPE   O1216803   2.844   2.480  21.093  0.6064 -0.0002 -0.2598
  152SAPE   O1116804   2.964   2.405  20.885 -0.7808  0.0926 -0.2827
  152SAPE    C116805   3.067   2.505  20.893  0.0417 -0.6470  0.5562
  152SAPE    HA16806   3.058   2.564  20.987  0.9296  0.2643  0.0984
  152SAPE    HB16807   3.168   2.461  20.878  0.4989  0.9043 -1.4610
  152SAPE    C216808   3.063   2.609  20.773  0.3625  0.6655  0.6498
  152SAPE    HS16809   3.147   2.681  20.785  0.0637  1.5156 -1.7316
  152SAPE   O2116810   2.935   2.670  20.774  0.1853 -0.2826  0.4832
  152SAPE   C2116811   2.941   2.783  20.849 -0.2449 -0.2778 -0.3306
  152SAPE   O2216812   3.025   2.807  20.937  0.1912  0.1670  0.1070
  152SAPE   C2216813   2.819   2.870  20.838 -1.1143  0.2069  0.3065
  152SAPE   H2R16814   2.775   2.846  20.739  0.6772  0.7333 -0.6680
  152SAPE   H2S16815   2.765   2.834  20.928  0.2659  1.9681  1.9390
  152SAPE    C316816   3.081   2.554  20.627  0.0918  0.7334 -0.2431
  152SAPE    HX16817   2.989   2.495  20.606 -0.2060  1.3265 -0.6316
  152SAPE    HY16818   3.171   2.490  20.639  0.2159  1.4180  3.7908
  152SAPE   O3116819   3.097   2.665  20.533  0.5136  0.5968 -0.1856
  152SAPE   C3116820   3.058   2.633  20.412 -0.3511  0.2985 -0.2857
  152SAPE   O3216821   3.041   2.519  20.374  0.0273 -0.2408  0.8768
  152SAPE   C3216822   3.061   2.756  20.332 -0.3594 -0.1240  0.4937
  152SAPE   H2X16823   2.962   2.800  20.357 -0.8745 -0.5592 -0.6977
  152SAPE   H2Y16824   3.059   2.743  20.222  0.8298 -2.2417  0.6800
  152SAPE   C2316825   2.849   3.016  20.855 -0.5488 -0.3026  0.5935
  152SAPE   H3R16826   2.920   3.035  20.772 -1.1766  0.1247  0.1392
  152SAPE   H3S16827   2.903   3.044  20.948  0.4113  0.8952 -0.2896
  152SAPE   C2416828   2.722   3.108  20.856  0.0287  0.7921  0.4823
  152SAPE   H4R16829   2.676   3.084  20.758 -0.2334 -1.8537  1.1761
  152SAPE   H4S16830   2.753   3.214  20.872  1.5995  0.6852 -1.4944
  152SAPE   C2516831   2.620   3.070  20.965 -0.4566  0.0004  0.4310
  152SAPE   H5R16832   2.626   2.967  21.001 -1.1631  0.3173  1.4936
  152SAPE   C2616833   2.530   3.145  21.020  1.1150  0.4209  0.8055
  152SAPE   H6R16834   2.476   3.084  21.095 -1.0262 -0.5378 -1.3727
  152SAPE   C2716835   2.509   3.297  20.987  0.2296 -0.3144  0.0685
  152SAPE   H7R16836   2.609   3.346  20.976 -0.5292  1.4169  0.5232
  152SAPE   H7S16837   2.468   3.353  21.073  1.2254  0.7265 -0.1071
  152SAPE   C2816838   2.443   3.322  20.856 -0.7481  1.0105  0.3761
  152SAPE   H8R16839   2.501   3.289  20.768  0.2339 -1.7838  1.9590
  152SAPE   C2916840   2.328   3.381  20.843 -0.2447  0.5903 -0.0464
  152SAPE   H9R16841   2.284   3.399  20.744  1.5678  1.6904 -0.6935
  152SAPE  C21016842   2.240   3.422  20.958  0.1494  0.3684 -0.0998
  152SAPE  H10R16843   2.268   3.526  20.983  0.6146  0.2344 -0.0445
  152SAPE  H10S16844   2.260   3.369  21.054  3.3887  0.9047 -0.3664
  152SAPE  C21116845   2.089   3.423  20.936 -0.0182  0.1185  0.0812
  152SAPE  H11R16846   2.040   3.327  20.959  2.1449 -1.0776 -0.0050
  152SAPE  C21216847   2.027   3.526  20.872 -0.1384 -0.5783 -0.4707
  152SAPE  H12R16848   1.924   3.507  20.839  0.3815 -1.1408 -1.8489
  152SAPE  C21316849   2.061   3.669  20.851  0.0835  0.4352 -0.1300
  152SAPE  H13R16850   2.138   3.699  20.926  0.8768  0.9110 -1.1101
  152SAPE  H13S16851   1.973   3.728  20.884  2.2036  2.9637  1.4290
  152SAPE  C21416852   2.129   3.707  20.722  0.0700  0.1163 -0.0976
  152SAPE  H14R16853   2.225   3.659  20.698 -0.0703 -0.4361  0.4096
  152SAPE  C21516854   2.091   3.808  20.647  0.6165 -0.8563 -0.3351
  152SAPE  H15R16855   2.134   3.819  20.547 -0.2653  0.7942 -0.5723
  152SAPE  C21616856   1.973   3.900  20.666 -0.1210  0.0203  0.2319
  152SAPE  H16R16857   1.922   3.880  20.763 -0.5212 -2.6344 -0.4346
  152SAPE  H16S16858   1.900   3.878  20.585  2.0306  0.5364 -1.9663
  152SAPE  C21716859   1.997   4.049  20.646 -0.2642 -0.3958 -0.8487
  152SAPE  H17R16860   2.033   4.069  20.542 -1.3909 -0.4342 -1.2584
  152SAPE  H17S16861   2.070   4.076  20.725 -1.7407  0.9130  0.1216
  152SAPE  C21816862   1.875   4.139  20.676 -0.1975 -0.3865  0.0871
  152SAPE  H18R16863   1.842   4.114  20.779  2.3919 -1.2488  0.7926
  152SAPE  H18S16864   1.792   4.126  20.603  1.0368  1.2780 -1.6912
  152SAPE  C21916865   1.906   4.296  20.675  0.5946  0.9175  0.4413
  152SAPE  H19R16866   1.937   4.316  20.570 -0.4173 -2.8278 -0.7504
  152SAPE  H19S16867   1.981   4.319  20.754 -0.5583  1.4565  1.4186
  152SAPE  C22016868   1.781   4.377  20.708  0.6482  0.0005  0.3674
  152SAPE  H20R16869   1.801   4.485  20.721  0.0240  0.0591  0.8921
  152SAPE  H20S16870   1.729   4.355  20.804 -0.3398 -1.2640 -0.4254
  152SAPE  H20T16871   1.711   4.367  20.623 -1.2558 -2.3572  2.0454
  152SAPE   C3316872   3.188   2.845  20.349  0.5217 -0.5201 -1.0039
  152SAPE   H3X16873   3.274   2.774  20.341  2.3304  1.5774 -1.0451
  152SAPE   H3Y16874   3.182   2.875  20.456 -1.2656  0.4388 -1.3483
  152SAPE   C3416875   3.194   2.960  20.244 -0.2360 -0.0932  0.1576
  152SAPE   H4X16876   3.181   2.924  20.140 -3.3434  0.4339  0.2673
  152SAPE   H4Y16877   3.297   3.001  20.258  0.1498  0.1225 -2.7355
  152SAPE   C3516878   3.089   3.073  20.268  0.1475  0.4253  0.0776
  152SAPE   H5X16879   2.985   3.033  20.261  1.1932 -2.3610 -0.8666
  152SAPE   H5Y16880   3.107   3.151  20.191 -0.0734  0.1633 -0.2425
  152SAPE   C3616881   3.096   3.129  20.426  0.4206 -0.4900  1.3601
  152SAPE   H6X16882   3.071   3.044  20.494 -0.9117 -0.3203  1.0908
  152SAPE   H6Y16883   3.006   3.193  20.425  0.0386 -0.9042 -2.0707
  152SAPE   C3716884   3.223   3.198  20.477  0.3579 -0.0274  0.0620
  152SAPE   H7X16885   3.307   3.126  20.477  0.6353  0.2541  1.4737
  152SAPE   H7Y16886   3.226   3.230  20.584  2.0602 -0.4060  0.1458
  152SAPE   C3816887   3.272   3.310  20.387 -1.1065  0.4788 -0.2706
  152SAPE   H8X16888   3.184   3.362  20.344  0.1082  2.4340 -0.5110
  152SAPE   H8Y16889   3.336   3.278  20.302  0.0560  0.3041  0.6475
  152SAPE   C3916890   3.359   3.407  20.462  0.9139 -0.4477  0.4541
  152SAPE   H9X16891   3.450   3.359  20.504  1.8498  0.2801 -0.6904
  152SAPE   H9Y16892   3.293   3.455  20.538 -0.8459 -1.8334 -0.1184
  152SAPE  C31016893   3.388   3.532  20.379  0.1682  0.0880  0.0483
  152SAPE  H10X16894   3.444   3.604  20.443  0.1570  0.3463 -0.2315
  152SAPE  H10Y16895   3.293   3.588  20.366  1.6702  2.9773  0.6215
  152SAPE  C31116896   3.459   3.512  20.251  0.7289 -0.9255  0.4520
  152SAPE  H11X16897   3.399   3.456  20.176  1.8129 -1.6926  0.1315
  152SAPE  H11Y16898   3.553   3.455  20.259  1.3289  0.0074  0.2607
  152SAPE  C31216899   3.502   3.640  20.184 -0.1395 -0.4423  0.2835
  152SAPE  H12X16900   3.568   3.696  20.254  1.4008  0.2146 -1.5916
  152SAPE  H12Y16901   3.415   3.705  20.159  0.6329  0.5211 -0.0058
  152SAPE  C31316902   3.575   3.612  20.051 -0.3476  0.1281 -0.1435
  152SAPE  H13X16903   3.668   3.551  20.052 -0.5635 -0.5250 -4.2130
  152SAPE  H13Y16904   3.611   3.711  20.014 -0.6244  0.4918  0.5376
  152SAPE  C31416905   3.482   3.561  19.935 -0.1470 -1.8208 -0.0922
  152SAPE  H14X16906   3.440   3.656  19.896 -0.2856 -0.8823  2.1875
  152SAPE  H14Y16907   3.399   3.504  19.983 -0.6269  0.7643  2.4017
  152SAPE  C31516908   3.546   3.487  19.820  0.6444  0.1348 -1.2097
  152SAPE  H15X16909   3.589   3.390  19.851 -1.8897 -0.9770 -0.8951
  152SAPE  H15Y16910   3.634   3.543  19.781  1.2857 -1.0417 -1.5075
  152SAPE  C31616911   3.457   3.462  19.700  0.0927  0.9730 -0.2505
  152SAPE  H16X16912   3.442   3.553  19.639 -1.2855 -0.2353 -1.8088
  152SAPE  H16Y16913   3.359   3.420  19.729  1.1105 -0.8061  0.7565
  152SAPE  C31716914   3.513   3.359  19.605  0.4054 -0.0738  0.5527
  152SAPE  H17X16915   3.530   3.265  19.662  0.2639  0.2171  1.0806
  152SAPE  H17Y16916   3.611   3.389  19.562 -0.6952 -1.7834 -3.6960
  152SAPE  C31816917   3.419   3.336  19.489  0.2509  0.0337  0.2021
  152SAPE  H18X16918   3.408   3.417  19.414 -1.5074  0.7809  1.2034
  152SAPE  H18Y16919   3.315   3.314  19.521  0.0095  0.8370 -0.0028
  152SAPE  H18Z16920   3.469   3.252  19.435 -1.5319 -1.9829  1.5476
  153SAPE     N16921   2.523   1.699  21.452 -0.3047 -0.5919  0.3912
  153SAPE   HN116922   2.495   1.780  21.392  1.8661  1.1335  1.5600
  153SAPE   HN216923   2.626   1.704  21.440 -0.5564  0.7488 -2.0618
  153SAPE   HN316924   2.489   1.606  21.419 -0.2408 -1.0610  1.6111
  153SAPE   C1216925   2.503   1.723  21.598 -0.3412 -0.0705  0.2341
  153SAPE  H12A16926   2.560   1.814  21.628  0.6570 -0.6874  0.2287
  153SAPE  H12B16927   2.548   1.633  21.645  0.7207  0.4678  0.2776
  153SAPE   C1116928   2.358   1.737  21.646  0.5684  0.5345  0.8420
  153SAPE  H11A16929   2.334   1.841  21.616  1.3586  0.6809  0.6808
  153SAPE  H11B16930   2.359   1.730  21.756  0.6014 -1.2257  0.7551
  153SAPE     P16931   2.147   1.669  21.496  0.1235 -0.1065 -0.2444
  153SAPE   O1316932   2.148   1.802  21.437 -0.0140 -0.3653 -0.6660
  153SAPE   O1416933   2.132   1.551  21.409 -0.3005 -0.4410 -0.1951
  153SAPE   O1216934   2.271   1.640  21.589 -0.0619  0.1323  0.8457
  153SAPE   O1116935   2.022   1.675  21.598 -0.4588  0.0209  0.3143
  153SAPE    C116936   2.039   1.663  21.738  0.0634 -0.8247 -0.2588
  153SAPE    HA16937   2.123   1.724  21.777 -0.2171 -1.1445  0.8879
  153SAPE    HB16938   1.948   1.704  21.788  0.2467 -0.5069 -0.1867
  153SAPE    C216939   2.059   1.522  21.788 -0.6686 -0.4383  0.0066
  153SAPE    HS16940   2.160   1.498  21.748 -1.2690 -2.1156 -0.6214
  153SAPE   O2116941   1.958   1.438  21.735 -0.5466  0.2882  0.0435
  153SAPE   C2116942   1.997   1.350  21.638 -1.0819  0.1758 -0.4998
  153SAPE   O2216943   2.110   1.310  21.615 -0.3890  0.1028 -0.1910
  153SAPE   C2216944   1.876   1.291  21.578  0.5207  0.0789  0.1847
  153SAPE   H2R16945   1.816   1.234  21.653 -2.1272  1.1829 -0.9721
  153SAPE   H2S16946   1.820   1.378  21.539  0.2990 -0.5211 -0.8504
  153SAPE    C316947   2.052   1.523  21.946  0.7732  0.1319 -0.8940
  153SAPE    HX16948   1.950   1.532  21.989  1.6549  2.9787  0.8659
  153SAPE    HY16949   2.093   1.619  21.982  2.3695 -0.5792 -0.7010
  153SAPE   O3116950   2.116   1.404  21.994  0.1084  0.7410 -0.5268
  153SAPE   C3116951   2.206   1.422  22.085  0.1560 -0.1510 -0.2487
  153SAPE   O3216952   2.253   1.524  22.136  0.1845 -0.1948  0.6665
  153SAPE   C3216953   2.252   1.279  22.126  0.0401 -0.2765 -0.0538
  153SAPE   H2X16954   2.271   1.231  22.028  3.0661  0.6053 -0.0124
  153SAPE   H2Y16955   2.169   1.237  22.188  3.6082 -3.2168  3.2060
  153SAPE   C2316956   1.887   1.190  21.456  0.3956  0.3409  0.1172
  153SAPE   H3R16957   1.958   1.226  21.379 -0.0420 -0.8050 -0.8492
  153SAPE   H3S16958   1.789   1.197  21.404  1.0498  2.0218 -0.9589
  153SAPE   C2416959   1.941   1.050  21.503  0.7339  0.2114  0.0985
  153SAPE   H4R16960   2.030   1.058  21.568  0.9518 -1.4003  0.0422
  153SAPE   H4S16961   1.986   0.995  21.417 -0.2465  2.3171 -1.8844
  153SAPE   C2516962   1.826   0.977  21.568  0.7203  0.1611  0.3635
  153SAPE   H5R16963   1.746   0.935  21.505 -1.2184  1.9292  1.5203
  153SAPE   C2616964   1.817   0.933  21.691 -0.3287  0.2154 -0.4275
  153SAPE   H6R16965   1.730   0.876  21.727  0.9502 -0.2602  2.2444
  153SAPE   C2716966   1.928   0.952  21.793 -0.1625  0.0443  0.2181
  153SAPE   H7R16967   1.887   0.954  21.896 -1.4128  3.0615 -0.2453
  153SAPE   H7S16968   1.966   1.056  21.782  0.2884 -0.0604  0.7858
  153SAPE   C2816969   2.046   0.862  21.770  0.1626  0.4265  0.1625
  153SAPE   H8R16970   2.071   0.840  21.665  0.5466 -0.8329  0.4988
  153SAPE   C2916971   2.099   0.779  21.860 -0.3962 -0.3681  0.7190
  153SAPE   H9R16972   2.177   0.708  21.830  0.3360  0.2225  1.1848
  153SAPE  C21016973   2.080   0.779  22.012 -0.2737  0.9881  0.6258
  153SAPE  H10R16974   2.045   0.677  22.039  0.3179  0.8858  1.0169
  153SAPE  H10S16975   1.996   0.844  22.046 -1.9223 -0.8977  0.3801
  153SAPE  C21116976   2.205   0.816  22.083  0.0261 -0.7472 -0.6961
  153SAPE  H11R16977   2.251   0.907  22.041  1.9188 -1.3202  0.0187
  153SAPE  C21216978   2.265   0.747  22.186  0.9810 -0.8233  0.1910
  153SAPE  H12R16979   2.359   0.782  22.230  0.4039  1.8175 -0.5277
  153SAPE  C21316980   2.206   0.630  22.254  0.5878  0.3542  0.6254
  153SAPE  H13R16981   2.265   0.540  22.227 -2.1280 -1.4812  0.4169
  153SAPE  H13S16982   2.104   0.614  22.214  1.0174 -1.9291  0.2912
  153SAPE  C21416983   2.179   0.632  22.401 -0.1481  0.6091 -0.3717
  153SAPE  H14R16984   2.079   0.665  22.433  0.5311  1.3487  1.0728
  153SAPE  C21516985   2.258   0.599  22.507  0.1638 -0.4904  0.7562
  153SAPE  H15R16986   2.221   0.605  22.611  2.2813  0.4586  1.4951
  153SAPE  C21616987   2.402   0.552  22.498 -0.0801  0.6664  0.3098
  153SAPE  H16R16988   2.425   0.549  22.389 -0.1701 -4.0870  0.2050
  153SAPE  H16S16989   2.423   0.447  22.530  2.1196  1.2321  0.9193
  153SAPE  C21716990   2.515   0.645  22.561  0.6524  0.3281  1.1906
  153SAPE  H17R16991   2.493   0.667  22.667  1.3105 -0.9195  1.6063
  153SAPE  H17S16992   2.527   0.735  22.497  2.0384 -0.1981  0.6703
  153SAPE  C21816993   2.661   0.585  22.554 -0.0446  0.5293 -0.4827
  153SAPE  H18R16994   2.668   0.480  22.589  1.4574  0.3001 -1.3898
  153SAPE  H18S16995   2.719   0.653  22.619 -0.2315  0.2368 -0.0047
  153SAPE  C21916996   2.731   0.596  22.414 -0.3059 -0.2833  0.1634
  153SAPE  H19R16997   2.700   0.697  22.381 -3.0352 -0.0736  2.9362
  153SAPE  H19S16998   2.707   0.527  22.330 -0.5257 -1.0048  0.8048
  153SAPE  C22016999   2.882   0.579  22.434  0.0038 -0.0369  0.3143
  153SAPE  H20R17000   2.895   0.477  22.475 -0.4100 -1.3920 -2.6181
  153SAPE  H20S17001   2.924   0.659  22.498  0.2154 -1.2738  1.8005
  153SAPE  H20T17002   2.934   0.588  22.336  0.2839 -1.0535  0.3562
  153SAPE   C3317003   2.384   1.284  22.206  0.0477 -0.1572 -0.7911
  153SAPE   H3X17004   2.367   1.332  22.305 -2.1536 -3.7121  0.7258
  153SAPE   H3Y17005   2.461   1.337  22.146 -1.5703 -1.7488 -4.5879
  153SAPE   C3417006   2.456   1.147  22.242  0.5922  0.0073  0.4470
  153SAPE   H4X17007   2.559   1.166  22.280  0.7262  1.6334 -0.6412
  153SAPE   H4Y17008   2.472   1.083  22.152  0.0796  1.9860 -1.1298
  153SAPE   C3517009   2.384   1.060  22.350 -0.1963  0.1887  0.4574
  153SAPE   H5X17010   2.449   0.970  22.355 -2.5312 -1.6827 -0.7818
  153SAPE   H5Y17011   2.292   1.020  22.304  0.0330 -1.0481  1.0464
  153SAPE   C3617012   2.345   1.119  22.481  0.2778  0.0788 -0.0658
  153SAPE   H6X17013   2.272   1.201  22.467  1.0447  0.5083 -1.8572
  153SAPE   H6Y17014   2.435   1.167  22.527  0.2268  0.0580  0.0544
  153SAPE   C3717015   2.287   1.012  22.571 -0.7014 -0.1153 -0.1322
  153SAPE   H7X17016   2.365   0.941  22.606  0.4375  1.2869  0.2971
  153SAPE   H7Y17017   2.209   0.957  22.515 -0.5988 -0.1434 -0.2460
  153SAPE   C3817018   2.216   1.063  22.694 -0.6611  0.2897 -0.5489
  153SAPE   H8X17019   2.145   1.144  22.668  1.0295  2.1179  0.2514
  153SAPE   H8Y17020   2.294   1.093  22.768 -1.4584  1.3995 -0.1302
  153SAPE   C3917021   2.123   0.953  22.762 -0.5932  0.2698  0.3621
  153SAPE   H9X17022   2.056   0.921  22.679 -0.4716  0.0911  0.3335
  153SAPE   H9Y17023   2.060   1.003  22.839  0.4998  0.5227  1.1084
  153SAPE  C31017024   2.197   0.842  22.830 -0.3994 -0.4272  0.0072
  153SAPE  H10X17025   2.278   0.797  22.768  0.8003  2.2187 -0.4781
  153SAPE  H10Y17026   2.125   0.758  22.843 -0.2082 -0.4972  0.6261
  153SAPE  C31117027   2.258   0.878  22.966 -0.2653 -0.5551 -0.5212
  153SAPE  H11X17028   2.307   0.977  22.954 -1.5944 -0.0254 -1.8971
  153SAPE  H11Y17029   2.333   0.799  22.989  2.8587  1.1962 -3.6549
  153SAPE  C31217030   2.155   0.889  23.081  0.0323 -0.2876  0.0528
  153SAPE  H12X17031   2.129   0.786  23.111  0.6693  0.0197  1.7888
  153SAPE  H12Y17032   2.063   0.947  23.059  0.0741  0.5024  1.8347
  153SAPE  C31317033   2.216   0.959  23.204 -0.0324 -0.2831  0.6264
  153SAPE  H13X17034   2.262   1.054  23.169 -3.3006  2.6246  3.4012
  153SAPE  H13Y17035   2.292   0.891  23.246  2.0382  0.1840 -2.0953
  153SAPE  C31417036   2.123   1.013  23.314 -0.0656  0.4799 -0.0930
  153SAPE  H14X17037   2.045   0.939  23.342  1.2331 -1.0866 -0.4728
  153SAPE  H14Y17038   2.060   1.101  23.288 -0.0749 -0.2564 -2.8044
  153SAPE  C31517039   2.204   1.045  23.449 -0.1964 -0.5041 -0.3990
  153SAPE  H15X17040   2.282   0.967  23.457  1.7385  0.8887 -3.6817
  153SAPE  H15Y17041   2.137   1.057  23.537  2.3452  2.9674  1.3173
  153SAPE  C31617042   2.285   1.180  23.448 -0.5157 -0.0996 -0.8223
  153SAPE  H16X17043   2.206   1.257  23.443 -0.6103 -0.2654 -2.1242
  153SAPE  H16Y17044   2.345   1.184  23.355  0.4786  0.5928 -0.1716
  153SAPE  C31717045   2.371   1.193  23.575 -0.2070  0.0646  0.3005
  153SAPE  H17X17046   2.463   1.130  23.565 -0.3867 -0.5940  2.3913
  153SAPE  H17Y17047   2.322   1.153  23.666 -1.2674  0.0504 -0.2637
  153SAPE  C31817048   2.421   1.327  23.604  0.0832  0.3902 -0.1374
  153SAPE  H18X17049   2.495   1.359  23.526  0.1431  0.3968 -0.0773
  153SAPE  H18Y17050   2.469   1.327  23.704 -1.5845  1.1812  0.6929
  153SAPE  H18Z17051   2.347   1.410  23.611  0.8713  1.1333 -0.3014
  154SAPE     N17052   0.240   1.317  20.837 -0.0214 -0.1808  0.7799
  154SAPE   HN117053   0.186   1.302  20.750 -0.2619 -2.3331  1.2316
  154SAPE   HN217054   0.287   1.226  20.854  1.8394  0.6930  0.5925
  154SAPE   HN317055   0.178   1.341  20.917  0.4852  0.5418  0.9736
  154SAPE   C1217056   0.351   1.417  20.805 -1.4266  0.6457  0.2280
  154SAPE  H12A17057   0.310   1.516  20.777 -1.6976 -0.1492 -2.4653
  154SAPE  H12B17058   0.401   1.370  20.717 -1.8727  1.9186 -0.7375
  154SAPE   C1117059   0.455   1.445  20.923  0.1922 -0.8085  0.0254
  154SAPE  H11A17060   0.535   1.512  20.887  1.6712 -2.5490 -0.0332
  154SAPE  H11B17061   0.502   1.347  20.945  2.0414 -0.1956 -1.0341
  154SAPE     P17062   0.452   1.572  21.160  0.2099  0.1371 -0.4090
  154SAPE   O1317063   0.533   1.678  21.112 -0.1062 -0.2422  0.3205
  154SAPE   O1417064   0.348   1.626  21.246 -0.3523  0.4400 -0.5316
  154SAPE   O1217065   0.390   1.500  21.042 -0.3212  0.0213  0.3148
  154SAPE   O1117066   0.532   1.476  21.249  0.0902 -0.1636  0.3769
  154SAPE    C117067   0.468   1.345  21.270 -0.2789  0.3263  0.0562
  154SAPE    HA17068   0.372   1.330  21.216  0.2574  0.8621 -1.0599
  154SAPE    HB17069   0.535   1.265  21.232 -0.0986  0.9701 -1.0062
  154SAPE    C217070   0.442   1.316  21.424  0.2133 -0.0995 -0.0444
  154SAPE    HS17071   0.390   1.397  21.478  0.4863 -0.0836  0.1966
  154SAPE   O2117072   0.566   1.281  21.490 -0.0107  0.6165 -0.2181
  154SAPE   C2117073   0.588   1.322  21.611  0.5505  0.1648  0.2670
  154SAPE   O2217074   0.501   1.377  21.684 -0.0104  0.1587  0.4517
  154SAPE   C2217075   0.723   1.285  21.663  0.6510  0.2292 -0.1744
  154SAPE   H2R17076   0.801   1.348  21.614  2.3499 -2.6285 -1.3994
  154SAPE   H2S17077   0.721   1.284  21.774  1.3261 -0.2444 -0.1610
  154SAPE    C317078   0.357   1.185  21.434  0.6956 -0.4475  0.6840
  154SAPE    HX17079   0.418   1.100  21.397  0.1453 -0.2899 -0.6409
  154SAPE    HY17080   0.266   1.183  21.371  0.9501 -0.1115  0.3050
  154SAPE   O3117081   0.323   1.154  21.568 -0.1891  0.0180  0.0143
  154SAPE   C3117082   0.235   1.234  21.635  0.7128  1.1320  0.0727
  154SAPE   O3217083   0.178   1.331  21.588 -0.4992 -0.2124 -0.0784
  154SAPE   C3217084   0.201   1.169  21.775 -0.0914 -0.1452 -0.0643
  154SAPE   H2X17085   0.112   1.104  21.767 -1.1319  1.2021  0.1229
  154SAPE   H2Y17086   0.178   1.251  21.847  3.6399 -0.4276  1.7272
  154SAPE   C2317087   0.779   1.147  21.612  0.6057  0.0557 -0.2178
  154SAPE   H3R17088   0.796   1.158  21.502 -0.2652  1.8121 -0.2072
  154SAPE   H3S17089   0.706   1.065  21.626  1.8164 -0.7494  1.7489
  154SAPE   C2417090   0.912   1.112  21.690 -0.1572 -0.1006  0.6885
  154SAPE   H4R17091   0.893   1.135  21.797  1.5266  1.9351  0.6231
  154SAPE   H4S17092   0.990   1.181  21.652  1.2427 -0.3590  2.9373
  154SAPE   C2517093   0.960   0.967  21.669  0.7994  0.2623  0.1112
  154SAPE   H5R17094   1.000   0.952  21.567  0.4414  0.5224 -0.0700
  154SAPE   C2617095   0.960   0.869  21.756 -0.3670 -0.2581 -0.3429
  154SAPE   H6R17096   1.006   0.775  21.722  1.8535  0.1917  1.1941
  154SAPE   C2717097   0.920   0.861  21.904 -0.5799 -0.4343 -0.1832
  154SAPE   H7R17098   0.815   0.824  21.898 -0.9956  0.8396 -1.3307
  154SAPE   H7S17099   0.910   0.964  21.944 -0.9448 -0.5367  0.0020
  154SAPE   C2817100   1.015   0.778  21.983  0.3204 -0.3400  0.2175
  154SAPE   H8R17101   1.108   0.834  21.998  0.3283 -0.6236  1.3190
  154SAPE   C2917102   1.000   0.661  22.046  0.7319  0.6164 -1.0822
  154SAPE   H9R17103   1.087   0.626  22.103 -0.0912  0.0856 -0.1163
  154SAPE  C21017104   0.875   0.573  22.051 -0.0180  0.7347 -0.7405
  154SAPE  H10R17105   0.876   0.503  21.964  0.5353 -1.6594  1.0783
  154SAPE  H10S17106   0.788   0.641  22.038 -0.4325  0.3741  0.0502
  154SAPE  C21117107   0.845   0.504  22.185 -0.0139  0.7802 -0.1354
  154SAPE  H11R17108   0.822   0.577  22.263 -1.5382  0.4500 -0.2559
  154SAPE  C21217109   0.885   0.380  22.217 -0.5478 -0.0745  0.1780
  154SAPE  H12R17110   0.859   0.348  22.320 -1.3913  0.8204  0.2541
  154SAPE  C21317111   0.939   0.279  22.130  0.2559  0.2039  0.3238
  154SAPE  H13R17112   0.893   0.288  22.028  1.4530  0.2314 -0.2260
  154SAPE  H13S17113   0.895   0.183  22.166 -0.8780  0.8466  0.6999
  154SAPE  C21417114   1.088   0.250  22.132  0.6467 -0.5093 -0.2649
  154SAPE  H14R17115   1.151   0.309  22.064 -0.3275  0.7041 -0.1451
  154SAPE  C21517116   1.151   0.174  22.228 -0.2725  0.0957  1.0813
  154SAPE  H15R17117   1.261   0.172  22.226 -0.2194  1.7527  0.8413
  154SAPE  C21617118   1.094   0.113  22.348  0.7318  0.3103  0.1586
  154SAPE  H16R17119   0.983   0.112  22.357  0.8480 -0.3437  1.9482
  154SAPE  H16S17120   1.130   0.154  22.444  3.4340 -0.2750 -0.4957
  154SAPE  C21717121   1.120  -0.040  22.344  0.3384 -0.2581  0.3305
  154SAPE  H17R17122   1.228  -0.055  22.321 -0.0494 -1.6426 -0.7306
  154SAPE  H17S17123   1.072  -0.090  22.258  0.3291 -1.0580  0.7841
  154SAPE  C21817124   1.079  -0.123  22.465 -0.2288 -0.6885 -0.8264
  154SAPE  H18R17125   0.972  -0.100  22.484  0.4959  0.0281  3.4051
  154SAPE  H18S17126   1.126  -0.088  22.559 -0.0669  0.0728 -1.1904
  154SAPE  C21917127   1.105  -0.269  22.459  0.2949 -0.8770  0.2821
  154SAPE  H19R17128   1.216  -0.280  22.463  0.4415  0.1999 -0.3635
  154SAPE  H19S17129   1.076  -0.309  22.360 -0.1275 -0.3687  0.2001
  154SAPE  C22017130   1.029  -0.343  22.574 -0.0482  0.4849 -0.5107
  154SAPE  H20R17131   0.919  -0.327  22.570 -0.1086  0.4891  0.8993
  154SAPE  H20S17132   1.079  -0.310  22.668  0.9288 -0.0299 -0.8411
  154SAPE  H20T17133   1.048  -0.451  22.556 -2.2990  0.0862 -0.7092
  154SAPE   C3317134   0.316   1.079  21.830 -0.4483  0.5686 -0.1558
  154SAPE   H3X17135   0.405   1.139  21.859  0.2276 -0.4470 -0.0898
  154SAPE   H3Y17136   0.342   1.006  21.750  1.9628  0.5660  0.5527
  154SAPE   C3417137   0.283   1.000  21.957  0.5247  0.5949  0.5268
  154SAPE   H4X17138   0.173   0.998  21.967  0.5782  1.3694  1.3866
  154SAPE   H4Y17139   0.315   1.058  22.046 -0.0325  0.6188  0.7152
  154SAPE   C3517140   0.336   0.853  21.944  0.1445  0.1093 -0.2701
  154SAPE   H5X17141   0.446   0.847  21.946  0.2817  2.0992  1.2781
  154SAPE   H5Y17142   0.302   0.820  21.844  2.2733  1.0440 -1.3477
  154SAPE   C3617143   0.272   0.743  22.039 -0.2527  0.5505  0.5091
  154SAPE   H6X17144   0.163   0.726  22.025 -0.2599  1.6942 -1.2141
  154SAPE   H6Y17145   0.290   0.775  22.143  1.2807  0.7825  0.2036
  154SAPE   C3717146   0.336   0.604  22.024  0.7913  0.9642 -0.3628
  154SAPE   H7X17147   0.433   0.604  22.079 -0.4917  0.6614  2.0369
  154SAPE   H7Y17148   0.340   0.578  21.916  3.0105  1.1513 -0.3799
  154SAPE   C3817149   0.266   0.493  22.114 -0.4317  0.4888  0.7277
  154SAPE   H8X17150   0.158   0.488  22.089 -0.2520  0.0771  0.0151
  154SAPE   H8Y17151   0.263   0.526  22.220 -2.0385 -0.6514  1.0742
  154SAPE   C3917152   0.343   0.357  22.095  0.5823 -0.3156  0.9624
  154SAPE   H9X17153   0.304   0.279  22.164  1.6633 -3.4742 -1.7016
  154SAPE   H9Y17154   0.452   0.374  22.111  1.4880 -4.0303 -0.2692
  154SAPE  C31017155   0.314   0.300  21.954 -0.4351 -0.2357 -0.1552
  154SAPE  H10X17156   0.349   0.371  21.877 -1.2172  0.1412 -0.1759
  154SAPE  H10Y17157   0.204   0.307  21.936 -1.1504  1.0162  3.7020
  154SAPE  C31117158   0.354   0.148  21.935  0.2149 -0.9915  0.2182
  154SAPE  H11X17159   0.456   0.137  21.978 -0.4571  0.6018  2.4226
  154SAPE  H11Y17160   0.356   0.130  21.826 -0.4013 -3.6389  0.5652
  154SAPE  C31217161   0.249   0.058  21.996 -0.5516  0.7943  0.0249
  154SAPE  H12X17162   0.153   0.104  21.964  0.0253  0.7893 -1.8724
  154SAPE  H12Y17163   0.259   0.059  22.107  0.1276 -1.0446  0.0265
  154SAPE  C31317164   0.265  -0.086  21.941 -0.1284  0.0505 -0.1010
  154SAPE  H13X17165   0.272  -0.095  21.831 -1.1663  1.0693 -0.2682
  154SAPE  H13Y17166   0.177  -0.148  21.968  0.1151  0.4691  1.8257
  154SAPE  C31417167   0.390  -0.156  22.003  0.1693 -0.1955 -0.1895
  154SAPE  H14X17168   0.393  -0.162  22.114  0.3334 -0.8492 -0.2232
  154SAPE  H14Y17169   0.480  -0.102  21.967 -0.4032  0.6670 -0.3472
  154SAPE  C31517170   0.407  -0.302  21.952 -0.0471 -0.2237 -0.2626
  154SAPE  H15X17171   0.506  -0.339  21.985  1.3229  2.8193 -0.6532
  154SAPE  H15Y17172   0.415  -0.287  21.842  1.4971  0.9004 -0.0303
  154SAPE  C31617173   0.292  -0.394  21.984  0.0761  0.8872 -0.2209
  154SAPE  H16X17174   0.320  -0.497  21.951 -0.2970  0.2489  1.3601
  154SAPE  H16Y17175   0.195  -0.383  21.931 -0.9771  1.0904  1.6627
  154SAPE  C31717176   0.251  -0.406  22.129  0.2410 -0.4499  0.1536
  154SAPE  H17X17177   0.206  -0.310  22.163  2.0753  0.1715  1.0255
  154SAPE  H17Y17178   0.338  -0.411  22.198 -1.2271 -0.3374  2.1019
  154SAPE  C31817179   0.165  -0.519  22.155  0.0191 -0.3408 -0.5917
  154SAPE  H18X17180   0.058  -0.489  22.146 -0.3534 -0.9344  1.4683
  154SAPE  H18Y17181   0.178  -0.567  22.254 -2.8910 -1.1718 -0.5166
  154SAPE  H18Z17182   0.192  -0.593  22.077  1.6503  0.7353 -1.1097
  155SAPE     N17183   2.515   1.848  22.972 -0.9109 -0.6213 -0.2661
  155SAPE   HN117184   2.603   1.902  22.958 -0.4847 -0.5054  2.2736
  155SAPE   HN217185   2.509   1.821  23.072 -0.6184 -1.7637 -0.5431
  155SAPE   HN317186   2.532   1.762  22.916 -0.7260  0.1468 -1.4312
  155SAPE   C1217187   2.396   1.922  22.933  0.3225 -0.2391  0.2259
  155SAPE  H12A17188   2.399   1.931  22.822 -0.6768  0.8699  0.2640
  155SAPE  H12B17189   2.392   2.024  22.976 -0.2104  0.1378 -0.6802
  155SAPE   C1117190   2.277   1.846  22.979  0.3841  0.3900  0.2925
  155SAPE  H11A17191   2.183   1.892  22.941  0.7381 -0.1170 -1.2722
  155SAPE  H11B17192   2.254   1.843  23.088 -1.2503  1.0610  0.0012
  155SAPE     P17193   2.206   1.648  22.826  0.3795 -0.1557  0.5904
  155SAPE   O1317194   2.078   1.595  22.869  0.9010 -0.1590 -0.5578
  155SAPE   O1417195   2.198   1.752  22.718  0.1108  0.2845 -0.0833
  155SAPE   O1217196   2.287   1.705  22.943  0.3768  0.0189 -0.8878
  155SAPE   O1117197   2.308   1.536  22.777  0.0062  0.0292 -0.6744
  155SAPE    C117198   2.320   1.419  22.861  1.2663 -0.5663  0.6206
  155SAPE    HA17199   2.228   1.390  22.915  1.8962  0.6168  2.3986
  155SAPE    HB17200   2.350   1.329  22.802 -1.1351  0.1252 -1.8620
  155SAPE    C217201   2.435   1.433  22.959  0.0748 -0.8805  1.1549
  155SAPE    HS17202   2.435   1.537  22.997 -1.3381  0.1122 -1.2985
  155SAPE   O2117203   2.563   1.407  22.895  0.1808 -0.8336  0.6545
  155SAPE   C2117204   2.639   1.506  22.840  0.6044 -0.4560 -0.4304
  155SAPE   O2217205   2.612   1.626  22.851 -0.7733  0.8411  0.3130
  155SAPE   C2217206   2.774   1.442  22.781  0.4942  0.4424  0.2234
  155SAPE   H2R17207   2.801   1.356  22.845 -1.2719  0.3229  0.8528
  155SAPE   H2S17208   2.740   1.399  22.684  3.1236  0.8162 -0.9322
  155SAPE    C317209   2.418   1.333  23.080  0.5259  0.2055 -0.0229
  155SAPE    HX17210   2.510   1.337  23.142  1.1903 -2.6075 -0.6620
  155SAPE    HY17211   2.425   1.231  23.035  0.6047  0.7134 -1.1779
  155SAPE   O3117212   2.286   1.349  23.147 -0.3713 -0.5724  0.5327
  155SAPE   C3117213   2.293   1.440  23.249  0.6204 -0.1089 -0.5993
  155SAPE   O3217214   2.389   1.487  23.306 -0.0918 -0.3923 -0.3068
  155SAPE   C3217215   2.148   1.478  23.285  0.9244 -1.0349 -0.2393
  155SAPE   H2X17216   2.095   1.400  23.344 -0.7094 -0.0715 -0.3683
  155SAPE   H2Y17217   2.097   1.481  23.186  0.1076  0.2008  0.1924
  155SAPE   C2317218   2.880   1.547  22.752  0.6490  0.1140  0.0858
  155SAPE   H3R17219   2.844   1.642  22.708  0.0984 -0.6702 -1.2024
  155SAPE   H3S17220   2.944   1.511  22.668 -3.1900 -4.5399 -1.2213
  155SAPE   C2417221   2.962   1.589  22.876  0.3776  0.3766 -0.5528
  155SAPE   H4R17222   3.052   1.635  22.831  2.2244 -2.4418  0.0149
  155SAPE   H4S17223   2.994   1.499  22.934 -1.1865 -0.4931 -0.9693
  155SAPE   C2517224   2.890   1.691  22.963 -0.5333 -0.2433  0.5654
  155SAPE   H5R17225   2.865   1.784  22.910 -2.5889 -1.1497 -0.1539
  155SAPE   C2617226   2.853   1.673  23.092 -0.0398  0.9196 -0.2752
  155SAPE   H6R17227   2.798   1.751  23.146  0.7930  1.7872 -0.6456
  155SAPE   C2717228   2.879   1.546  23.183 -0.8883  0.7422 -0.4013
  155SAPE   H7R17229   2.912   1.582  23.283  1.9153  2.2802 -1.7621
  155SAPE   H7S17230   2.959   1.487  23.132 -1.5495 -2.3150  1.7881
  155SAPE   C2817231   2.763   1.447  23.206  0.0423  0.7385  0.8710
  155SAPE   H8R17232   2.664   1.479  23.171 -0.0820 -1.4524 -0.9685
  155SAPE   C2917233   2.782   1.316  23.238 -0.5575  0.5367 -0.0151
  155SAPE   H9R17234   2.691   1.255  23.249 -0.1800 -0.5316 -2.2960
  155SAPE  C21017235   2.919   1.252  23.250 -0.0117 -0.6009 -0.4725
  155SAPE  H10R17236   2.979   1.280  23.161 -0.9261 -0.3937 -1.0320
  155SAPE  H10S17237   2.917   1.141  23.250 -0.4730 -0.6037  0.3052
  155SAPE  C21117238   2.999   1.293  23.368 -0.1331  0.6873  0.2647
  155SAPE  H11R17239   3.071   1.375  23.357  1.3911 -0.2821  2.3384
  155SAPE  C21217240   3.001   1.225  23.484 -0.1602  0.1014 -0.7208
  155SAPE  H12R17241   3.068   1.271  23.558 -0.8121 -1.2050  0.7405
  155SAPE  C21317242   2.926   1.105  23.532 -0.4505  1.0208 -0.2237
  155SAPE  H13R17243   2.981   1.066  23.621  0.0849  2.1565 -0.0392
  155SAPE  H13S17244   2.933   1.017  23.464  1.1976  0.8978  0.0723
  155SAPE  C21417245   2.777   1.125  23.568  0.1280 -0.4166  0.4948
  155SAPE  H14R17246   2.723   1.221  23.562 -0.1428 -0.3262  3.1534
  155SAPE  C21517247   2.709   1.021  23.629 -1.3022 -0.3155 -0.0826
  155SAPE  H15R17248   2.618   1.044  23.685 -0.4249  0.4761  1.0663
  155SAPE  C21617249   2.772   0.885  23.661  0.9788 -0.3851  0.1795
  155SAPE  H16R17250   2.842   0.904  23.746  1.2242  0.6316 -0.2366
  155SAPE  H16S17251   2.838   0.849  23.578  4.1689  0.0046  2.3543
  155SAPE  C21717252   2.666   0.776  23.693 -0.6876 -0.0597  0.4352
  155SAPE  H17R17253   2.593   0.804  23.771  0.1855  0.9442  0.9203
  155SAPE  H17S17254   2.726   0.689  23.728  3.4480  1.2159 -2.6268
  155SAPE  C21817255   2.593   0.731  23.564  0.0191  0.2457 -0.5424
  155SAPE  H18R17256   2.670   0.725  23.484  2.5155 -0.3271  1.7452
  155SAPE  H18S17257   2.533   0.821  23.540  0.0002  0.0710 -1.1606
  155SAPE  C21917258   2.504   0.606  23.581  0.1879  0.6181 -0.1627
  155SAPE  H19R17259   2.410   0.625  23.637  0.1034 -0.1350 -0.0303
  155SAPE  H19S17260   2.562   0.528  23.635  0.0250  0.5475 -0.0880
  155SAPE  C22017261   2.473   0.558  23.436 -0.0032 -0.2701 -0.4104
  155SAPE  H20R17262   2.426   0.649  23.393  0.6312  2.2993  3.7145
  155SAPE  H20S17263   2.402   0.473  23.440  0.0547 -0.3291 -0.6459
  155SAPE  H20T17264   2.563   0.518  23.386  0.2284  0.2266 -0.3932
  155SAPE   C3317265   2.139   1.605  23.359  0.3464  0.2263 -0.2349
  155SAPE   H3X17266   2.190   1.691  23.311  1.7650  0.6325  1.8257
  155SAPE   H3Y17267   2.179   1.589  23.462 -0.9672  0.3652  0.3145
  155SAPE   C3417268   1.988   1.654  23.362  0.2526 -0.0274 -1.0087
  155SAPE   H4X17269   1.921   1.580  23.410  0.3797  0.4085 -0.1229
  155SAPE   H4Y17270   1.956   1.661  23.256 -2.5702  0.2543 -0.2236
  155SAPE   C3517271   1.977   1.789  23.432 -0.1852 -0.0932  0.0967
  155SAPE   H5X17272   1.882   1.844  23.415 -3.1003 -4.1797  1.6080
  155SAPE   H5Y17273   2.048   1.858  23.382  0.2530 -0.2641  0.4731
  155SAPE   C3617274   1.988   1.772  23.585 -0.8114  0.0239  0.2480
  155SAPE   H6X17275   2.081   1.716  23.606 -0.2169  0.6660 -0.5821
  155SAPE   H6Y17276   1.899   1.713  23.616  0.5657 -1.8792  0.7243
  155SAPE   C3717277   1.986   1.916  23.658 -0.0338 -0.2414 -0.4923
  155SAPE   H7X17278   1.885   1.961  23.648 -0.1182 -0.4850 -0.7674
  155SAPE   H7Y17279   2.061   1.977  23.603  0.6600 -0.6209  0.0090
  155SAPE   C3817280   2.022   1.912  23.813 -0.7906 -1.5133  0.1659
  155SAPE   H8X17281   2.133   1.907  23.820 -0.7311  0.0524  0.7057
  155SAPE   H8Y17282   1.984   1.825  23.871 -0.6335 -0.4767  1.8770
  155SAPE   C3917283   1.980   2.036  23.887  0.0822 -0.9238 -0.5101
  155SAPE   H9X17284   1.874   2.070  23.879 -0.1596 -0.1472  3.7493
  155SAPE   H9Y17285   2.028   2.127  23.845  0.3848 -0.6927  0.3178
  155SAPE  C31017286   2.003   2.022  24.039  0.1253 -0.1814  0.0092
  155SAPE  H10X17287   1.932   1.945  24.077 -0.1520 -1.0848 -2.1753
  155SAPE  H10Y17288   1.967   2.110  24.096 -0.9830 -1.3024  1.0861
  155SAPE  C31117289   2.154   2.005  24.074 -0.2247 -0.1766 -0.3346
  155SAPE  H11X17290   2.218   2.085  24.031  2.5377 -2.3898 -0.6352
  155SAPE  H11Y17291   2.208   1.914  24.039 -0.0106 -0.9518  1.8760
  155SAPE  C31217292   2.175   1.994  24.230 -0.4220  0.6653  0.0273
  155SAPE  H12X17293   2.278   1.956  24.247 -1.0384  0.0341  2.7323
  155SAPE  H12Y17294   2.111   1.916  24.275 -2.9619  2.3033 -0.5094
  155SAPE  C31317295   2.151   2.129  24.296  0.1845  0.0256 -0.0372
  155SAPE  H13X17296   2.040   2.135  24.300  0.1469 -0.7868  0.4002
  155SAPE  H13Y17297   2.188   2.205  24.225 -0.0703  0.1440 -0.0480
  155SAPE  C31417298   2.212   2.136  24.436 -0.1868 -1.1525 -0.0287
  155SAPE  H14X17299   2.321   2.153  24.423 -0.6975  1.3012 -1.6848
  155SAPE  H14Y17300   2.190   2.042  24.491  1.6558 -1.4064  0.3499
  155SAPE  C31517301   2.169   2.263  24.519  0.0095 -0.8657  0.2804
  155SAPE  H15X17302   2.203   2.240  24.622  1.8978  0.1320 -0.0662
  155SAPE  H15Y17303   2.058   2.263  24.517 -0.1174  0.1490  2.8570
  155SAPE  C31617304   2.230   2.403  24.484 -0.2832  0.3493 -0.0166
  155SAPE  H16X17305   2.183   2.433  24.388 -0.8479 -1.1991 -0.2590
  155SAPE  H16Y17306   2.339   2.424  24.496 -0.5741  1.0426  1.6448
  155SAPE  C31717307   2.166   2.493  24.589 -0.8910 -1.0355 -0.2996
  155SAPE  H17X17308   2.213   2.479  24.689 -2.4174  0.6996  0.7433
  155SAPE  H17Y17309   2.058   2.465  24.585 -1.1274 -0.1608 -0.2442
  155SAPE  C31817310   2.179   2.643  24.554  0.1577  1.5722 -0.1041
  155SAPE  H18X17311   2.287   2.671  24.560  0.5092  0.3227 -0.1574
  155SAPE  H18Y17312   2.122   2.706  24.625 -1.3959  0.0420  0.0837
  155SAPE  H18Z17313   2.151   2.664  24.448  0.0333  1.5198 -0.0803
  156SAPE     N17314   3.697   1.878  20.255  0.1001 -0.2123 -0.9408
  156SAPE   HN117315   3.634   1.809  20.209 -1.4149  1.3175 -1.2762
  156SAPE   HN217316   3.719   1.837  20.348 -3.0296  1.2012  0.5788
  156SAPE   HN317317   3.655   1.970  20.278  0.8181  0.6994 -3.0587
  156SAPE   C1217318   3.811   1.906  20.155  0.2971  0.6940 -0.1425
  156SAPE  H12A17319   3.758   1.938  20.063 -2.5948  1.1519  1.5363
  156SAPE  H12B17320   3.857   1.805  20.143  0.4881  0.9958 -2.1382
  156SAPE   C1117321   3.905   2.008  20.204 -0.1496 -0.2852  0.1251
  156SAPE  H11A17322   3.991   2.021  20.134 -0.5649 -1.2769 -0.5832
  156SAPE  H11B17323   3.959   1.976  20.296  0.7651  2.8718  0.8144
  156SAPE     P17324   3.863   2.231  20.338  0.2039  0.4492  0.2956
  156SAPE   O1317325   3.747   2.229  20.425 -0.1519 -1.1701 -0.5252
  156SAPE   O1417326   3.999   2.211  20.403 -0.1968 -0.0378 -0.1263
  156SAPE   O1217327   3.840   2.130  20.223  0.1348  0.8303 -0.1738
  156SAPE   O1117328   3.863   2.372  20.262 -0.3427  0.3111  0.4548
  156SAPE    C117329   3.975   2.413  20.186  0.0834 -0.0162 -0.1594
  156SAPE    HA17330   4.053   2.336  20.167  0.3700  0.1138  0.4802
  156SAPE    HB17331   3.939   2.468  20.096  0.8337  0.9348  0.1138
  156SAPE    C217332   4.063   2.508  20.267 -0.0120 -0.0877  0.6125
  156SAPE    HS17333   4.100   2.460  20.360  2.3237  1.1079  0.3900
  156SAPE   O2117334   3.987   2.630  20.293  0.2463  0.0952  0.2512
  156SAPE   C2117335   4.001   2.680  20.417 -0.1202 -0.1143 -0.5818
  156SAPE   O2217336   4.053   2.625  20.515  0.3258  0.4721  0.6627
  156SAPE   C2217337   3.942   2.821  20.426  0.4550  0.4230  0.1459
  156SAPE   H2R17338   3.982   2.882  20.342  1.3194 -0.7322 -0.3166
  156SAPE   H2S17339   3.834   2.809  20.401  0.6597  0.8216 -0.9784
  156SAPE    C317340   4.188   2.551  20.182 -0.1508  0.6839  0.1690
  156SAPE    HX17341   4.157   2.593  20.083 -0.8437  0.2142  0.1884
  156SAPE    HY17342   4.244   2.459  20.155 -0.1656 -0.0468  2.4331
  156SAPE   O3117343   4.275   2.637  20.256  0.2778  0.3682 -0.6928
  156SAPE   C3117344   4.273   2.762  20.223  0.2612  0.1728 -0.0786
  156SAPE   O3217345   4.216   2.810  20.130 -0.6737 -0.5119  0.5797
  156SAPE   C3217346   4.354   2.843  20.324 -0.3474  0.9384 -0.6504
  156SAPE   H2X17347   4.460   2.814  20.310 -0.6208 -0.2531 -0.4183
  156SAPE   H2Y17348   4.326   2.811  20.427 -0.8034  2.4340 -0.2836
  156SAPE   C2317349   3.982   2.903  20.549 -0.5278 -0.6874 -0.7885
  156SAPE   H3R17350   4.092   2.892  20.558 -0.5058 -2.2050 -2.3663
  156SAPE   H3S17351   3.925   2.870  20.639 -1.2473  1.3883 -0.4283
  156SAPE   C2417352   3.951   3.050  20.529  1.0209 -0.2079  0.0093
  156SAPE   H4R17353   4.014   3.089  20.446  1.8706 -0.7189  0.3975
  156SAPE   H4S17354   3.998   3.086  20.623  1.3202 -1.1862  0.2530
  156SAPE   C2517355   3.809   3.093  20.504  0.5430 -1.3138  0.1728
  156SAPE   H5R17356   3.779   3.076  20.399  2.7710 -0.8055 -0.6077
  156SAPE   C2617357   3.730   3.153  20.593  0.2328 -1.0269  0.0117
  156SAPE   H6R17358   3.627   3.188  20.581  0.7190  0.4349 -0.0507
  156SAPE   C2717359   3.762   3.183  20.742 -0.7323 -0.2028 -0.5656
  156SAPE   H7R17360   3.854   3.125  20.764 -1.5194 -1.2337  0.0998
  156SAPE   H7S17361   3.694   3.133  20.814 -0.2081 -0.7315 -0.4343
  156SAPE   C2817362   3.795   3.329  20.765  0.0296  0.4171 -0.6346
  156SAPE   H8R17363   3.902   3.351  20.757  0.8135 -1.8496  2.0134
  156SAPE   C2917364   3.714   3.418  20.829 -0.4390  0.1795 -0.7942
  156SAPE   H9R17365   3.748   3.522  20.844 -1.4429  0.4622 -0.3989
  156SAPE  C21017366   3.577   3.380  20.877  0.5273 -0.6228  0.6883
  156SAPE  H10R17367   3.545   3.277  20.851 -1.0253  0.1423 -0.6009
  156SAPE  H10S17368   3.500   3.435  20.819  1.5323 -0.7019 -0.7782
  156SAPE  C21117369   3.553   3.412  21.024 -0.2807 -0.9172 -0.0722
  156SAPE  H11R17370   3.587   3.323  21.079  1.2582  0.1210  0.7174
  156SAPE  C21217371   3.514   3.519  21.086  0.3140  0.2718  0.4478
  156SAPE  H12R17372   3.493   3.516  21.194  2.1204  0.4506  0.8481
  156SAPE  C21317373   3.478   3.646  21.025 -0.0255  0.5422  0.0758
  156SAPE  H13R17374   3.569   3.691  20.979  0.1174  0.4038  0.2197
  156SAPE  H13S17375   3.452   3.717  21.106 -0.4910  1.5014 -0.8803
  156SAPE  C21417376   3.357   3.638  20.936 -0.7734  0.4081  0.5340
  156SAPE  H14R17377   3.277   3.575  20.977  1.1982 -2.4327  0.3333
  156SAPE  C21517378   3.342   3.706  20.819  0.4459 -0.1699  0.8017
  156SAPE  H15R17379   3.251   3.693  20.759  0.6083  0.0928  0.4970
  156SAPE  C21617380   3.444   3.809  20.773 -0.2673 -0.3534  0.1438
  156SAPE  H16R17381   3.417   3.823  20.666 -1.5190 -2.8041  0.0613
  156SAPE  H16S17382   3.543   3.761  20.757 -0.4126 -0.0961 -1.8776
  156SAPE  C21717383   3.447   3.939  20.852 -0.2741  0.7657  0.1354
  156SAPE  H17R17384   3.548   3.984  20.850  1.2085 -2.2478 -3.2041
  156SAPE  H17S17385   3.417   3.930  20.959  0.4924 -0.2262  0.2789
  156SAPE  C21817386   3.355   4.044  20.786  0.3427  0.4526 -0.3902
  156SAPE  H18R17387   3.257   3.997  20.763 -0.7402  3.6075 -3.0164
  156SAPE  H18S17388   3.386   4.081  20.686  0.8389  1.0107 -0.0365
  156SAPE  C21917389   3.326   4.168  20.869  0.9936 -0.4345  0.2305
  156SAPE  H19R17390   3.424   4.214  20.894  0.6114 -0.8142  2.6325
  156SAPE  H19S17391   3.288   4.130  20.966 -2.1159  0.4871 -0.5130
  156SAPE  C22017392   3.227   4.259  20.793 -0.3048  0.5493  0.0920
  156SAPE  H20R17393   3.195   4.341  20.861  0.9365  1.6608 -0.6292
  156SAPE  H20S17394   3.143   4.192  20.764 -0.6300  1.4794 -1.2126
  156SAPE  H20T17395   3.275   4.298  20.701  1.0967 -1.1065  0.0703
  156SAPE   C3317396   4.326   2.997  20.313  0.2712  0.2998  0.6431
  156SAPE   H3X17397   4.223   3.007  20.355 -0.3105  0.1037 -0.6863
  156SAPE   H3Y17398   4.323   3.030  20.207  0.5737 -1.4973  0.0406
  156SAPE   C3417399   4.426   3.084  20.400  0.1484  0.4382 -0.1439
  156SAPE   H4X17400   4.402   3.063  20.506  0.2053  0.1527 -0.1842
  156SAPE   H4Y17401   4.392   3.187  20.376 -2.2475 -0.1849  0.2597
  156SAPE   C3517402   4.574   3.070  20.377  0.2271  0.3567 -0.2553
  156SAPE   H5X17403   4.582   3.080  20.267 -1.4439 -0.7825 -0.5258
  156SAPE   H5Y17404   4.595   2.965  20.406 -1.5774 -0.6874 -2.4114
  156SAPE   C3617405   4.666   3.160  20.457  0.4936 -0.7595  0.5094
  156SAPE   H6X17406   4.770   3.125  20.440  0.4116 -0.2178 -1.3356
  156SAPE   H6Y17407   4.628   3.147  20.561  1.1946  1.1475  1.0459
  156SAPE   C3717408   4.638   3.312  20.419 -0.2700  0.1665  0.2578
  156SAPE   H7X17409   4.531   3.333  20.399  0.3165  1.1097 -2.2339
  156SAPE   H7Y17410   4.679   3.339  20.319  0.4081 -0.8400  0.2438
  156SAPE   C3817411   4.704   3.412  20.520  0.0790 -0.2800 -0.5132
  156SAPE   H8X17412   4.812   3.398  20.543 -0.3289 -0.7669  1.2737
  156SAPE   H8Y17413   4.649   3.395  20.616 -1.5972  2.3684 -0.9116
  156SAPE   C3917414   4.680   3.562  20.476 -0.1538  0.0575 -0.0800
  156SAPE   H9X17415   4.573   3.579  20.452  0.1729  1.3185 -0.7526
  156SAPE   H9Y17416   4.745   3.572  20.386  0.8040  0.5895  0.6597
  156SAPE  C31017417   4.715   3.658  20.583 -0.2073  0.0448 -0.6611
  156SAPE  H10X17418   4.660   3.619  20.672  0.2006 -1.3089 -0.9982
  156SAPE  H10Y17419   4.689   3.766  20.568  1.9347  0.8901  1.1381
  156SAPE  C31117420   4.860   3.664  20.616  0.6853 -0.0528  0.1138
  156SAPE  H11X17421   4.893   3.562  20.647  0.3397 -0.2089 -0.0226
  156SAPE  H11Y17422   4.888   3.738  20.694  1.9036  1.1104 -1.3666
  156SAPE  C31217423   4.954   3.712  20.496  0.4520 -0.2354 -0.1024
  156SAPE  H12X17424   4.910   3.808  20.462  0.8727  0.2945  0.8282
  156SAPE  H12Y17425   4.959   3.633  20.417  0.3944 -0.8366  0.4818
  156SAPE  C31317426   5.098   3.729  20.539  0.0975  0.6202  0.5917
  156SAPE  H13X17427   5.132   3.636  20.590  0.6611  0.9296  0.7824
  156SAPE  H13Y17428   5.115   3.801  20.621  2.1616 -0.1300  0.8710
  156SAPE  C31417429   5.184   3.763  20.416 -1.0680  0.1638  0.1443
  156SAPE  H14X17430   5.137   3.726  20.322  1.8580 -1.9929 -0.6168
  156SAPE  H14Y17431   5.282   3.714  20.432 -1.3464 -1.6128 -2.7439
  156SAPE  C31517432   5.217   3.919  20.399 -0.5455  0.6003 -0.2169
  156SAPE  H15X17433   5.286   3.935  20.484  0.2634 -1.5684 -0.3978
  156SAPE  H15Y17434   5.119   3.970  20.408 -1.5923 -1.3631  0.1608
  156SAPE  C31617435   5.276   3.948  20.257  0.3447 -0.4559  0.1225
  156SAPE  H16X17436   5.205   3.913  20.180 -2.6076  1.3215  1.8338
  156SAPE  H16Y17437   5.369   3.890  20.237 -0.0726 -0.8984 -0.5482
  156SAPE  C31717438   5.306   4.099  20.251  0.2875  0.2098 -0.1956
  156SAPE  H17X17439   5.408   4.112  20.208  0.1625  1.6807 -0.1055
  156SAPE  H17Y17440   5.309   4.136  20.356  1.6969  0.5500 -0.3354
  156SAPE  C31817441   5.208   4.180  20.162  0.0384  0.4846 -0.6840
  156SAPE  H18X17442   5.239   4.287  20.171  0.0605  0.6794 -2.7458
  156SAPE  H18Y17443   5.109   4.158  20.207  0.2416 -1.4138 -1.1147
  156SAPE  H18Z17444   5.208   4.156  20.054 -1.2273  0.4154 -0.6849
  157SAPE     N17445   1.417   3.000  15.455  0.7731 -0.0521  0.7368
  157SAPE   HN117446   1.320   2.998  15.493 -0.1071 -0.3870 -1.4091
  157SAPE   HN217447   1.460   3.093  15.473 -0.7458  0.8081  0.0989
  157SAPE   HN317448   1.415   2.994  15.351  2.1805  1.9116  0.5343
  157SAPE   C1217449   1.504   2.892  15.518  0.9956 -0.1906 -0.3301
  157SAPE  H12A17450   1.603   2.890  15.468  0.4686  0.3589 -1.4341
  157SAPE  H12B17451   1.447   2.800  15.495  2.5476 -1.0977 -0.7069
  157SAPE   C1117452   1.508   2.892  15.676 -0.8472 -0.2181 -0.2506
  157SAPE  H11A17453   1.564   2.805  15.717  0.7004  0.7923 -0.1732
  157SAPE  H11B17454   1.412   2.870  15.728  0.0907 -2.3926  0.6858
  157SAPE     P17455   1.730   3.033  15.719 -0.0319  0.5172 -0.2116
  157SAPE   O1317456   1.795   2.899  15.701 -1.0291 -0.3978 -0.2452
  157SAPE   O1417457   1.757   3.139  15.623 -0.0702 -0.5319 -0.0247
  157SAPE   O1217458   1.570   3.015  15.728 -0.0418  0.2117  0.0236
  157SAPE   O1117459   1.771   3.089  15.862 -0.0914  0.8394 -0.1749
  157SAPE    C117460   1.729   3.222  15.895  0.3812 -0.5342  0.2082
  157SAPE    HA17461   1.809   3.298  15.880  1.1843 -1.7162 -1.7202
  157SAPE    HB17462   1.648   3.266  15.833 -0.5964 -0.7901  1.2547
  157SAPE    C217463   1.674   3.234  16.043 -0.0528 -0.5624 -0.3551
  157SAPE    HS17464   1.641   3.339  16.052  2.9556  0.4015  0.7099
  157SAPE   O2117465   1.779   3.203  16.135  0.1049  0.5646 -0.6970
  157SAPE   C2117466   1.866   3.296  16.161  0.7087  0.5581  0.4760
  157SAPE   O2217467   1.874   3.403  16.105  0.4725 -1.0270  0.2718
  157SAPE   C2217468   1.939   3.263  16.292  0.4858 -0.1929 -0.2854
  157SAPE   H2R17469   1.911   3.346  16.361  0.3398 -0.2960 -0.2217
  157SAPE   H2S17470   1.898   3.166  16.329  2.8900 -1.1581  0.0103
  157SAPE    C317471   1.553   3.142  16.065 -0.3353 -0.2179 -0.6320
  157SAPE    HX17472   1.596   3.040  16.054  0.9700  0.3106 -0.5540
  157SAPE    HY17473   1.483   3.143  15.978 -0.1988 -0.3553 -0.7436
  157SAPE   O3117474   1.473   3.165  16.180 -0.8901 -0.0876 -0.7319
  157SAPE   C3117475   1.506   3.094  16.288 -0.2731 -0.6586  0.2259
  157SAPE   O3217476   1.576   2.994  16.293  0.2120  0.1013 -0.3606
  157SAPE   C3217477   1.440   3.164  16.406  0.1243  1.0517  0.3159
  157SAPE   H2X17478   1.396   3.081  16.466 -0.5207  2.5624  1.9909
  157SAPE   H2Y17479   1.355   3.223  16.366 -0.3558  0.3603  0.2820
  157SAPE   C2317480   2.085   3.250  16.279  0.0154  0.1212  0.5669
  157SAPE   H3R17481   2.118   3.342  16.226 -2.0333 -0.5221 -2.0027
  157SAPE   H3S17482   2.116   3.165  16.213  0.2701 -1.9041  3.1234
  157SAPE   C2417483   2.153   3.228  16.415  0.1104  0.2466 -0.2076
  157SAPE   H4R17484   2.134   3.124  16.449 -0.4383 -0.1239 -1.6126
  157SAPE   H4S17485   2.104   3.295  16.489 -0.2740 -0.1595 -0.0961
  157SAPE   C2517486   2.303   3.248  16.398 -0.1838  0.9428 -0.8665
  157SAPE   H5R17487   2.335   3.351  16.424 -0.3179  0.3961  1.7869
  157SAPE   C2617488   2.399   3.150  16.401  0.6045  0.5714 -0.2537
  157SAPE   H6R17489   2.501   3.186  16.379  1.8705 -2.2268  0.6765
  157SAPE   C2717490   2.378   3.006  16.407 -0.0244 -0.0662  0.1148
  157SAPE   H7R17491   2.278   2.979  16.446  1.0315 -2.4034  1.4336
  157SAPE   H7S17492   2.451   2.955  16.473  0.0251  1.5670  1.3629
  157SAPE   C2817493   2.402   2.959  16.257 -0.1202 -0.4353  0.1813
  157SAPE   H8R17494   2.322   2.995  16.191  1.5897 -1.3422 -2.5610
  157SAPE   C2917495   2.481   2.862  16.204  0.4270 -0.3668 -0.0598
  157SAPE   H9R17496   2.472   2.839  16.097 -0.9948  0.4573 -0.1489
  157SAPE  C21017497   2.597   2.796  16.283  0.2875 -0.0287  0.5844
  157SAPE  H10R17498   2.631   2.699  16.241 -1.9048 -0.2667 -0.8219
  157SAPE  H10S17499   2.568   2.787  16.390 -0.4314  0.0530  0.4045
  157SAPE  C21117500   2.724   2.882  16.267  0.4279 -0.6254  0.0083
  157SAPE  H11R17501   2.752   2.910  16.165  0.2480  1.3799  0.4735
  157SAPE  C21217502   2.793   2.939  16.366 -0.0817 -0.2293 -0.9470
  157SAPE  H12R17503   2.883   2.996  16.342 -0.0541  0.4522  0.6320
  157SAPE  C21317504   2.770   2.912  16.513  0.3171  0.1433 -0.0329
  157SAPE  H13R17505   2.720   2.815  16.533  0.3987  0.4022  1.6058
  157SAPE  H13S17506   2.716   2.995  16.563 -1.2796 -0.9482  0.1058
  157SAPE  C21417507   2.905   2.896  16.586 -0.1812  0.2774  0.4018
  157SAPE  H14R17508   2.977   2.828  16.539 -1.7678 -0.1373 -1.5419
  157SAPE  C21517509   2.947   2.935  16.710 -0.3384 -0.6462 -0.0167
  157SAPE  H15R17510   3.048   2.911  16.746  0.0359  1.6404  0.6311
  157SAPE  C21617511   2.867   3.025  16.798 -0.2014 -0.2526  0.1938
  157SAPE  H16R17512   2.760   2.998  16.802  0.6840 -4.2149  1.7211
  157SAPE  H16S17513   2.879   3.132  16.769  0.6286 -0.0734  1.1262
  157SAPE  C21717514   2.926   3.012  16.945 -0.2001  0.2694  0.9229
  157SAPE  H17R17515   2.987   3.103  16.966 -0.5556  0.1730  2.5679
  157SAPE  H17S17516   2.992   2.924  16.961  2.4575  1.5806 -1.7841
  157SAPE  C21817517   2.806   3.032  17.045  0.3020 -0.0932 -0.0346
  157SAPE  H18R17518   2.813   3.004  17.153  0.2941  0.6304  0.1628
  157SAPE  H18S17519   2.731   2.963  17.001 -1.8519  1.2506  1.3281
  157SAPE  C21917520   2.764   3.176  17.050 -0.3458 -0.1099  0.2157
  157SAPE  H19R17521   2.762   3.212  16.945  2.1257 -2.4830 -0.7676
  157SAPE  H19S17522   2.835   3.243  17.104 -0.5966 -0.0525  0.4776
  157SAPE  C22017523   2.628   3.203  17.125 -0.0522 -0.5475  0.4213
  157SAPE  H20R17524   2.629   3.136  17.214  0.9271 -0.0782  0.7694
  157SAPE  H20S17525   2.537   3.163  17.075  1.0614 -0.5349 -1.7423
  157SAPE  H20T17526   2.621   3.307  17.163 -0.6214 -0.1992 -0.6049
  157SAPE   C3317527   1.547   3.232  16.491  0.0885  0.2788 -0.6849
  157SAPE   H3X17528   1.633   3.166  16.513 -0.4915  0.2955  2.0287
  157SAPE   H3Y17529   1.500   3.249  16.590 -0.4021 -0.5574 -0.7607
  157SAPE   C3417530   1.591   3.362  16.437 -0.1507 -0.4960 -0.2091
  157SAPE   H4X17531   1.505   3.419  16.396 -0.2843 -0.8479 -0.4163
  157SAPE   H4Y17532   1.668   3.342  16.359  0.4994 -0.9609  0.5378
  157SAPE   C3517533   1.672   3.454  16.533  0.1033 -0.4028  0.1646
  157SAPE   H5X17534   1.766   3.401  16.559  0.2613 -0.0257  0.3739
  157SAPE   H5Y17535   1.595   3.479  16.610 -2.4006 -2.7307 -1.3863
  157SAPE   C3617536   1.718   3.574  16.457 -0.4104 -0.0419 -0.8639
  157SAPE   H6X17537   1.641   3.608  16.385 -1.1101  1.6305  0.5999
  157SAPE   H6Y17538   1.813   3.543  16.409  1.2456  0.9605  1.5656
  157SAPE   C3717539   1.756   3.688  16.543  0.9477 -0.7972 -0.1125
  157SAPE   H7X17540   1.756   3.785  16.489 -2.4408 -1.0276 -0.7543
  157SAPE   H7Y17541   1.862   3.675  16.571  1.3035 -0.2896 -1.1810
  157SAPE   C3817542   1.672   3.713  16.675 -0.1854  0.0864 -0.0913
  157SAPE   H8X17543   1.659   3.616  16.728 -0.0811  0.5099  0.7222
  157SAPE   H8Y17544   1.574   3.754  16.641  0.5670  1.1052 -1.0746
  157SAPE   C3917545   1.740   3.810  16.774 -0.0905  0.9247 -0.2506
  157SAPE   H9X17546   1.786   3.897  16.722  3.0342 -0.0940  0.6124
  157SAPE   H9Y17547   1.834   3.759  16.803 -0.3287 -0.1632 -1.3430
  157SAPE  C31017548   1.644   3.843  16.884  0.4475 -0.1360  0.3596
  157SAPE  H10X17549   1.606   3.749  16.930 -0.0990  0.0375  0.2789
  157SAPE  H10Y17550   1.557   3.896  16.839  0.7913  0.1876  0.0709
  157SAPE  C31117551   1.699   3.933  16.994 -0.1225 -0.0202  0.2540
  157SAPE  H11X17552   1.723   4.030  16.946  0.1318 -0.5326 -0.6853
  157SAPE  H11Y17553   1.789   3.882  17.034  1.1101 -0.8856 -3.2542
  157SAPE  C31217554   1.607   3.939  17.106  0.6947  0.3221  0.6281
  157SAPE  H12X17555   1.603   3.837  17.151  0.1679 -0.4747 -1.1376
  157SAPE  H12Y17556   1.504   3.954  17.067  0.9598 -0.7912 -0.5875
  157SAPE  C31317557   1.634   4.043  17.223 -0.1268 -0.3875 -0.0510
  157SAPE  H13X17558   1.707   3.994  17.291 -1.5047 -0.2697  1.5864
  157SAPE  H13Y17559   1.536   4.029  17.273  0.1621 -2.0159  0.1121
  157SAPE  C31417560   1.681   4.190  17.199  0.5211  0.5782  0.6298
  157SAPE  H14X17561   1.759   4.181  17.121  0.8495  1.4149  0.8469
  157SAPE  H14Y17562   1.741   4.235  17.281  1.2589  1.6574 -0.4488
  157SAPE  C31517563   1.558   4.272  17.173  0.1728 -0.4070 -0.0318
  157SAPE  H15X17564   1.499   4.274  17.267 -2.1881  1.3353 -1.4452
  157SAPE  H15Y17565   1.489   4.233  17.095  1.5094  1.4049 -2.2616
  157SAPE  C31617566   1.579   4.422  17.142  0.0512  0.0521  0.5282
  157SAPE  H16X17567   1.644   4.463  17.221  1.1306 -0.7659  0.0844
  157SAPE  H16Y17568   1.483   4.476  17.157 -0.8672 -1.2656 -0.3773
  157SAPE  C31717569   1.635   4.440  17.004  0.6293 -0.2840 -0.8301
  157SAPE  H17X17570   1.559   4.410  16.929  0.4283 -3.2350  0.4096
  157SAPE  H17Y17571   1.721   4.372  16.989  2.1604  1.0169  1.5327
  157SAPE  C31817572   1.664   4.584  16.959  0.7099 -0.8696  0.4527
  157SAPE  H18X17573   1.705   4.575  16.857 -0.8891 -1.5529 -0.1666
  157SAPE  H18Y17574   1.743   4.629  17.024  0.5198 -1.2921  0.9867
  157SAPE  H18Z17575   1.576   4.652  16.962  2.1396  1.0660  1.9950
  158SAPE     N17576   3.341   1.712  21.176 -0.1918 -0.8299  0.3616
  158SAPE   HN117577   3.332   1.720  21.279 -1.5470  0.9438  0.1662
  158SAPE   HN217578   3.396   1.794  21.143  1.4298 -2.6302 -1.6765
  158SAPE   HN317579   3.246   1.727  21.136  0.1708 -0.9287 -0.5593
  158SAPE   C1217580   3.402   1.589  21.126 -0.1916  0.0514 -0.4916
  158SAPE  H12A17581   3.487   1.604  21.056  0.7109  0.6136  0.6775
  158SAPE  H12B17582   3.329   1.533  21.065  0.3610  0.9330 -2.0108
  158SAPE   C1117583   3.460   1.521  21.248  0.4852  0.9637  0.2928
  158SAPE  H11A17584   3.501   1.419  21.233 -0.2026  0.5346  1.2042
  158SAPE  H11B17585   3.381   1.508  21.325  0.0618 -1.9023 -0.4915
  158SAPE     P17586   3.715   1.601  21.283  0.5157  0.1659  0.0882
  158SAPE   O1317587   3.748   1.634  21.141  0.6313 -0.2093 -0.2226
  158SAPE   O1417588   3.781   1.684  21.385  0.2803 -0.4506 -0.2842
  158SAPE   O1217589   3.560   1.608  21.298  0.2689  0.1970 -0.3304
  158SAPE   O1117590   3.759   1.454  21.310 -0.0735  0.4276 -0.4006
  158SAPE    C117591   3.786   1.369  21.199  0.3416 -0.0997  0.2579
  158SAPE    HA17592   3.691   1.359  21.142  0.7480 -1.0869 -0.2772
  158SAPE    HB17593   3.866   1.412  21.135 -1.2368  2.0799 -0.3810
  158SAPE    C217594   3.827   1.230  21.249 -0.3154  0.4290  0.2846
  158SAPE    HS17595   3.865   1.171  21.163 -0.4707  0.7500 -0.0049
  158SAPE   O2117596   3.711   1.168  21.305  0.5185 -0.1398  0.4318
  158SAPE   C2117597   3.709   1.034  21.296  0.1869 -0.2224 -0.0340
  158SAPE   O2217598   3.804   0.969  21.251 -0.4201 -0.2172  0.9109
  158SAPE   C2217599   3.575   0.977  21.339  0.6199  0.1775 -0.0195
  158SAPE   H2R17600   3.500   1.057  21.357 -1.1783 -1.6628  1.0661
  158SAPE   H2S17601   3.534   0.925  21.250 -1.2296  0.8587  0.3814
  158SAPE    C317602   3.942   1.235  21.357  0.1591  0.1800 -0.5310
  158SAPE    HX17603   3.901   1.292  21.443  0.1611 -2.6689  1.5082
  158SAPE    HY17604   4.027   1.301  21.327  1.8644 -1.3009  0.8328
  158SAPE   O3117605   3.983   1.110  21.405 -0.1577  0.5612  0.8061
  158SAPE   C3117606   4.076   1.050  21.332 -0.6202 -0.1925 -0.1870
  158SAPE   O3217607   4.118   1.102  21.234  0.2629 -0.6698  0.3667
  158SAPE   C3217608   4.115   0.915  21.386 -0.2204 -0.2720 -0.2123
  158SAPE   H2X17609   4.210   0.883  21.338 -0.5124  1.0030 -1.7344
  158SAPE   H2Y17610   4.024   0.853  21.370  0.2790 -1.1164  0.1447
  158SAPE   C2317611   3.597   0.889  21.462 -0.2704  0.0014  0.0075
  158SAPE   H3R17612   3.645   0.950  21.541  0.3256  1.7547 -1.6373
  158SAPE   H3S17613   3.670   0.809  21.437  0.5962  0.4643  1.0128
  158SAPE   C2417614   3.473   0.805  21.498 -0.2382  0.0626  0.0401
  158SAPE   H4R17615   3.379   0.863  21.515  1.4539  3.0059  0.0511
  158SAPE   H4S17616   3.493   0.747  21.590 -2.6712  0.9701  1.2267
  158SAPE   C2517617   3.438   0.708  21.387  0.3363  0.8437  0.4751
  158SAPE   H5R17618   3.393   0.759  21.300 -0.4371  1.8014  1.4066
  158SAPE   C2617619   3.426   0.569  21.403 -0.0019 -1.1362 -0.6830
  158SAPE   H6R17620   3.411   0.516  21.308  0.3164  0.3832 -1.6093
  158SAPE   C2717621   3.477   0.486  21.523  0.1933 -0.1304 -0.3441
  158SAPE   H7R17622   3.410   0.483  21.612 -0.2914 -0.9287 -0.7348
  158SAPE   H7S17623   3.574   0.525  21.562  2.0581 -3.0018 -1.7434
  158SAPE   C2817624   3.505   0.341  21.500 -0.8579  0.4890  0.2792
  158SAPE   H8R17625   3.425   0.287  21.447 -0.3758  0.7295 -0.7038
  158SAPE   C2917626   3.608   0.269  21.544 -0.3544  0.3398 -0.4944
  158SAPE   H9R17627   3.617   0.163  21.518  2.3967  0.5043 -0.5244
  158SAPE  C21017628   3.722   0.311  21.646  0.2328  0.5289 -0.0262
  158SAPE  H10R17629   3.679   0.298  21.747 -0.2874 -1.1034 -0.4243
  158SAPE  H10S17630   3.758   0.414  21.631 -1.1746  0.9909 -0.4615
  158SAPE  C21117631   3.832   0.202  21.640 -0.4364 -1.3395  0.5283
  158SAPE  H11R17632   3.805   0.099  21.666 -0.1251 -1.3077  0.9874
  158SAPE  C21217633   3.964   0.230  21.619 -0.6159  0.6590  0.5507
  158SAPE  H12R17634   4.033   0.145  21.632 -0.5098  0.5020 -0.8882
  158SAPE  C21317635   4.039   0.356  21.581  0.0156 -0.6451  0.4315
  158SAPE  H13R17636   3.968   0.432  21.541  0.4027 -0.9091 -0.8141
  158SAPE  H13S17637   4.120   0.341  21.507 -0.2599  1.4476 -0.3632
  158SAPE  C21417638   4.107   0.402  21.709  0.2236  0.0768 -0.5372
  158SAPE  H14R17639   4.068   0.353  21.799  0.9881  0.4730  0.0201
  158SAPE  C21517640   4.217   0.485  21.721 -0.6285  0.0858 -0.8510
  158SAPE  H15R17641   4.254   0.511  21.821  0.7087 -2.6713 -0.5322
  158SAPE  C21617642   4.296   0.550  21.612 -0.0968 -0.5574  0.0295
  158SAPE  H16R17643   4.321   0.656  21.633  1.0218 -0.9756  0.8779
  158SAPE  H16S17644   4.245   0.551  21.513 -1.6104 -0.5575  0.7794
  158SAPE  C21717645   4.426   0.469  21.597  0.4761  0.2554 -0.1679
  158SAPE  H17R17646   4.476   0.465  21.696  0.4420 -0.2782 -0.1668
  158SAPE  H17S17647   4.490   0.521  21.522 -0.9875 -1.5327 -2.8407
  158SAPE  C21817648   4.423   0.327  21.532  0.2965  0.5585  0.2458
  158SAPE  H18R17649   4.354   0.327  21.444  0.5437  0.0141  0.0516
  158SAPE  H18S17650   4.372   0.251  21.595 -1.6372 -0.5167 -2.4177
  158SAPE  C21917651   4.556   0.281  21.485 -0.0556 -0.1941 -0.0327
  158SAPE  H19R17652   4.625   0.284  21.572  1.8764  0.7609 -1.5270
  158SAPE  H19S17653   4.595   0.362  21.420 -0.1978 -0.2439 -0.1790
  158SAPE  C22017654   4.566   0.147  21.412 -0.0845  0.0968 -0.2493
  158SAPE  H20R17655   4.546   0.064  21.482 -0.6967  1.4885  1.2775
  158SAPE  H20S17656   4.670   0.127  21.377  0.5393  1.2309  0.8756
  158SAPE  H20T17657   4.489   0.154  21.332 -0.6394 -1.1834  0.1534
  158SAPE   C3317658   4.128   0.923  21.545 -0.0139 -0.7243  0.1241
  158SAPE   H3X17659   4.104   1.025  21.581  1.2214 -0.4177  0.1273
  158SAPE   H3Y17660   4.233   0.915  21.580 -0.2433  1.7689  1.6163
  158SAPE   C3417661   4.056   0.801  21.614 -0.3331 -0.2991 -0.3024
  158SAPE   H4X17662   4.104   0.782  21.713  1.1903 -2.8687 -1.4337
  158SAPE   H4Y17663   4.070   0.712  21.550 -0.3792 -0.4658 -0.0780
  158SAPE   C3517664   3.911   0.833  21.638 -0.2563 -0.6507  0.1816
  158SAPE   H5X17665   3.871   0.878  21.544  0.4783 -0.6004 -0.1127
  158SAPE   H5Y17666   3.898   0.916  21.709  1.2992  2.4280 -2.8364
  158SAPE   C3617667   3.815   0.724  21.681  0.3690  0.3198  1.6153
  158SAPE   H6X17668   3.825   0.635  21.616 -0.1849  0.5575  1.1953
  158SAPE   H6Y17669   3.712   0.765  21.690 -0.4050 -1.2136  0.2518
  158SAPE   C3717670   3.875   0.684  21.817 -0.3739 -0.7640 -0.4549
  158SAPE   H7X17671   3.983   0.660  21.817 -0.1064  0.0692  2.5104
  158SAPE   H7Y17672   3.876   0.766  21.891 -1.1079 -2.0882  1.0729
  158SAPE   C3817673   3.807   0.571  21.899 -0.2464  0.2409 -0.1759
  158SAPE   H8X17674   3.848   0.573  22.002  1.2280 -1.3389 -0.6885
  158SAPE   H8Y17675   3.845   0.483  21.843  2.0995  0.5338  0.8316
  158SAPE   C3917676   3.653   0.587  21.903  0.4544 -0.1451 -0.5518
  158SAPE   H9X17677   3.607   0.576  21.803  1.3438  2.0031 -1.2504
  158SAPE   H9Y17678   3.622   0.688  21.938 -2.7093 -1.4889  0.9213
  158SAPE  C31017679   3.580   0.495  22.004 -0.4353  0.0184  0.4265
  158SAPE  H10X17680   3.611   0.515  22.109  0.2386  1.8197 -0.0794
  158SAPE  H10Y17681   3.621   0.393  21.990  0.7617  0.6099 -0.4571
  158SAPE  C31117682   3.431   0.487  21.990 -0.3740  0.5765 -0.1491
  158SAPE  H11X17683   3.404   0.469  21.884  0.7405  1.7969 -0.6669
  158SAPE  H11Y17684   3.393   0.589  22.016  1.3592  0.5992  2.6854
  158SAPE  C31217685   3.361   0.399  22.094  0.5176  0.9307  1.0464
  158SAPE  H12X17686   3.429   0.323  22.139  0.7383  1.1258  1.0440
  158SAPE  H12Y17687   3.273   0.351  22.047  0.5017 -0.2361  2.2174
  158SAPE  C31317688   3.296   0.466  22.220 -0.3956  0.0299  0.2670
  158SAPE  H13X17689   3.199   0.498  22.176  0.6706  1.7943 -0.9122
  158SAPE  H13Y17690   3.365   0.550  22.244 -0.2247  0.3203 -1.1189
  158SAPE  C31417691   3.268   0.383  22.347 -0.1304  0.0574 -0.3959
  158SAPE  H14X17692   3.191   0.307  22.323  1.8264 -1.6121 -1.7448
  158SAPE  H14Y17693   3.221   0.447  22.425  0.5693 -0.8968  0.8538
  158SAPE  C31517694   3.384   0.321  22.427  0.6831  0.1036  0.4619
  158SAPE  H15X17695   3.455   0.396  22.469  2.0758 -1.3409  0.7979
  158SAPE  H15Y17696   3.444   0.252  22.365 -2.4358 -3.7488  1.2909
  158SAPE  C31617697   3.332   0.227  22.540 -0.2748 -0.3771  0.4579
  158SAPE  H16X17698   3.280   0.140  22.494  2.7274 -0.5313 -3.1708
  158SAPE  H16Y17699   3.265   0.283  22.608  1.0601  2.6193 -0.5139
  158SAPE  C31717700   3.443   0.185  22.638  0.1803  0.4898  0.0304
  158SAPE  H17X17701   3.395   0.122  22.716  0.9688  0.6700  0.6825
  158SAPE  H17Y17702   3.497   0.273  22.680 -1.9286  1.5896  0.5329
  158SAPE  C31817703   3.558   0.100  22.574 -1.1175 -0.1629  0.4823
  158SAPE  H18X17704   3.517  -0.001  22.556 -0.2035 -0.5591  0.5264
  158SAPE  H18Y17705   3.642   0.096  22.647 -2.3502  2.1442  2.1338
  158SAPE  H18Z17706   3.600   0.143  22.480 -1.5804 -0.1278  0.2912
  159SAPE     N17707   4.048   0.852  15.507 -0.5988  0.0464 -0.4751
  159SAPE   HN117708   3.961   0.812  15.465 -0.2458 -0.4404 -0.7614
  159SAPE   HN217709   4.040   0.954  15.490  0.6068  0.8225  2.8632
  159SAPE   HN317710   4.132   0.811  15.461 -0.3698  1.8079 -1.7178
  159SAPE   C1217711   4.061   0.824  15.658  0.3905 -0.5436  0.0657
  159SAPE  H12A17712   4.070   0.714  15.669 -1.4592 -1.1772 -3.3668
  159SAPE  H12B17713   3.968   0.856  15.710 -1.0001 -3.1471 -0.6511
  159SAPE   C1117714   4.179   0.893  15.727  0.8393 -0.1912 -0.4934
  159SAPE  H11A17715   4.171   0.879  15.837  0.2889  1.1362 -0.3473
  159SAPE  H11B17716   4.177   1.002  15.705  3.1422 -0.2711 -1.3429
  159SAPE     P17717   4.434   0.885  15.714 -0.0862 -0.2410 -0.1438
  159SAPE   O1317718   4.502   0.918  15.587 -0.6556 -0.9793 -0.2564
  159SAPE   O1417719   4.431   0.991  15.813  0.9039 -0.2054  0.4208
  159SAPE   O1217720   4.297   0.838  15.675  0.3895  0.0804 -0.0851
  159SAPE   O1117721   4.492   0.752  15.775  0.2969 -0.2366 -0.7583
  159SAPE    C117722   4.421   0.672  15.872 -0.0587 -0.2927  0.4541
  159SAPE    HA17723   4.314   0.701  15.867 -0.1776 -0.8915 -0.5011
  159SAPE    HB17724   4.428   0.563  15.856  1.6819 -0.3008  0.9819
  159SAPE    C217725   4.468   0.708  16.018 -0.2642 -0.3152  0.9887
  159SAPE    HS17726   4.484   0.816  16.039 -0.9649 -0.5337  2.7842
  159SAPE   O2117727   4.585   0.632  16.042  0.3859  0.5523 -0.5222
  159SAPE   C2117728   4.703   0.685  15.998  0.0983  0.4815  0.6966
  159SAPE   O2217729   4.724   0.792  15.945 -0.6019  0.0371 -0.3295
  159SAPE   C2217730   4.818   0.584  16.021 -0.0810  0.0549  0.3454
  159SAPE   H2R17731   4.839   0.557  15.916 -0.7521  1.4560 -0.1774
  159SAPE   H2S17732   4.912   0.631  16.057 -0.8000  0.8910  1.2046
  159SAPE    C317733   4.357   0.681  16.125  0.2664 -0.0787 -0.1092
  159SAPE    HX17734   4.282   0.762  16.115  0.5637  0.1568 -0.4762
  159SAPE    HY17735   4.395   0.689  16.229  2.0314  0.6391 -0.7718
  159SAPE   O3117736   4.302   0.549  16.111 -0.4079 -0.3962  0.5933
  159SAPE   C3117737   4.174   0.523  16.077  0.1174  0.3837 -0.9598
  159SAPE   O3217738   4.089   0.606  16.057 -0.4293 -0.3818 -0.3635
  159SAPE   C3217739   4.154   0.370  16.053  0.6495 -0.2310  0.4161
  159SAPE   H2X17740   4.221   0.352  15.966 -0.7817  0.0073 -0.7755
  159SAPE   H2Y17741   4.050   0.345  16.021  0.0608  2.0610  0.3915
  159SAPE   C2317742   4.786   0.457  16.105  0.0011  0.3360  0.2726
  159SAPE   H3R17743   4.706   0.402  16.052  0.3723  0.4245 -0.3881
  159SAPE   H3S17744   4.757   0.489  16.208 -1.7382  2.1641 -0.7157
  159SAPE   C2417745   4.891   0.351  16.097 -0.1929  0.2061  0.2037
  159SAPE   H4R17746   4.911   0.329  15.990 -1.8294  1.5190 -0.4316
  159SAPE   H4S17747   4.865   0.254  16.144  2.0972 -1.0303 -0.9009
  159SAPE   C2517748   5.019   0.393  16.158  0.3083  0.3089  0.4211
  159SAPE   H5R17749   5.079   0.448  16.085  2.5872 -2.8694 -0.3296
  159SAPE   C2617750   5.063   0.363  16.278  0.1149 -0.7316  0.8141
  159SAPE   H6R17751   5.161   0.400  16.312  0.7579 -1.2665 -0.3727
  159SAPE   C2717752   4.978   0.306  16.387 -0.2898 -0.0820  0.2015
  159SAPE   H7R17753   4.921   0.217  16.352  1.0333 -1.6298  1.7568
  159SAPE   H7S17754   4.898   0.378  16.415 -1.1198 -1.0442  0.3516
  159SAPE   C2817755   5.043   0.267  16.518  0.2493 -0.0971 -0.7548
  159SAPE   H8R17756   5.140   0.215  16.517 -0.6968 -2.1254  1.8465
  159SAPE   C2917757   5.009   0.287  16.646  0.5416  1.1386  0.8356
  159SAPE   H9R17758   5.084   0.256  16.721  1.2770  1.0347  0.0754
  159SAPE  C21017759   4.877   0.345  16.699 -0.2324 -0.6948  0.4197
  159SAPE  H10R17760   4.785   0.298  16.659 -0.3941  0.3913 -0.5282
  159SAPE  H10S17761   4.875   0.448  16.657 -1.1839  1.1733  4.5249
  159SAPE  C21117762   4.876   0.353  16.851 -0.7853 -0.1796  0.2014
  159SAPE  H11R17763   4.970   0.393  16.892 -1.2508  0.9157  0.2113
  159SAPE  C21217764   4.791   0.301  16.945  0.3672 -0.3898  1.1231
  159SAPE  H12R17765   4.824   0.307  17.050 -1.2419  0.4461  1.6046
  159SAPE  C21317766   4.655   0.244  16.922 -0.6284  0.1100  0.4456
  159SAPE  H13R17767   4.631   0.261  16.815  0.6394  0.4291  0.1949
  159SAPE  H13S17768   4.575   0.291  16.982 -1.4357  2.3425 -2.1539
  159SAPE  C21417769   4.670   0.091  16.936 -0.5880  0.0436  0.2342
  159SAPE  H14R17770   4.753   0.046  16.880 -2.3529 -1.2190 -1.4912
  159SAPE  C21517771   4.590   0.005  16.999  0.4624  0.6782 -0.0251
  159SAPE  H15R17772   4.617  -0.100  16.978  0.9575  0.6748  0.5716
  159SAPE  C21617773   4.468   0.030  17.086  0.4633  0.1707  0.3418
  159SAPE  H16R17774   4.390  -0.049  17.083 -1.2268  1.7389  1.1175
  159SAPE  H16S17775   4.412   0.114  17.039  1.2871 -0.4122 -1.8423
  159SAPE  C21717776   4.496   0.054  17.245 -0.7338  0.1654 -0.5962
  159SAPE  H17R17777   4.409   0.050  17.313  0.0836 -0.8020  0.4333
  159SAPE  H17S17778   4.547   0.153  17.251 -1.7275  0.6546 -0.0528
  159SAPE  C21817779   4.590  -0.066  17.281 -0.3887 -0.1528 -1.1358
  159SAPE  H18R17780   4.687  -0.039  17.235  0.5058  2.8858  2.0721
  159SAPE  H18S17781   4.557  -0.161  17.235 -2.4553  0.7540 -1.6848
  159SAPE  C21917782   4.610  -0.074  17.439  0.1027  0.7186 -0.4167
  159SAPE  H19R17783   4.635   0.033  17.455 -2.2347  1.2098  0.2184
  159SAPE  H19S17784   4.701  -0.131  17.469 -0.9410 -0.1545  1.2339
  159SAPE  C22017785   4.492  -0.128  17.518  0.2353 -0.2636  0.4245
  159SAPE  H20R17786   4.511  -0.136  17.627 -1.3231 -1.4444  0.6455
  159SAPE  H20S17787   4.482  -0.233  17.482  1.1427 -0.5456  0.9731
  159SAPE  H20T17788   4.396  -0.081  17.488 -0.7508 -1.9089  0.8226
  159SAPE   C3317789   4.198   0.280  16.163 -0.7252  0.6839  0.1256
  159SAPE   H3X17790   4.106   0.270  16.225  0.6733 -2.1722  1.9920
  159SAPE   H3Y17791   4.290   0.324  16.207  0.7912 -0.4586 -1.7525
  159SAPE   C3417792   4.243   0.142  16.111 -0.2467  0.0087 -0.0232
  159SAPE   H4X17793   4.167   0.092  16.048 -0.6977  1.0776 -0.3514
  159SAPE   H4Y17794   4.246   0.070  16.196 -2.4246 -0.2657 -0.1321
  159SAPE   C3517795   4.375   0.144  16.029  0.1614 -0.0398 -0.2951
  159SAPE   H5X17796   4.383   0.232  15.960 -2.7370 -2.0462 -3.5008
  159SAPE   H5Y17797   4.387   0.061  15.956 -0.1944 -0.0898 -0.2962
  159SAPE   C3617798   4.506   0.158  16.110  0.2740  0.2499 -0.4076
  159SAPE   H6X17799   4.497   0.241  16.184 -1.3422  1.3360 -1.7383
  159SAPE   H6Y17800   4.595   0.196  16.055  0.0793  2.3882  0.6563
  159SAPE   C3717801   4.553   0.033  16.190  0.2844 -0.4997  0.5006
  159SAPE   H7X17802   4.607  -0.042  16.129 -1.2258 -0.2007 -1.2910
  159SAPE   H7Y17803   4.466  -0.004  16.249  0.2476  0.9392  1.3937
  159SAPE   C3817804   4.661   0.076  16.299  0.1967  0.3790  0.2322
  159SAPE   H8X17805   4.633   0.172  16.349 -1.1553 -1.3288  3.0001
  159SAPE   H8Y17806   4.762   0.077  16.251  0.2896 -2.8933  0.1594
  159SAPE   C3917807   4.665  -0.037  16.406  0.9682 -0.2353 -0.0854
  159SAPE   H9X17808   4.665  -0.137  16.357  1.0567  0.4887 -1.6453
  159SAPE   H9Y17809   4.573  -0.020  16.465  0.6775  0.0302 -0.6033
  159SAPE  C31017810   4.788  -0.026  16.497 -0.6187  0.5018  0.7707
  159SAPE  H10X17811   4.804   0.074  16.543 -0.6765  1.4841 -1.2549
  159SAPE  H10Y17812   4.881  -0.036  16.437 -0.1745  1.0943  1.3482
  159SAPE  C31117813   4.780  -0.142  16.596 -0.2227 -1.1547  0.5078
  159SAPE  H11X17814   4.771  -0.235  16.536  1.5462 -1.7275  1.0860
  159SAPE  H11Y17815   4.687  -0.134  16.657 -0.3672  1.6902  0.0464
  159SAPE  C31217816   4.902  -0.159  16.686  0.1274 -0.3636  0.7728
  159SAPE  H12X17817   4.926  -0.077  16.756 -1.0593  0.5352  0.1564
  159SAPE  H12Y17818   4.991  -0.170  16.620  0.1536  0.4099  0.6733
  159SAPE  C31317819   4.884  -0.281  16.777 -0.2769 -0.3770 -0.1471
  159SAPE  H13X17820   4.883  -0.377  16.722  2.3766 -0.5534 -0.0523
  159SAPE  H13Y17821   4.791  -0.286  16.837 -1.0252 -3.1854 -1.3719
  159SAPE  C31417822   5.004  -0.302  16.867  0.9419  0.4239 -0.3526
  159SAPE  H14X17823   4.981  -0.372  16.949  0.4238 -0.6611 -1.3980
  159SAPE  H14Y17824   5.023  -0.203  16.914  2.5353 -0.0108 -0.0079
  159SAPE  C31517825   5.122  -0.366  16.794  0.3268 -0.8475  0.8136
  159SAPE  H15X17826   5.161  -0.301  16.712  0.0264 -1.6723 -0.0031
  159SAPE  H15Y17827   5.084  -0.457  16.744 -1.2208 -0.5998  1.4962
  159SAPE  C31617828   5.237  -0.397  16.883  0.1368  0.2256 -0.2307
  159SAPE  H16X17829   5.202  -0.461  16.967 -1.1667 -1.9645 -2.3097
  159SAPE  H16Y17830   5.280  -0.305  16.928 -0.1781  0.4478 -0.3762
  159SAPE  C31717831   5.353  -0.486  16.824  0.2253 -0.1978  0.1380
  159SAPE  H17X17832   5.306  -0.583  16.796  0.3520 -0.7466  1.7578
  159SAPE  H17Y17833   5.421  -0.490  16.911 -0.7868  0.4766  0.9899
  159SAPE  C31817834   5.405  -0.423  16.701  0.1701  0.4153  0.6683
  159SAPE  H18X17835   5.444  -0.319  16.707 -0.3395  0.5988  0.8160
  159SAPE  H18Y17836   5.337  -0.432  16.614 -0.3041  1.0772  0.9648
  159SAPE  H18Z17837   5.489  -0.487  16.666 -0.5687  0.7413 -1.9402
  160SAPE     N17838   0.900   2.317  20.812  0.1132  0.7877  0.2764
  160SAPE   HN117839   0.905   2.307  20.916  0.7547  0.4271  0.2169
  160SAPE   HN217840   0.914   2.225  20.767  0.5978  1.8743 -1.9074
  160SAPE   HN317841   0.984   2.370  20.783 -1.1326  1.5259 -2.2544
  160SAPE   C1217842   0.769   2.389  20.789 -0.3554  0.0377  0.8228
  160SAPE  H12A17843   0.779   2.440  20.690  1.4188  0.4236  1.1646
  160SAPE  H12B17844   0.773   2.479  20.853  1.1334  1.9866 -1.8131
  160SAPE   C1117845   0.655   2.289  20.806 -0.6417 -0.1847  0.0949
  160SAPE  H11A17846   0.555   2.337  20.799 -0.5589  0.0718  0.6742
  160SAPE  H11B17847   0.663   2.254  20.911 -1.2896 -2.4919 -0.5496
  160SAPE     P17848   0.586   2.170  20.590  0.2340 -0.1056  0.5703
  160SAPE   O1317849   0.656   2.086  20.494 -0.1990  0.4845  0.2285
  160SAPE   O1417850   0.455   2.135  20.634  0.5159  0.8912 -0.8871
  160SAPE   O1217851   0.681   2.180  20.719 -0.3397 -0.1816  0.3673
  160SAPE   O1117852   0.592   2.323  20.541  0.0238  0.2997 -0.0370
  160SAPE    C117853   0.492   2.383  20.444  0.0729 -0.5561 -0.0518
  160SAPE    HA17854   0.535   2.381  20.342  1.0248 -0.7509  0.3393
  160SAPE    HB17855   0.395   2.329  20.442  0.5315 -1.3758 -0.9883
  160SAPE    C217856   0.456   2.528  20.488  0.4741  0.4780  0.3108
  160SAPE    HS17857   0.390   2.573  20.411  0.3715 -0.5684 -0.2391
  160SAPE   O2117858   0.576   2.607  20.512 -0.1258 -0.1191  0.8242
  160SAPE   C2117859   0.629   2.648  20.394  0.4027  0.2881  0.0751
  160SAPE   O2217860   0.577   2.627  20.282  0.7546 -0.2604 -0.4601
  160SAPE   C2217861   0.762   2.729  20.406 -0.6159 -0.4765  0.7340
  160SAPE   H2R17862   0.756   2.786  20.501  0.0802  0.1064  0.4367
  160SAPE   H2S17863   0.850   2.661  20.414 -0.4545 -0.3368  0.1875
  160SAPE    C317864   0.369   2.530  20.610 -0.4487  0.5193  0.0199
  160SAPE    HX17865   0.434   2.500  20.696  0.3324 -0.9643 -1.0433
  160SAPE    HY17866   0.292   2.453  20.588  0.5940 -0.7028  0.5036
  160SAPE   O3117867   0.311   2.661  20.634  0.0174  0.3426 -0.0232
  160SAPE   C3117868   0.308   2.714  20.752 -0.4420  0.1488  0.2744
  160SAPE   O3217869   0.333   2.656  20.858  0.0346  0.3596 -0.2445
  160SAPE   C3217870   0.279   2.863  20.733 -0.1963 -0.6514 -0.2922
  160SAPE   H2X17871   0.173   2.868  20.701 -0.6340 -1.6841  0.9106
  160SAPE   H2Y17872   0.351   2.903  20.658  0.7058 -1.6386  0.0288
  160SAPE   C2317873   0.787   2.832  20.290  0.4724  0.3838  0.1780
  160SAPE   H3R17874   0.721   2.918  20.313 -0.9960 -1.2437  2.3454
  160SAPE   H3S17875   0.756   2.792  20.191 -1.4077 -0.5264  1.0923
  160SAPE   C2417876   0.930   2.885  20.289  0.3716 -0.1178 -0.7191
  160SAPE   H4R17877   0.954   2.907  20.395 -2.1345 -1.2197  0.1610
  160SAPE   H4S17878   0.939   2.982  20.235  0.7603 -0.1670 -0.7491
  160SAPE   C2517879   1.033   2.796  20.228 -0.5085  0.1396  0.6765
  160SAPE   H5R17880   1.007   2.733  20.142 -2.4455  0.3235  1.0817
  160SAPE   C2617881   1.159   2.787  20.272 -0.7867 -0.3527  0.7339
  160SAPE   H6R17882   1.242   2.745  20.214  1.5419  0.4341  3.3123
  160SAPE   C2717883   1.221   2.867  20.377 -0.7924 -0.0881  0.2786
  160SAPE   H7R17884   1.189   2.970  20.354 -0.2369  0.0643  0.1770
  160SAPE   H7S17885   1.329   2.853  20.354 -0.5168  0.4652  1.2174
  160SAPE   C2817886   1.187   2.841  20.517  0.2953  0.3497  0.0241
  160SAPE   H8R17887   1.218   2.739  20.543 -0.6566  0.2132  0.6836
  160SAPE   C2917888   1.156   2.920  20.608  0.6581 -0.2061  0.3427
  160SAPE   H9R17889   1.108   2.870  20.693  0.4543 -2.0378 -0.8153
  160SAPE  C21017890   1.112   3.066  20.596 -0.4421 -0.2504 -0.0433
  160SAPE  H10R17891   1.014   3.080  20.646 -1.1976 -0.3042 -1.4596
  160SAPE  H10S17892   1.101   3.107  20.494 -1.8568  0.2938  0.3020
  160SAPE  C21117893   1.210   3.161  20.671  0.7591  1.4305 -0.2858
  160SAPE  H11R17894   1.308   3.111  20.682 -1.1748 -2.6297  0.5391
  160SAPE  C21217895   1.183   3.275  20.737  0.1768  0.1245 -0.4061
  160SAPE  H12R17896   1.268   3.327  20.784 -0.7284 -0.2140  1.7604
  160SAPE  C21317897   1.053   3.350  20.739 -0.3506  0.1557  0.9545
  160SAPE  H13R17898   0.973   3.295  20.684  1.1373 -2.0721  0.8592
  160SAPE  H13S17899   1.067   3.441  20.678  0.0388 -0.9062 -0.6019
  160SAPE  C21417900   1.023   3.393  20.878  0.0341 -0.1915 -0.0823
  160SAPE  H14R17901   1.088   3.475  20.911  0.8084  0.2685 -2.5922
  160SAPE  C21517902   0.922   3.337  20.958  0.4228  0.6519  0.4555
  160SAPE  H15R17903   0.898   3.372  21.059  0.6694  0.1080  0.7070
  160SAPE  C21617904   0.842   3.217  20.906 -0.7213  0.1673  0.0288
  160SAPE  H16R17905   0.871   3.180  20.806 -0.7377  0.8648 -0.2407
  160SAPE  H16S17906   0.736   3.242  20.883  0.0373  2.3990 -1.3493
  160SAPE  C21717907   0.855   3.103  21.007  0.2343  0.9984 -0.6707
  160SAPE  H17R17908   0.829   3.131  21.112 -2.7797  2.1779 -1.6454
  160SAPE  H17S17909   0.956   3.057  21.000 -0.7681 -1.5099 -0.0181
  160SAPE  C21817910   0.755   2.997  20.964 -0.0432 -0.5065  0.0798
  160SAPE  H18R17911   0.784   2.962  20.863  0.5486  2.1783 -0.7727
  160SAPE  H18S17912   0.654   3.040  20.948  0.6350  1.0302 -0.2794
  160SAPE  C21917913   0.747   2.878  21.064 -0.0634  0.4480 -0.0488
  160SAPE  H19R17914   0.725   2.920  21.165 -0.9516  1.5299 -0.6718
  160SAPE  H19S17915   0.848   2.832  21.069 -0.2215 -0.0209 -0.8748
  160SAPE  C22017916   0.649   2.772  21.008 -0.2661 -0.1014 -0.2180
  160SAPE  H20R17917   0.663   2.759  20.898 -0.4261  1.0920 -0.3915
  160SAPE  H20S17918   0.549   2.797  21.047  0.7130  0.9830  1.7422
  160SAPE  H20T17919   0.659   2.674  21.060 -3.6535 -0.8691 -0.7611
  160SAPE   C3317920   0.291   2.925  20.884  0.1754 -1.7420  0.1865
  160SAPE   H3X17921   0.395   2.917  20.920  0.2640  0.9109  0.7509
  160SAPE   H3Y17922   0.238   2.870  20.965 -0.1809 -0.8175  0.6040
  160SAPE   C3417923   0.238   3.072  20.892  0.5994  0.3231 -0.2224
  160SAPE   H4X17924   0.268   3.112  20.992  0.2828 -0.1605  0.0676
  160SAPE   H4Y17925   0.128   3.070  20.881  0.7181  1.0968 -1.7836
  160SAPE   C3517926   0.286   3.165  20.785 -0.0885 -0.1546  0.2425
  160SAPE   H5X17927   0.253   3.129  20.686 -1.9465 -0.3699  0.9080
  160SAPE   H5Y17928   0.397   3.156  20.787 -0.0028  0.5094 -0.9113
  160SAPE   C3617929   0.235   3.319  20.776  0.3173  0.6923  0.5170
  160SAPE   H6X17930   0.124   3.312  20.779  0.3827 -0.3504  3.1003
  160SAPE   H6Y17931   0.260   3.351  20.673  3.5024 -2.3045  0.1544
  160SAPE   C3717932   0.314   3.405  20.871  0.1472 -0.3349  0.3960
  160SAPE   H7X17933   0.420   3.381  20.845 -0.6289 -0.7444 -2.9197
  160SAPE   H7Y17934   0.279   3.375  20.972 -2.1567  1.5920  0.2469
  160SAPE   C3817935   0.294   3.567  20.866  0.0287  0.0161 -0.3456
  160SAPE   H8X17936   0.310   3.601  20.762  0.5235  1.7268  0.2598
  160SAPE   H8Y17937   0.371   3.627  20.920  0.7670  0.2180 -1.5843
  160SAPE   C3917938   0.154   3.599  20.911 -0.1447  0.3874  0.1592
  160SAPE   H9X17939   0.129   3.559  21.012  1.3645 -0.9834  0.0249
  160SAPE   H9Y17940   0.083   3.547  20.843  0.7696 -0.0995 -0.4357
  160SAPE  C31017941   0.097   3.740  20.894 -0.0926  0.3738 -0.2726
  160SAPE  H10X17942   0.137   3.794  20.806 -0.5687 -0.4465 -1.0052
  160SAPE  H10Y17943   0.138   3.803  20.976 -1.5302 -1.9555  2.4590
  160SAPE  C31117944  -0.055   3.751  20.903  0.4106 -0.0783  0.2973
  160SAPE  H11X17945  -0.107   3.703  20.818  0.6096  1.0368 -0.4751
  160SAPE  H11Y17946  -0.082   3.859  20.897  0.1498 -0.1500  0.1799
  160SAPE  C31217947  -0.117   3.701  21.039  0.1183 -0.0543 -0.0130
  160SAPE  H12X17948  -0.068   3.752  21.125  1.4703 -1.0700 -0.1378
  160SAPE  H12Y17949  -0.088   3.594  21.039  1.9539  0.3528 -2.7129
  160SAPE  C31317950  -0.273   3.724  21.048  0.4344  0.5781  0.4118
  160SAPE  H13X17951  -0.312   3.679  21.142 -0.5133  2.2745  0.8682
  160SAPE  H13Y17952  -0.324   3.684  20.958  1.4438 -1.3392  0.6300
  160SAPE  C31417953  -0.312   3.875  21.063  0.2557 -0.1300  0.2321
  160SAPE  H14X17954  -0.321   3.931  20.968  1.5422  1.3421  0.9274
  160SAPE  H14Y17955  -0.229   3.917  21.123  1.4695  0.7261 -1.9312
  160SAPE  C31517956  -0.442   3.900  21.134 -0.1512  0.0047 -0.0253
  160SAPE  H15X17957  -0.441   3.845  21.231 -0.2905  2.7078  1.5937
  160SAPE  H15Y17958  -0.532   3.866  21.079  0.4122  0.7299 -1.4374
  160SAPE  C31617959  -0.475   4.051  21.157 -0.4092  0.8830  0.7290
  160SAPE  H16X17960  -0.474   4.098  21.057 -1.3869  0.2518  0.4080
  160SAPE  H16Y17961  -0.392   4.095  21.218  0.2154  0.6222  0.0802
  160SAPE  C31717962  -0.608   4.058  21.231  0.6770 -0.7491  0.8607
  160SAPE  H17X17963  -0.589   4.006  21.327 -0.0335 -1.1229  0.8110
  160SAPE  H17Y17964  -0.682   3.992  21.182 -0.2279  1.4976 -1.0094
  160SAPE  C31817965  -0.660   4.199  21.254  0.0801 -0.9961  0.0481
  160SAPE  H18X17966  -0.683   4.252  21.159  0.1543  0.8529  1.0197
  160SAPE  H18Y17967  -0.576   4.260  21.294 -1.5783  1.2854  0.2856
  160SAPE  H18Z17968  -0.747   4.202  21.323  0.5838 -2.4336  0.7938
  161SOPE     N17969   0.147   3.595  28.663 -0.5884  0.6712  0.4034
  161SOPE   HN117970   0.143   3.679  28.603 -0.8432  0.5421  0.2392
  161SOPE   HN217971   0.054   3.585  28.710 -0.6387 -1.2500 -0.0161
  161SOPE   HN317972   0.215   3.602  28.742 -1.3205  0.0985  1.1110
  161SOPE   C1217973   0.186   3.469  28.590  0.9489  0.3640  1.1255
  161SOPE  H12A17974   0.221   3.393  28.663  1.7409  1.3682  1.8144
  161SOPE  H12B17975   0.277   3.483  28.529  1.2562  0.1304  1.5280
  161SOPE   C1117976   0.065   3.408  28.515 -0.3325 -0.2260 -0.3482
  161SOPE  H11A17977  -0.018   3.393  28.587  1.0851 -2.5322  0.9401
  161SOPE  H11B17978   0.083   3.304  28.480  1.5455 -1.0379  2.6766
  161SOPE     P17979   0.059   3.458  28.260 -0.2654 -0.2952 -0.5141
  161SOPE   O1317980   0.206   3.484  28.245 -0.3033 -0.2630  0.6979
  161SOPE   O1417981  -0.031   3.530  28.173  0.1342 -0.1601  0.4196
  161SOPE   O1217982   0.016   3.488  28.410 -0.0205  0.1387  0.2982
  161SOPE   O1117983   0.033   3.302  28.256  0.7429  0.0161  0.0963
  161SOPE    C117984   0.141   3.213  28.222  0.1911 -0.2990  0.2176
  161SOPE    HA17985   0.218   3.213  28.302 -0.9483  2.7731  1.4861
  161SOPE    HB17986   0.183   3.257  28.128  0.3063 -3.0618 -1.1045
  161SOPE    C217987   0.094   3.065  28.208  0.3629  0.0469  0.3255
  161SOPE    HS17988   0.189   3.016  28.178  0.8282  0.8346  0.4823
  161SOPE   O2117989  -0.010   3.050  28.108  0.0779  0.3789 -0.9210
  161SOPE   C2117990   0.024   3.095  27.993 -0.2154 -0.0255 -0.6827
  161SOPE   O2217991   0.139   3.125  27.957  0.0776  0.4496 -0.2064
  161SOPE   C2217992  -0.094   3.071  27.904  0.6424  0.9000  1.1623
  161SOPE   H2R17993  -0.114   3.168  27.853  1.7714  0.9208  0.7198
  161SOPE   H2S17994  -0.185   3.045  27.962 -1.8775 -0.4218 -2.9634
  161SOPE    C317995   0.048   3.008  28.352  0.5030  0.3505 -0.7523
  161SOPE    HX17996  -0.046   3.066  28.369 -0.9297 -1.4544 -2.0438
  161SOPE    HY17997   0.125   3.036  28.427 -0.4520  1.5017 -0.1741
  161SOPE   O3117998   0.019   2.869  28.337 -0.1199  0.1865 -0.7952
  161SOPE   C3117999  -0.095   2.830  28.283 -0.3833  0.8525 -0.5051
  161SOPE   O3218000  -0.193   2.900  28.258  0.6340  0.3371 -0.1983
  161SOPE   C3218001  -0.082   2.680  28.235 -0.4111  0.0388 -0.0123
  161SOPE   H2X18002   0.018   2.674  28.187 -0.3007  0.0251  0.2193
  161SOPE   H2Y18003  -0.160   2.663  28.158  0.3487  1.0675 -1.0366
  161SOPE   C2318004  -0.072   2.947  27.812 -0.2646  0.2653 -0.5157
  161SOPE   H3R18005   0.021   2.959  27.752  1.3154 -1.2460  1.5163
  161SOPE   H3S18006  -0.160   2.935  27.745 -0.8572 -1.1244  0.4689
  161SOPE   C2418007  -0.079   2.811  27.881 -0.0902 -0.4710  0.3542
  161SOPE   H4R18008   0.005   2.800  27.952  1.0126 -0.8589 -0.9526
  161SOPE   H4S18009  -0.172   2.825  27.941  0.6813 -1.1503  1.7399
  161SOPE   C2518010  -0.066   2.700  27.782  0.1672 -0.3753 -0.0324
  161SOPE   H5R18011  -0.154   2.690  27.715  1.2299  1.8716 -1.9205
  161SOPE   H5S18012   0.022   2.734  27.724  0.7833  2.0682  2.0963
  161SOPE   C2618013  -0.046   2.562  27.847  0.1189 -0.3427  0.0515
  161SOPE   H6R18014   0.026   2.589  27.927 -0.5819  2.3296 -0.1421
  161SOPE   H6S18015  -0.144   2.537  27.892  0.4773  0.7000  1.4700
  161SOPE   C2718016   0.014   2.448  27.758  0.7235  0.2141  0.6452
  161SOPE   H7R18017  -0.061   2.399  27.692  1.4111 -0.5965  0.4397
  161SOPE   H7S18018   0.090   2.503  27.698  0.7341 -0.4658  0.0182
  161SOPE   C2818019   0.082   2.332  27.831 -0.8674 -1.0559 -0.0383
  161SOPE   H8R18020   0.119   2.256  27.760 -0.7157  0.8035 -2.0475
  161SOPE   H8S18021   0.172   2.374  27.880 -0.9577  1.6272 -1.9268
  161SOPE   C2918022  -0.006   2.275  27.938  0.1003 -0.0049  0.2841
  161SOPE   H9118023  -0.108   2.250  27.907  0.4673 -0.5881 -0.4880
  161SOPE  C21018024   0.007   2.262  28.073  0.4185 -0.9688 -0.2921
  161SOPE  H10118025  -0.088   2.246  28.127  1.2189 -1.6247  0.9661
  161SOPE  C21118026   0.129   2.298  28.153 -0.6893  0.8482 -0.4104
  161SOPE  H11R18027   0.102   2.308  28.260  2.1147  0.9627  0.3657
  161SOPE  H11S18028   0.177   2.394  28.124 -1.1416  0.7799 -1.4214
  161SOPE  C21218029   0.247   2.193  28.159 -0.0296  0.4383  0.1589
  161SOPE  H12R18030   0.216   2.108  28.222  1.5736  0.0521  0.4643
  161SOPE  H12S18031   0.331   2.246  28.209  1.9997 -0.4552 -2.1214
  161SOPE  C21318032   0.292   2.129  28.027  0.6953  0.3679  0.7122
  161SOPE  H13R18033   0.304   2.214  27.957 -0.1196 -0.4720 -0.4759
  161SOPE  H13S18034   0.209   2.061  27.997  1.2132  0.2817 -0.5506
  161SOPE  C21418035   0.420   2.045  28.028  0.0066 -0.5804  0.3853
  161SOPE  H14R18036   0.411   1.958  28.098  1.0040 -0.8720  0.1631
  161SOPE  H14S18037   0.508   2.105  28.058  1.8269 -2.8994 -0.0449
  161SOPE  C21518038   0.454   2.001  27.883  0.3721 -0.2099  0.9813
  161SOPE  H15R18039   0.431   2.086  27.816  0.4781 -1.8201 -1.2147
  161SOPE  H15S18040   0.376   1.934  27.840  0.1890 -0.0001  0.9812
  161SOPE  C21618041   0.597   1.950  27.866  0.7380  0.3164 -0.3025
  161SOPE  H16R18042   0.589   1.911  27.762 -0.5025  1.1313 -0.5423
  161SOPE  H16S18043   0.606   1.872  27.945  0.4036  0.1284 -0.4505
  161SOPE  C21718044   0.696   2.058  27.876 -0.7144  0.1638  0.4427
  161SOPE  H17R18045   0.690   2.108  27.974 -1.6494  0.6842  0.1359
  161SOPE  H17S18046   0.664   2.140  27.808  0.2109  0.7047  0.6507
  161SOPE  C21818047   0.840   2.006  27.855 -0.4297  0.5248 -0.2180
  161SOPE  H18R18048   0.855   1.918  27.922 -1.7527  0.6079  0.2208
  161SOPE  H18S18049   0.921   2.079  27.875  0.2588 -0.5464  1.1217
  161SOPE  H18T18050   0.854   1.967  27.752  1.5335 -1.0826  0.5879
  161SOPE   C3318051  -0.097   2.590  28.355 -0.3986 -0.0817 -0.1502
  161SOPE   H3X18052  -0.010   2.597  28.424  0.4577  5.5312 -1.3574
  161SOPE   H3Y18053  -0.097   2.485  28.317  3.9894  0.7930 -3.4257
  161SOPE   C3418054  -0.216   2.617  28.448  0.7481 -0.3744 -0.6623
  161SOPE   H4X18055  -0.306   2.636  28.385  1.4557  1.1050 -1.2551
  161SOPE   H4Y18056  -0.202   2.717  28.494  2.3890  0.1560 -2.1922
  161SOPE   C3518057  -0.234   2.515  28.557 -0.5834  0.6057 -0.6654
  161SOPE   H5X18058  -0.144   2.485  28.615 -0.9721  1.9604  0.7211
  161SOPE   H5Y18059  -0.283   2.422  28.521  1.2750 -0.9470  0.5751
  161SOPE   C3618060  -0.334   2.549  28.670 -0.1753  0.4515 -0.9623
  161SOPE   H6X18061  -0.436   2.568  28.629 -0.3293  0.2779 -0.6624
  161SOPE   H6Y18062  -0.298   2.642  28.720 -0.1687 -0.2413  0.3756
  161SOPE   C3718063  -0.354   2.450  28.779  0.1971  0.6620  0.3147
  161SOPE   H7X18064  -0.416   2.500  28.857 -1.7839  0.1117 -0.8445
  161SOPE   H7Y18065  -0.261   2.418  28.829 -1.4414 -2.8385  1.4538
  161SOPE   C3818066  -0.447   2.328  28.749  0.0290 -0.2827 -0.1669
  161SOPE   H8X18067  -0.461   2.260  28.836 -0.2043  0.0142  0.0330
  161SOPE   H8Y18068  -0.400   2.271  28.666  1.5834 -2.0395  1.7959
  161SOPE   C3918069  -0.592   2.366  28.718  0.0411 -0.0245  0.3758
  161SOPE   H9X18070  -0.604   2.434  28.631  0.0080  1.6726  1.6595
  161SOPE   H9Y18071  -0.624   2.423  28.808  0.3596 -2.0899  1.9003
  161SOPE  C31018072  -0.687   2.240  28.715  0.0325 -0.3117  0.4013
  161SOPE  H10X18073  -0.698   2.192  28.815 -1.1479  0.0995  0.4845
  161SOPE  H10Y18074  -0.632   2.175  28.644  0.4818  2.2888 -1.7965
  161SOPE  C31118075  -0.816   2.279  28.651 -0.3512 -0.4737 -0.1073
  161SOPE  H11X18076  -0.892   2.197  28.656 -0.3121 -0.5982 -1.1797
  161SOPE  H11Y18077  -0.798   2.309  28.546  2.5866 -2.0116 -0.1336
  161SOPE  C31218078  -0.872   2.399  28.722  0.4171  0.3870 -0.2305
  161SOPE  H12X18079  -0.809   2.489  28.701  0.2860  0.1383 -1.7999
  161SOPE  H12Y18080  -0.892   2.376  28.829  3.7762 -2.6701 -0.0693
  161SOPE  C31318081  -1.004   2.444  28.659 -0.0967  0.0190 -0.1855
  161SOPE  H13X18082  -1.070   2.355  28.657 -0.1893  0.0110  1.5239
  161SOPE  H13Y18083  -0.999   2.484  28.555 -0.3678 -0.1702 -0.2701
  161SOPE  C31418084  -1.080   2.542  28.743 -0.1366  0.7540 -0.3346
  161SOPE  H14X18085  -1.033   2.641  28.761  0.0369  0.7466 -0.7331
  161SOPE  H14Y18086  -1.085   2.494  28.843 -0.9528  0.3173 -0.5717
  161SOPE  C31518087  -1.224   2.573  28.692 -0.3770 -0.8543  0.5522
  161SOPE  H15X18088  -1.269   2.487  28.639  1.6806 -2.0663  0.6546
  161SOPE  H15Y18089  -1.213   2.660  28.624  1.3828 -0.3741  1.3787
  161SOPE  C31618090  -1.333   2.610  28.803  0.1510  0.2876 -0.0850
  161SOPE  H16X18091  -1.337   2.520  28.869  1.6326 -1.3796 -2.1104
  161SOPE  H16Y18092  -1.429   2.636  28.754  0.4520  0.4345 -0.6076
  161SOPE  C31718093  -1.281   2.730  28.888 -0.3667 -0.7292 -0.0235
  161SOPE  H17X18094  -1.241   2.790  28.804  1.1070  0.5008  1.4935
  161SOPE  H17Y18095  -1.195   2.707  28.955  1.5763  3.5538 -0.7249
  161SOPE  C31818096  -1.385   2.820  28.957 -0.0656  0.6614  0.1691
  161SOPE  H18X18097  -1.331   2.904  29.005  1.0756 -0.6260  1.2182
  161SOPE  H18Y18098  -1.435   2.758  29.035 -0.6056  1.9717  0.9067
  161SOPE  H18Z18099  -1.467   2.865  28.898  0.4478  1.9955  0.4462
  162SOPE     N18100   0.739   3.796  30.691 -0.6289 -0.0888  0.5794
  162SOPE   HN118101   0.688   3.875  30.645  0.9133 -2.0168 -5.2368
  162SOPE   HN218102   0.681   3.718  30.653 -0.6539  0.3322 -0.2641
  162SOPE   HN318103   0.727   3.788  30.794  2.2579 -0.0401  0.9950
  162SOPE   C1218104   0.884   3.775  30.669 -0.1730  0.3686  0.0459
  162SOPE  H12A18105   0.930   3.873  30.693 -1.0499  0.6476  0.6148
  162SOPE  H12B18106   0.902   3.736  30.566  1.2024 -2.8404  1.3424
  162SOPE   C1118107   0.947   3.669  30.772  0.4303  0.0520  0.3764
  162SOPE  H11A18108   0.932   3.717  30.871 -1.2368  2.8123 -1.0969
  162SOPE  H11B18109   1.054   3.643  30.755  0.6823  1.0936  0.2821
  162SOPE     P18110   0.882   3.418  30.711  0.2676 -0.1053  0.2966
  162SOPE   O1318111   0.755   3.338  30.710 -0.5483 -0.4093 -0.2448
  162SOPE   O1418112   1.002   3.345  30.762 -0.0109  0.1350 -0.0761
  162SOPE   O1218113   0.862   3.550  30.790  0.4894  0.3278 -0.4602
  162SOPE   O1118114   0.908   3.465  30.564  0.9344  0.2709 -0.1028
  162SOPE    C118115   1.043   3.472  30.511  0.3172  0.0074 -0.1788
  162SOPE    HA18116   1.122   3.446  30.584  0.1159  0.9684  0.3901
  162SOPE    HB18117   1.055   3.581  30.494 -3.4966  1.6093  4.8152
  162SOPE    C218118   1.072   3.409  30.378 -0.0320 -0.3799 -0.2151
  162SOPE    HS18119   1.018   3.482  30.315 -0.6056  1.2896  2.0913
  162SOPE   O2118120   1.027   3.274  30.383  0.3098  0.9255  0.3751
  162SOPE   C2118121   0.903   3.254  30.332 -0.3328  0.1626  0.3315
  162SOPE   O2218122   0.831   3.322  30.269 -0.3645 -0.2326 -0.7140
  162SOPE   C2218123   0.862   3.112  30.353  0.3600  0.1946  0.5329
  162SOPE   H2R18124   0.756   3.107  30.320  0.3829  0.0629  0.4782
  162SOPE   H2S18125   0.879   3.087  30.460  1.0744  1.8088  0.8215
  162SOPE    C318126   1.223   3.426  30.343 -0.4423 -0.7146  0.0624
  162SOPE    HX18127   1.275   3.367  30.421 -0.2096 -0.4967  0.0704
  162SOPE    HY18128   1.252   3.532  30.351  1.8021 -1.3848  1.7693
  162SOPE   O3118129   1.245   3.383  30.206 -0.8343  0.4065 -0.0754
  162SOPE   C3118130   1.316   3.270  30.193  0.6843 -0.0037 -0.7100
  162SOPE   O3218131   1.334   3.185  30.277 -0.0374  0.5908 -0.3187
  162SOPE   C3218132   1.351   3.253  30.043 -0.7419 -0.6418 -1.1731
  162SOPE   H2X18133   1.462   3.247  30.049 -0.7300  0.7398  0.4979
  162SOPE   H2Y18134   1.331   3.349  29.991  0.1379 -0.0089 -0.3979
  162SOPE   C2318135   0.950   3.014  30.274 -0.2954  0.7149 -0.8994
  162SOPE   H3R18136   0.943   2.914  30.321  2.4186  0.9371  0.2077
  162SOPE   H3S18137   1.059   3.033  30.286 -0.5325  1.0880  0.9631
  162SOPE   C2418138   0.922   3.009  30.128 -0.6506  0.4104 -0.1434
  162SOPE   H4R18139   0.814   3.002  30.101 -1.0117  0.4490  1.2380
  162SOPE   H4S18140   0.961   3.099  30.075  0.1656 -0.1555 -0.5222
  162SOPE   C2518141   0.977   2.886  30.050 -0.5945 -0.3296  0.1772
  162SOPE   H5R18142   1.079   2.864  30.089 -0.2514  1.8241  0.6077
  162SOPE   H5S18143   0.919   2.796  30.078  0.0927 -1.5394 -2.0574
  162SOPE   C2618144   0.983   2.903  29.898 -0.5424 -0.1964  0.1470
  162SOPE   H6R18145   1.065   2.972  29.871 -0.2477 -0.3244  0.6951
  162SOPE   H6S18146   1.018   2.806  29.857  0.0007 -0.4890  1.2612
  162SOPE   C2718147   0.848   2.948  29.838 -0.2318  0.3231  0.0442
  162SOPE   H7R18148   0.782   2.862  29.861  0.4846  0.2444  1.9968
  162SOPE   H7S18149   0.811   3.040  29.889 -1.2343 -0.7412  1.3016
  162SOPE   C2818150   0.835   2.970  29.681 -0.5684  0.0657 -0.6476
  162SOPE   H8R18151   0.897   3.061  29.662 -1.9809  1.2411  0.1288
  162SOPE   H8S18152   0.883   2.886  29.626 -0.4504 -1.0645  1.1098
  162SOPE   C2918153   0.694   2.989  29.633 -0.0224  0.0990  0.2249
  162SOPE   H9118154   0.634   3.059  29.693  2.6871  1.1573  1.8619
  162SOPE  C21018155   0.619   2.900  29.570  0.0783  0.3651  0.3566
  162SOPE  H10118156   0.511   2.923  29.569 -0.1417 -0.5121  1.8301
  162SOPE  C21118157   0.668   2.770  29.505 -0.1491  0.4477  0.1234
  162SOPE  H11R18158   0.775   2.782  29.475  0.2567 -0.1483  1.2592
  162SOPE  H11S18159   0.601   2.744  29.421 -0.7232  1.2976  0.3011
  162SOPE  C21218160   0.674   2.654  29.604  0.3404  0.7611  0.0089
  162SOPE  H12R18161   0.578   2.643  29.659  1.7533 -1.4167  2.2893
  162SOPE  H12S18162   0.748   2.670  29.685  0.4480  0.2911  0.0088
  162SOPE  C21318163   0.691   2.519  29.529  0.5499  0.0227 -0.0748
  162SOPE  H13R18164   0.788   2.508  29.476  0.3472 -2.4741 -0.0269
  162SOPE  H13S18165   0.612   2.519  29.451  1.1774  0.8315 -0.7384
  162SOPE  C21418166   0.658   2.395  29.610 -0.0916 -0.0739  0.2086
  162SOPE  H14R18167   0.554   2.396  29.649 -0.6614 -0.1186 -1.2309
  162SOPE  H14S18168   0.739   2.404  29.686  0.1570 -1.4770  0.1472
  162SOPE  C21518169   0.690   2.262  29.536 -0.4719  0.3784  0.0331
  162SOPE  H15R18170   0.793   2.263  29.497 -0.7757 -0.1710 -0.8147
  162SOPE  H15S18171   0.629   2.264  29.443 -2.5402  1.1573  1.3194
  162SOPE  C21618172   0.672   2.144  29.623 -0.2031 -0.9236 -0.0784
  162SOPE  H16R18173   0.564   2.144  29.649 -0.6252  0.9649 -1.5761
  162SOPE  H16S18174   0.722   2.165  29.720 -1.0247  0.1787  0.1335
  162SOPE  C21718175   0.725   2.020  29.552 -0.0501 -0.2574  0.1485
  162SOPE  H17R18176   0.824   2.062  29.525  0.3314 -0.0690  1.7268
  162SOPE  H17S18177   0.670   1.993  29.460 -1.1256  0.3495  0.6036
  162SOPE  C21818178   0.736   1.898  29.646 -0.4415 -0.3879  0.4036
  162SOPE  H18R18179   0.636   1.879  29.690 -0.1296 -1.4582  0.6774
  162SOPE  H18S18180   0.805   1.920  29.730  1.2275 -3.0255 -0.1347
  162SOPE  H18T18181   0.794   1.810  29.609  2.8243  1.1461  1.5462
  162SOPE   C3318182   1.284   3.125  29.972 -0.1182  0.7036 -0.4299
  162SOPE   H3X18183   1.177   3.147  29.989  0.0513 -0.0727  1.9111
  162SOPE   H3Y18184   1.312   3.037  30.034 -3.4135 -0.2413 -0.1104
  162SOPE   C3418185   1.348   3.094  29.835  0.2755  0.2142  0.0353
  162SOPE   H4X18186   1.315   2.994  29.798 -0.6435  0.3264  0.5266
  162SOPE   H4Y18187   1.459   3.091  29.846  0.2905 -3.0828 -0.1858
  162SOPE   C3518188   1.304   3.202  29.729  0.1072  0.1471  0.2098
  162SOPE   H5X18189   1.387   3.213  29.656  0.8432  0.5762  1.0890
  162SOPE   H5Y18190   1.286   3.296  29.785 -3.4182 -0.0023 -0.4493
  162SOPE   C3618191   1.182   3.155  29.643  0.0876 -0.0861  0.0425
  162SOPE   H6X18192   1.141   3.239  29.583  0.2396  0.3317  0.5112
  162SOPE   H6Y18193   1.111   3.129  29.724  1.5929  0.6214  1.6891
  162SOPE   C3718194   1.206   3.033  29.550  0.0047 -0.2337  0.3116
  162SOPE   H7X18195   1.105   2.988  29.538 -0.0136  0.2574 -1.5777
  162SOPE   H7Y18196   1.278   2.961  29.594 -1.3868 -0.6110  2.0930
  162SOPE   C3818197   1.257   3.065  29.408  0.1534 -0.6786 -0.0324
  162SOPE   H8X18198   1.361   3.102  29.419 -0.1953  0.2471  0.2795
  162SOPE   H8Y18199   1.205   3.148  29.354  0.4117 -0.9031 -0.6329
  162SOPE   C3918200   1.274   2.940  29.309 -0.2295 -0.5102 -0.2991
  162SOPE   H9X18201   1.171   2.900  29.300 -1.3766  2.3591 -0.9753
  162SOPE   H9Y18202   1.344   2.864  29.349  1.1380  0.5687 -0.5540
  162SOPE  C31018203   1.323   2.974  29.169 -0.5741 -0.3122  0.7314
  162SOPE  H10X18204   1.415   3.031  29.191 -0.2314 -0.0404 -1.2231
  162SOPE  H10Y18205   1.247   3.047  29.135 -1.3148 -0.9407  1.0120
  162SOPE  C31118206   1.343   2.850  29.085 -0.2092  0.3547 -0.6421
  162SOPE  H11X18207   1.370   2.877  28.981 -1.6947  0.5100 -1.0104
  162SOPE  H11Y18208   1.249   2.792  29.074  0.1493  0.2011 -3.7964
  162SOPE  C31218209   1.450   2.751  29.139  0.4066  0.2826  0.2012
  162SOPE  H12X18210   1.401   2.690  29.218 -0.3348  0.5807 -0.0206
  162SOPE  H12Y18211   1.545   2.800  29.169  1.9223 -1.4150 -1.5500
  162SOPE  C31318212   1.498   2.645  29.038 -1.1068 -0.1764  0.4891
  162SOPE  H13X18213   1.557   2.704  28.965  0.5581  0.4951  2.2965
  162SOPE  H13Y18214   1.411   2.600  28.985  0.1132 -1.6636 -0.3248
  162SOPE  C31418215   1.572   2.531  29.091 -1.0716  0.1352 -0.6021
  162SOPE  H14X18216   1.518   2.496  29.182 -0.3243  0.9155  0.1588
  162SOPE  H14Y18217   1.675   2.565  29.115 -1.6595  3.6236 -2.4124
  162SOPE  C31518218   1.581   2.423  28.983 -0.2599  0.3310  0.0909
  162SOPE  H15X18219   1.689   2.400  28.990  0.2266  2.5886  0.7761
  162SOPE  H15Y18220   1.570   2.456  28.877  0.2148 -0.2222 -0.1400
  162SOPE  C31618221   1.490   2.306  29.028  0.5845  0.4258 -0.1548
  162SOPE  H16X18222   1.389   2.344  29.055  0.9560  0.2935  1.5180
  162SOPE  H16Y18223   1.544   2.278  29.121  3.1563  0.4087 -1.5427
  162SOPE  C31718224   1.492   2.192  28.926 -0.2866 -0.5954 -0.1776
  162SOPE  H17X18225   1.437   2.230  28.838  2.0956 -0.8029 -1.8398
  162SOPE  H17Y18226   1.440   2.101  28.965  3.6634 -2.4603  1.3380
  162SOPE  C31818227   1.628   2.151  28.881  0.8336 -0.4773 -0.2191
  162SOPE  H18X18228   1.690   2.127  28.970 -0.2360 -1.4834  0.2783
  162SOPE  H18Y18229   1.682   2.227  28.821  1.6654 -1.3941 -0.6680
  162SOPE  H18Z18230   1.618   2.063  28.813  1.4351 -1.3046  0.7249
  163SOPE     N18231   3.927   4.107  26.016 -0.3936  0.4331 -0.1386
  163SOPE   HN118232   3.955   4.207  26.026  3.3493 -0.5743  1.1697
  163SOPE   HN218233   3.830   4.088  26.048 -0.4907 -1.3858 -1.3872
  163SOPE   HN318234   3.997   4.053  26.072  1.0286  1.0120 -1.2796
  163SOPE   C1218235   3.925   4.061  25.871 -0.4015 -0.0164  0.1918
  163SOPE  H12A18236   3.949   3.952  25.876  1.7696  0.2037 -2.9407
  163SOPE  H12B18237   4.012   4.105  25.817 -0.9978  2.0471  0.8336
  163SOPE   C1118238   3.791   4.078  25.803  0.4622  0.3458 -0.4900
  163SOPE  H11A18239   3.718   4.032  25.872  1.3476  0.2970  0.4349
  163SOPE  H11B18240   3.778   4.026  25.705 -1.9506  1.1804 -0.6650
  163SOPE     P18241   3.803   4.294  25.669 -0.2514 -0.0360  0.3703
  163SOPE   O1318242   3.685   4.319  25.580 -0.5631 -0.3711 -0.1828
  163SOPE   O1418243   3.923   4.222  25.610 -0.5431 -0.6225  0.2119
  163SOPE   O1218244   3.762   4.211  25.793  1.0764  0.6218  0.4257
  163SOPE   O1118245   3.846   4.432  25.729  0.1788  0.4777 -0.1320
  163SOPE    C118246   3.801   4.477  25.854  0.1813  0.2457  0.2761
  163SOPE    HA18247   3.815   4.403  25.936 -0.9492 -1.1157 -0.7186
  163SOPE    HB18248   3.690   4.486  25.853 -0.1277 -1.8617  2.8557
  163SOPE    C218249   3.837   4.622  25.883 -0.6625 -0.3737 -0.7616
  163SOPE    HS18250   3.774   4.671  25.960  0.3832  0.2648 -0.2878
  163SOPE   O2118251   3.836   4.698  25.761  0.2728 -0.2573 -0.3781
  163SOPE   C2118252   3.714   4.737  25.729 -0.0920 -0.5872  0.0128
  163SOPE   O2218253   3.611   4.714  25.786 -0.5622 -0.3853 -0.7053
  163SOPE   C2218254   3.719   4.814  25.597 -0.8491  0.1953 -0.4634
  163SOPE   H2R18255   3.682   4.752  25.513  1.6575 -0.1844 -1.3843
  163SOPE   H2S18256   3.822   4.850  25.576 -0.3196 -0.7188  0.4902
  163SOPE    C318257   3.984   4.632  25.939  0.1602 -0.1927  0.6470
  163SOPE    HX18258   4.053   4.595  25.860  0.0219 -0.4376  0.6382
  163SOPE    HY18259   3.991   4.565  26.027  1.3605  2.0389  2.3510
  163SOPE   O3118260   4.016   4.768  25.958  0.7101  0.0879  0.0233
  163SOPE   C3118261   4.007   4.809  26.082 -0.1494 -0.5679  0.5955
  163SOPE   O3218262   3.936   4.752  26.168  0.1600 -0.0597 -0.0684
  163SOPE   C3218263   4.061   4.957  26.087  0.7027  0.3254 -0.5507
  163SOPE   H2X18264   4.072   4.996  25.984 -0.6093 -2.5034 -1.8614
  163SOPE   H2Y18265   4.159   4.949  26.140  0.0049  1.0474  0.9000
  163SOPE   C2318266   3.618   4.934  25.613  0.0289  0.1279  0.0948
  163SOPE   H3R18267   3.514   4.902  25.635 -0.4648  1.8716  0.4496
  163SOPE   H3S18268   3.612   4.988  25.516  0.3061  0.0900  0.0581
  163SOPE   C2418269   3.657   5.040  25.713 -0.1820  0.7003  0.3236
  163SOPE   H4R18270   3.565   5.101  25.730 -2.0581 -2.0817  0.8534
  163SOPE   H4S18271   3.671   4.996  25.814 -0.6465 -1.0331 -0.3379
  163SOPE   C2518272   3.788   5.118  25.682  0.1410 -0.5867 -1.0917
  163SOPE   H5R18273   3.880   5.058  25.700  0.9202 -0.0537 -3.0855
  163SOPE   H5S18274   3.793   5.157  25.578  3.4998  0.9734 -0.4634
  163SOPE   C2618275   3.813   5.234  25.784 -0.2981 -0.7151  0.6227
  163SOPE   H6R18276   3.818   5.203  25.890 -0.1792  3.0525  1.8841
  163SOPE   H6S18277   3.915   5.274  25.764 -0.5469 -1.6226 -3.2426
  163SOPE   C2718278   3.713   5.347  25.762 -0.7086  0.6333 -0.3614
  163SOPE   H7R18279   3.715   5.389  25.659 -2.1828  1.1675 -0.1998
  163SOPE   H7S18280   3.616   5.296  25.782  0.4978 -1.9975 -0.7943
  163SOPE   C2818281   3.744   5.468  25.848 -0.2686  0.3743 -0.4415
  163SOPE   H8R18282   3.795   5.439  25.942 -1.1624  2.4640  0.7812
  163SOPE   H8S18283   3.816   5.531  25.793 -1.1674  0.9446 -0.9946
  163SOPE   C2918284   3.615   5.541  25.875 -1.1906 -0.0247 -0.2173
  163SOPE   H9118285   3.540   5.481  25.930 -0.5370  0.7349  1.5909
  163SOPE  C21018286   3.582   5.656  25.819  0.7899 -0.0489  0.7428
  163SOPE  H10118287   3.480   5.694  25.838  0.7984  0.1085  0.4823
  163SOPE  C21118288   3.667   5.737  25.725 -0.2864 -0.1339  0.7053
  163SOPE  H11R18289   3.635   5.754  25.620 -1.1628  1.1933  1.1575
  163SOPE  H11S18290   3.776   5.713  25.723 -0.4171 -1.0194 -3.0467
  163SOPE  C21218291   3.642   5.886  25.772  0.0897  0.4734  0.5921
  163SOPE  H12R18292   3.664   5.885  25.880  0.7937  1.3238  0.4679
  163SOPE  H12S18293   3.533   5.908  25.761  0.0440 -0.5525 -1.6599
  163SOPE  C21318294   3.719   5.999  25.704 -0.1652 -0.1697 -0.0751
  163SOPE  H13R18295   3.687   5.998  25.597 -1.3947  0.8567  0.2597
  163SOPE  H13S18296   3.830   6.000  25.711 -0.1222  0.9389 -0.6503
  163SOPE  C21418297   3.687   6.140  25.755  0.5896  0.1729 -0.1062
  163SOPE  H14R18298   3.725   6.154  25.859 -4.5841 -0.4289  2.1549
  163SOPE  H14S18299   3.577   6.133  25.765  0.8470 -3.0072  2.3667
  163SOPE  C21518300   3.719   6.249  25.662  0.5257  0.0518  0.1769
  163SOPE  H15R18301   3.663   6.236  25.568  0.3069 -1.8878  0.5309
  163SOPE  H15S18302   3.823   6.230  25.628  0.2527 -0.0781 -0.6084
  163SOPE  C21618303   3.680   6.398  25.705  0.4153  0.0100 -0.0338
  163SOPE  H16R18304   3.572   6.412  25.685  0.4118  2.3843  1.1506
  163SOPE  H16S18305   3.720   6.477  25.637 -0.7736  0.1249 -0.6250
  163SOPE  C21718306   3.721   6.445  25.840  0.4614 -0.7868 -0.6534
  163SOPE  H17R18307   3.669   6.381  25.915 -0.5532  2.7248  1.8978
  163SOPE  H17S18308   3.687   6.549  25.856 -1.2712 -1.5982  1.4401
  163SOPE  C21818309   3.868   6.431  25.860 -0.3371  0.1943  0.1348
  163SOPE  H18R18310   3.927   6.502  25.797 -1.5362  1.2809  0.2009
  163SOPE  H18S18311   3.902   6.325  25.861 -0.8380 -0.0079 -1.5173
  163SOPE  H18T18312   3.887   6.462  25.965 -1.6868  0.4406  0.3258
  163SOPE   C3318313   3.973   5.061  26.165 -0.2723  0.1901  0.6863
  163SOPE   H3X18314   3.956   5.039  26.272 -0.0492  0.1809  0.7205
  163SOPE   H3Y18315   3.873   5.068  26.117 -0.4030 -1.9130  0.5484
  163SOPE   C3418316   4.039   5.202  26.156 -0.1375  0.1456  0.0639
  163SOPE   H4X18317   4.027   5.237  26.051  1.4214  0.7391  0.0510
  163SOPE   H4Y18318   4.149   5.187  26.164 -0.1157  0.8255  1.2063
  163SOPE   C3518319   3.997   5.313  26.263 -0.5332  0.6185 -0.5891
  163SOPE   H5X18320   4.022   5.279  26.366 -1.6153  2.0506  0.1879
  163SOPE   H5Y18321   3.886   5.322  26.260 -0.5795  0.0474 -0.6736
  163SOPE   C3618322   4.065   5.444  26.234  0.5000 -0.6844 -0.0114
  163SOPE   H6X18323   4.023   5.498  26.146  1.5673 -0.9733 -0.7192
  163SOPE   H6Y18324   4.172   5.419  26.217 -0.4618 -4.2502 -1.5903
  163SOPE   C3718325   4.061   5.539  26.358 -0.1835 -0.1770 -1.1071
  163SOPE   H7X18326   4.108   5.490  26.446 -1.6075  1.2525  0.5376
  163SOPE   H7Y18327   3.956   5.569  26.375 -1.1789 -2.4142 -2.8503
  163SOPE   C3818328   4.144   5.665  26.338  0.1260 -0.3010  0.0860
  163SOPE   H8X18329   4.105   5.707  26.243  2.8964  1.0260 -0.5835
  163SOPE   H8Y18330   4.250   5.636  26.316 -0.6504 -1.2955 -2.8223
  163SOPE   C3918331   4.136   5.774  26.444 -0.1047 -0.6289 -0.1445
  163SOPE   H9X18332   4.176   5.738  26.542 -1.4235 -0.6452  0.4032
  163SOPE   H9Y18333   4.029   5.802  26.452  0.0719  0.3391 -1.0454
  163SOPE  C31018334   4.207   5.900  26.397  0.5036 -0.0768 -0.4905
  163SOPE  H10X18335   4.148   5.943  26.313  0.5298  2.0512  0.5146
  163SOPE  H10Y18336   4.304   5.873  26.351  0.3829  1.7755 -1.9704
  163SOPE  C31118337   4.227   5.999  26.513  0.2324 -0.1626 -0.2034
  163SOPE  H11X18338   4.262   5.942  26.602  0.5109 -2.1193 -1.5117
  163SOPE  H11Y18339   4.127   6.041  26.540 -1.7095 -3.0053 -2.3634
  163SOPE  C31218340   4.334   6.109  26.502  0.2746 -0.6660 -0.6395
  163SOPE  H12X18341   4.304   6.194  26.438  1.0775  0.5408  0.5215
  163SOPE  H12Y18342   4.426   6.057  26.467 -0.1739 -1.6452 -0.4009
  163SOPE  C31318343   4.374   6.163  26.639  1.3712 -0.3273 -0.1711
  163SOPE  H13X18344   4.430   6.258  26.626  2.0366 -0.9383 -2.0880
  163SOPE  H13Y18345   4.431   6.087  26.697 -0.8703 -0.7267  1.6505
  163SOPE  C31418346   4.256   6.219  26.723  0.5920 -0.0089  0.1602
  163SOPE  H14X18347   4.195   6.136  26.763  0.4940  0.7741  1.7083
  163SOPE  H14Y18348   4.181   6.271  26.659 -1.2169 -0.5146  1.7817
  163SOPE  C31518349   4.279   6.312  26.844  0.2475  0.6313 -0.2761
  163SOPE  H15X18350   4.178   6.334  26.886 -0.4855 -2.2515 -0.3546
  163SOPE  H15Y18351   4.327   6.408  26.816  1.2830  1.0807  2.6517
  163SOPE  C31618352   4.365   6.231  26.951 -0.4881  0.0745 -0.2385
  163SOPE  H16X18353   4.464   6.219  26.902 -0.6481 -0.2890 -0.4714
  163SOPE  H16Y18354   4.317   6.135  26.978  1.7747 -0.7194  1.2966
  163SOPE  C31718355   4.387   6.318  27.073 -0.0653 -0.1380 -0.1454
  163SOPE  H17X18356   4.287   6.365  27.088  1.6610  3.8399  0.1766
  163SOPE  H17Y18357   4.456   6.403  27.057 -0.0877  0.0474  0.7200
  163SOPE  C31818358   4.432   6.246  27.199 -0.0085 -0.4245  0.0865
  163SOPE  H18X18359   4.542   6.237  27.182  0.4512  2.6307  0.8322
  163SOPE  H18Y18360   4.372   6.158  27.231 -1.0489 -0.1902 -1.1483
  163SOPE  H18Z18361   4.425   6.328  27.273 -1.6834  2.0135 -2.5692
  164SOPE     N18362   1.548   0.202  24.754 -0.3522 -0.2052  0.3418
  164SOPE   HN118363   1.499   0.275  24.811  0.3707  0.9549 -0.4723
  164SOPE   HN218364   1.505   0.108  24.765  0.1550 -0.4150  0.5541
  164SOPE   HN318365   1.650   0.203  24.774  0.1608 -0.7556 -1.9477
  164SOPE   C1218366   1.550   0.235  24.605  0.1670  0.2041  0.2168
  164SOPE  H12A18367   1.627   0.171  24.556  0.7528  0.2148  1.0943
  164SOPE  H12B18368   1.574   0.343  24.597 -2.2560  0.7927  0.2735
  164SOPE   C1118369   1.417   0.207  24.539  0.6621  0.1772  0.4613
  164SOPE  H11A18370   1.441   0.224  24.432  0.7046  0.3226  0.4935
  164SOPE  H11B18371   1.339   0.281  24.567  1.3779  1.6335 -1.2074
  164SOPE     P18372   1.272   0.010  24.467 -0.4489  0.1938  0.6230
  164SOPE   O1318373   1.157   0.091  24.427  0.4427  0.1949 -0.4312
  164SOPE   O1418374   1.235  -0.122  24.525  0.1337 -0.4725  0.1298
  164SOPE   O1218375   1.370   0.081  24.565  0.0014  0.1500 -0.1612
  164SOPE   O1118376   1.365  -0.017  24.343 -0.1476 -0.2943  0.0534
  164SOPE    C118377   1.487  -0.097  24.366  0.0875  0.6962 -0.3273
  164SOPE    HA18378   1.515  -0.124  24.470 -2.9158  0.5933  0.5407
  164SOPE    HB18379   1.575  -0.041  24.328  0.9901 -2.1376 -2.8397
  164SOPE    C218380   1.483  -0.225  24.273 -0.4387  0.2502 -0.1318
  164SOPE    HS18381   1.584  -0.271  24.269  0.0537  1.2861 -0.0099
  164SOPE   O2118382   1.428  -0.195  24.150  0.1734  0.3963  0.3937
  164SOPE   C2118383   1.506  -0.121  24.087  0.1053 -0.7111  0.3238
  164SOPE   O2218384   1.624  -0.087  24.110  0.2226  0.0172 -0.5094
  164SOPE   C2218385   1.433  -0.072  23.967  0.2387  0.4216  0.0170
  164SOPE   H2R18386   1.467   0.033  23.954  1.5230  0.1912  1.2720
  164SOPE   H2S18387   1.322  -0.080  23.976  0.4336  0.1783  3.5110
  164SOPE    C318388   1.406  -0.337  24.347 -0.1044  0.3339  0.1446
  164SOPE    HX18389   1.303  -0.303  24.366 -0.0087  1.1557 -0.7194
  164SOPE    HY18390   1.439  -0.359  24.451 -1.2765  0.1369  0.4860
  164SOPE   O3118391   1.422  -0.465  24.281  0.6534  0.0514  0.6073
  164SOPE   C3118392   1.334  -0.498  24.194  0.1425 -0.8685  0.4192
  164SOPE   O3218393   1.241  -0.426  24.151  0.3672 -0.6188 -0.3054
  164SOPE   C3218394   1.375  -0.628  24.123  0.0172 -0.2485  0.1319
  164SOPE   H2X18395   1.419  -0.708  24.186  0.1878 -0.7010 -0.5448
  164SOPE   H2Y18396   1.456  -0.591  24.056 -2.2235  1.6953 -1.7064
  164SOPE   C2318397   1.467  -0.168  23.845  0.3453  0.5478  0.3033
  164SOPE   H3R18398   1.578  -0.178  23.845  0.6062 -0.1345 -5.6435
  164SOPE   H3S18399   1.449  -0.118  23.748 -1.2921  2.2420  1.4197
  164SOPE   C2418400   1.395  -0.303  23.843 -0.5806  0.1019 -0.0755
  164SOPE   H4R18401   1.427  -0.368  23.928 -0.3359  1.1367  0.6390
  164SOPE   H4S18402   1.286  -0.285  23.852 -0.6415 -0.5933  0.7282
  164SOPE   C2518403   1.420  -0.389  23.711 -0.1357 -0.6615  0.3687
  164SOPE   H5R18404   1.377  -0.317  23.639 -0.6198  1.6734  2.8258
  164SOPE   H5S18405   1.527  -0.409  23.689 -0.0176 -1.3494  1.4917
  164SOPE   C2618406   1.358  -0.529  23.714 -0.0857  0.0229  0.3212
  164SOPE   H6R18407   1.372  -0.574  23.814 -0.4815  0.0906  0.4085
  164SOPE   H6S18408   1.249  -0.528  23.691  0.4745  0.0794 -2.8305
  164SOPE   C2718409   1.402  -0.620  23.601  0.0990  0.3758  0.8819
  164SOPE   H7R18410   1.387  -0.593  23.494 -1.3157 -1.0468  0.6879
  164SOPE   H7S18411   1.511  -0.642  23.612 -0.0577 -0.0902  1.5615
  164SOPE   C2818412   1.325  -0.757  23.606 -0.7286 -0.3634  0.3458
  164SOPE   H8R18413   1.325  -0.786  23.713  2.4733 -1.0625  0.2414
  164SOPE   H8S18414   1.221  -0.726  23.580 -1.1992 -0.3701  2.0865
  164SOPE   C2918415   1.378  -0.862  23.521 -0.3480  0.9845  0.1952
  164SOPE   H9118416   1.479  -0.891  23.554 -0.7287  1.1251  1.5462
  164SOPE  C21018417   1.322  -0.933  23.417  0.4514  0.1905  0.9172
  164SOPE  H10118418   1.378  -1.015  23.371 -1.7455 -0.9289  0.0618
  164SOPE  C21118419   1.184  -0.915  23.350 -0.7150 -0.1300 -0.6374
  164SOPE  H11R18420   1.122  -0.852  23.417  0.0029  0.1714 -0.2477
  164SOPE  H11S18421   1.128  -1.011  23.342 -2.1683  0.6236  0.2147
  164SOPE  C21218422   1.191  -0.853  23.208  0.1235 -0.3065 -0.5927
  164SOPE  H12R18423   1.206  -0.745  23.226 -0.2502  0.1303 -2.6287
  164SOPE  H12S18424   1.094  -0.864  23.154  0.5985  2.7922 -2.3111
  164SOPE  C21318425   1.301  -0.899  23.105 -0.0314 -0.1775  0.4851
  164SOPE  H13R18426   1.405  -0.865  23.124 -0.2649  0.8147  0.0584
  164SOPE  H13S18427   1.275  -0.842  23.013  0.3017 -0.9461 -0.0961
  164SOPE  C21418428   1.290  -1.055  23.070 -0.1685  0.2434  0.0259
  164SOPE  H14R18429   1.185  -1.079  23.096  0.3564 -0.8384  1.3051
  164SOPE  H14S18430   1.355  -1.103  23.147 -1.4357  0.1012  1.0327
  164SOPE  C21518431   1.321  -1.093  22.932 -0.4718 -0.0696 -0.2377
  164SOPE  H15R18432   1.414  -1.035  22.914 -0.8752  0.8239  0.4805
  164SOPE  H15S18433   1.247  -1.052  22.861 -0.7993  2.6131  1.4928
  164SOPE  C21618434   1.343  -1.249  22.918  0.8784 -0.0231  0.3425
  164SOPE  H16R18435   1.256  -1.306  22.957 -1.3823  2.3366 -0.9938
  164SOPE  H16S18436   1.431  -1.279  22.980  0.2415 -0.8837  0.8458
  164SOPE  C21718437   1.359  -1.282  22.772  0.0996 -0.2620  0.5094
  164SOPE  H17R18438   1.445  -1.223  22.734 -1.1256  0.7231 -0.8635
  164SOPE  H17S18439   1.264  -1.250  22.723 -0.2529 -0.8429  0.8094
  164SOPE  C21818440   1.370  -1.432  22.730 -0.8284 -0.0621 -0.5238
  164SOPE  H18R18441   1.452  -1.477  22.792 -0.8801  1.1668  0.4673
  164SOPE  H18S18442   1.382  -1.439  22.620  2.6249 -3.4627 -0.1624
  164SOPE  H18T18443   1.275  -1.487  22.743  0.3857 -2.1157  0.2597
  164SOPE   C3318444   1.259  -0.700  24.049  0.2943 -0.8225  0.1835
  164SOPE   H3X18445   1.230  -0.641  23.960  1.9835 -0.4567 -0.1716
  164SOPE   H3Y18446   1.170  -0.690  24.115 -0.8294  0.9941 -1.5094
  164SOPE   C3418447   1.302  -0.845  24.019 -0.0859  0.5738 -0.0593
  164SOPE   H4X18448   1.331  -0.905  24.108  0.8053 -1.9479 -1.9337
  164SOPE   H4Y18449   1.391  -0.835  23.954 -1.6737 -1.7402 -2.7786
  164SOPE   C3518450   1.212  -0.926  23.926 -0.2695  0.1893 -0.5761
  164SOPE   H5X18451   1.169  -0.861  23.846  0.8743 -0.0909 -1.4460
  164SOPE   H5Y18452   1.119  -0.952  23.982 -0.0201  1.6640  0.5751
  164SOPE   C3618453   1.278  -1.053  23.867  0.0214  0.4271 -0.4173
  164SOPE   H6X18454   1.297  -1.122  23.952 -1.4479  2.3092  1.5420
  164SOPE   H6Y18455   1.378  -1.036  23.820  1.3282 -1.4128  1.5112
  164SOPE   C3718456   1.201  -1.134  23.754  0.4800 -0.5411 -0.1846
  164SOPE   H7X18457   1.181  -1.058  23.675 -1.9331 -0.4900  0.3932
  164SOPE   H7Y18458   1.101  -1.170  23.788 -0.4099  0.7532 -1.3062
  164SOPE   C3818459   1.294  -1.235  23.684 -0.0087 -0.3199  0.3214
  164SOPE   H8X18460   1.318  -1.310  23.762 -1.9003 -0.3951  0.8767
  164SOPE   H8Y18461   1.384  -1.179  23.651 -1.1693 -0.1232 -2.9064
  164SOPE   C3918462   1.236  -1.292  23.553  0.0542  0.1278 -0.4435
  164SOPE   H9X18463   1.195  -1.210  23.490 -0.4302  2.3715  2.5707
  164SOPE   H9Y18464   1.153  -1.364  23.574  0.7745 -0.3610  0.8449
  164SOPE  C31018465   1.338  -1.381  23.482 -0.2756  0.0320 -0.4614
  164SOPE  H10X18466   1.353  -1.472  23.543 -1.1012 -0.1936 -0.5875
  164SOPE  H10Y18467   1.434  -1.325  23.476 -0.6673  0.8792  0.6132
  164SOPE  C31118468   1.287  -1.443  23.345 -0.3279  0.2540  0.1491
  164SOPE  H11X18469   1.284  -1.364  23.268  1.4806 -1.3823 -1.7235
  164SOPE  H11Y18470   1.180  -1.467  23.361 -0.7136  0.8491 -1.4302
  164SOPE  C31218471   1.371  -1.554  23.289 -0.2250 -0.8068 -0.0481
  164SOPE  H12X18472   1.470  -1.502  23.290 -0.8242  0.4669 -1.9773
  164SOPE  H12Y18473   1.349  -1.583  23.184  1.0554 -1.8714 -0.0456
  164SOPE  C31318474   1.372  -1.685  23.372  0.3774 -0.0556 -0.0536
  164SOPE  H13X18475   1.270  -1.723  23.397 -0.6189  0.8060 -2.4018
  164SOPE  H13Y18476   1.414  -1.656  23.470 -3.3082  0.4622  1.5678
  164SOPE  C31418477   1.463  -1.781  23.292  0.1754 -0.1542  0.1213
  164SOPE  H14X18478   1.563  -1.734  23.277 -0.7298  2.8983  2.6033
  164SOPE  H14Y18479   1.408  -1.794  23.196  0.5178  0.5947 -0.1903
  164SOPE  C31518480   1.483  -1.921  23.349 -1.0470  0.2049 -0.4611
  164SOPE  H15X18481   1.385  -1.973  23.355 -0.6600 -0.5331 -0.4364
  164SOPE  H15Y18482   1.538  -1.921  23.446  2.3189  1.5568 -2.1931
  164SOPE  C31618483   1.577  -2.007  23.269  0.4124  0.8327  0.1134
  164SOPE  H16X18484   1.678  -1.960  23.265  0.3107  1.0244 -0.2469
  164SOPE  H16Y18485   1.532  -2.022  23.169 -0.4580 -0.0244  0.6199
  164SOPE  C31718486   1.597  -2.154  23.318 -0.3268 -0.0737  0.1391
  164SOPE  H17X18487   1.494  -2.193  23.332 -0.1715 -0.2612  0.8029
  164SOPE  H17Y18488   1.645  -2.141  23.418 -0.9860 -0.8586  0.5709
  164SOPE  C31818489   1.666  -2.243  23.216 -0.3071  0.0220 -0.1386
  164SOPE  H18X18490   1.763  -2.196  23.187 -0.2935 -0.3884 -0.7668
  164SOPE  H18Y18491   1.591  -2.246  23.134 -3.1715  0.7466  2.2908
  164SOPE  H18Z18492   1.679  -2.344  23.259  1.8813 -0.3079 -1.4309
  165SOPE     N18493   0.430   3.460  28.106  0.2610  0.1102  0.1332
  165SOPE   HN118494   0.344   3.477  28.162  0.0093  0.8516 -0.4559
  165SOPE   HN218495   0.387   3.437  28.015 -0.9396 -0.5499  0.8316
  165SOPE   HN318496   0.489   3.387  28.149  0.4679  0.3863  0.3274
  165SOPE   C1218497   0.511   3.587  28.109  0.7276 -0.3304 -0.5666
  165SOPE  H12A18498   0.567   3.599  28.015 -0.3494 -0.2260 -1.2084
  165SOPE  H12B18499   0.576   3.586  28.199  0.7559  1.3912 -0.5451
  165SOPE   C1118500   0.423   3.708  28.122  0.7063 -0.0770  0.1471
  165SOPE  H11A18501   0.385   3.710  28.226 -0.9486  1.5292 -0.4404
  165SOPE  H11B18502   0.330   3.702  28.061  0.3910  1.1755  0.4805
  165SOPE     P18503   0.579   3.918  28.181  0.0084 -0.2010 -0.4322
  165SOPE   O1318504   0.638   4.016  28.090  0.1656 -0.5696  0.0974
  165SOPE   O1418505   0.661   3.843  28.274 -0.0008 -0.0805  0.2489
  165SOPE   O1218506   0.495   3.820  28.087 -0.5170  0.2729 -0.2216
  165SOPE   O1118507   0.477   3.979  28.276 -0.0244 -0.5638  0.2039
  165SOPE    C118508   0.342   4.021  28.248  0.5309 -0.4963  0.8295
  165SOPE    HA18509   0.289   4.017  28.346  0.1090 -0.9547  0.5832
  165SOPE    HB18510   0.303   3.941  28.182  0.8374 -0.0969  0.1526
  165SOPE    C218511   0.338   4.159  28.185  0.5612  0.5030 -0.0132
  165SOPE    HS18512   0.387   4.148  28.086  0.4601  0.2445 -0.0369
  165SOPE   O2118513   0.407   4.241  28.271 -0.0290 -0.5222 -0.1343
  165SOPE   C2118514   0.466   4.341  28.210 -0.7152  0.4291 -0.2537
  165SOPE   O2218515   0.471   4.360  28.092  0.0874 -0.1113 -0.1534
  165SOPE   C2218516   0.540   4.422  28.316 -0.2078 -0.5250  0.0900
  165SOPE   H2R18517   0.623   4.481  28.273  0.0710 -1.5721 -0.8538
  165SOPE   H2S18518   0.581   4.348  28.389  0.4150  0.1811  0.4689
  165SOPE    C318519   0.189   4.206  28.171  0.2333  0.5198 -0.7502
  165SOPE    HX18520   0.151   4.223  28.274  0.2812  1.3267 -0.8528
  165SOPE    HY18521   0.123   4.129  28.126  0.2491  0.8679 -1.3865
  165SOPE   O3118522   0.167   4.337  28.108 -0.3544  0.2691  0.8081
  165SOPE   C3118523   0.173   4.339  27.976 -0.8497  0.2611 -0.0108
  165SOPE   O3218524   0.195   4.241  27.907  0.1526  0.2646 -0.6171
  165SOPE   C3218525   0.181   4.485  27.932  0.1856 -0.2380 -0.4503
  165SOPE   H2X18526   0.210   4.483  27.825 -0.3659  1.0045 -0.6376
  165SOPE   H2Y18527   0.269   4.522  27.989  0.2500  0.3716 -0.9384
  165SOPE   C2318528   0.439   4.509  28.389  0.6331  0.2309 -0.8023
  165SOPE   H3R18529   0.470   4.556  28.484  1.8816  3.3784 -2.6161
  165SOPE   H3S18530   0.349   4.444  28.401  0.0451  0.2260 -4.0953
  165SOPE   C2418531   0.374   4.617  28.295 -0.3497  0.4497 -0.0212
  165SOPE   H4R18532   0.447   4.696  28.268 -2.0308  1.2296 -2.5560
  165SOPE   H4S18533   0.345   4.572  28.198  2.9273 -0.7494 -0.5634
  165SOPE   C2518534   0.257   4.694  28.364  0.0636  0.1920 -0.0797
  165SOPE   H5R18535   0.169   4.627  28.350 -0.4242  1.1114 -1.8362
  165SOPE   H5S18536   0.271   4.718  28.471 -1.6959  1.1086 -0.0031
  165SOPE   C2618537   0.215   4.823  28.308 -0.0225  0.6074  0.0707
  165SOPE   H6R18538   0.300   4.894  28.319  1.2025 -0.0368 -3.7642
  165SOPE   H6S18539   0.197   4.819  28.199 -1.7516  1.2027  0.3115
  165SOPE   C2718540   0.097   4.886  28.379 -0.7248  0.4167  0.6363
  165SOPE   H7R18541   0.016   4.817  28.349  1.4188 -2.2983  0.6393
  165SOPE   H7S18542   0.105   4.892  28.490 -3.4860  1.2852  0.8580
  165SOPE   C2818543   0.046   5.026  28.317 -0.2227  0.6512 -0.8026
  165SOPE   H8R18544   0.118   5.107  28.340 -1.1436  1.1741  0.4104
  165SOPE   H8S18545   0.039   5.009  28.208 -0.3284  0.1284 -0.7160
  165SOPE   C2918546  -0.087   5.067  28.379  0.2855  0.0140 -0.3390
  165SOPE   H9118547  -0.112   5.006  28.467 -1.1086 -0.8454 -1.2959
  165SOPE  C21018548  -0.169   5.165  28.343 -0.1401 -0.5306  0.6684
  165SOPE  H10118549  -0.258   5.178  28.405  0.1945 -1.0734  1.2790
  165SOPE  C21118550  -0.143   5.253  28.226  0.1973 -0.3863 -0.0735
  165SOPE  H11R18551  -0.243   5.293  28.196  0.4011 -0.1299 -0.4166
  165SOPE  H11S18552  -0.117   5.188  28.140 -2.8785 -0.9430 -0.7296
  165SOPE  C21218553  -0.039   5.361  28.255  0.1678  0.7569  0.6720
  165SOPE  H12R18554   0.048   5.310  28.301 -0.8779 -0.1845  1.6443
  165SOPE  H12S18555  -0.067   5.428  28.339  1.6382  4.0087 -1.2045
  165SOPE  C21318556  -0.003   5.429  28.125 -0.6684 -0.9480  1.2146
  165SOPE  H13R18557  -0.095   5.472  28.079  1.5105  0.8738 -1.8137
  165SOPE  H13S18558   0.040   5.364  28.045 -0.7594  1.8072 -1.2324
  165SOPE  C21418559   0.092   5.551  28.152  0.1122 -0.1565 -0.3051
  165SOPE  H14R18560   0.185   5.491  28.159  1.1684  1.4985  0.6095
  165SOPE  H14S18561   0.073   5.606  28.246 -2.6018 -1.3303 -0.0639
  165SOPE  C21518562   0.102   5.646  28.028 -1.0499 -0.3199  0.2806
  165SOPE  H15R18563   0.006   5.700  28.030  0.5426  2.7106  1.8643
  165SOPE  H15S18564   0.098   5.586  27.935 -2.3431  0.9579 -0.5179
  165SOPE  C21618565   0.221   5.745  28.031 -0.1943 -0.3113 -0.7581
  165SOPE  H16R18566   0.225   5.808  27.939  2.4316  2.2486  0.9475
  165SOPE  H16S18567   0.305   5.673  28.023  0.1169 -0.0595  0.1522
  165SOPE  C21718568   0.224   5.832  28.158  0.1461 -0.6835 -0.1756
  165SOPE  H17R18569   0.321   5.886  28.154 -0.5056  0.5008 -0.4041
  165SOPE  H17S18570   0.213   5.759  28.241  0.1067 -0.4121  0.0597
  165SOPE  C21818571   0.105   5.933  28.161  0.0047  0.0073  0.6954
  165SOPE  H18R18572   0.008   5.887  28.188 -0.5869 -0.7713 -2.4104
  165SOPE  H18S18573   0.095   5.992  28.068 -2.2866 -0.8300  0.3552
  165SOPE  H18T18574   0.121   6.007  28.243  0.7490 -0.0774  0.6345
  165SOPE   C3318575   0.055   4.571  27.962 -0.1447  0.4790  0.0638
  165SOPE   H3X18576   0.019   4.570  28.067  0.8845  1.5445  0.4461
  165SOPE   H3Y18577  -0.029   4.530  27.903  0.1698 -2.6033  1.5592
  165SOPE   C3418578   0.074   4.717  27.914  0.1893 -0.1054  0.6472
  165SOPE   H4X18579   0.105   4.732  27.808  1.8436  0.6802  1.2170
  165SOPE   H4Y18580   0.150   4.767  27.978 -0.2452  0.9733  0.3438
  165SOPE   C3518581  -0.060   4.799  27.932 -0.2693  0.1928 -0.3995
  165SOPE   H5X18582  -0.031   4.906  27.933 -0.6666  0.3028  0.5946
  165SOPE   H5Y18583  -0.111   4.773  28.027 -1.9775  1.6710 -0.8638
  165SOPE   C3618584  -0.157   4.802  27.817  0.0303 -0.1840  0.3063
  165SOPE   H6X18585  -0.199   4.701  27.795  1.7248 -0.8970  0.1758
  165SOPE   H6Y18586  -0.094   4.836  27.731  0.1394  0.4008  0.6157
  165SOPE   C3718587  -0.265   4.910  27.829 -0.0345  0.0309  0.1936
  165SOPE   H7X18588  -0.342   4.893  27.751  0.2330  0.5559 -0.1883
  165SOPE   H7Y18589  -0.225   5.012  27.812 -2.8444  1.0387 -0.7774
  165SOPE   C3818590  -0.327   4.908  27.969 -0.3791 -0.5443 -0.3648
  165SOPE   H8X18591  -0.245   4.917  28.043 -0.1376  3.8138 -0.8595
  165SOPE   H8Y18592  -0.383   4.814  27.988 -2.1508  0.6663  0.8920
  165SOPE   C3918593  -0.435   5.024  28.002  0.1682  0.3384 -0.9345
  165SOPE   H9X18594  -0.515   5.035  27.927 -1.3428 -0.3769  0.5067
  165SOPE   H9Y18595  -0.371   5.115  28.007  1.7398 -0.6792 -1.8088
  165SOPE  C31018596  -0.508   5.012  28.139 -0.7735 -0.2608  0.0802
  165SOPE  H10X18597  -0.450   4.997  28.232 -2.2550 -0.2349  1.0456
  165SOPE  H10Y18598  -0.578   4.927  28.120  0.4911 -1.5025  0.8553
  165SOPE  C31118599  -0.602   5.135  28.155  0.0626 -1.0096  0.5411
  165SOPE  H11X18600  -0.690   5.123  28.088 -0.3085  1.2076  0.5459
  165SOPE  H11Y18601  -0.553   5.234  28.138  1.3802 -1.5921  0.8567
  165SOPE  C31218602  -0.668   5.146  28.296  0.4121  0.2409 -0.2572
  165SOPE  H12X18603  -0.714   5.047  28.316 -1.5326  0.9217 -1.0920
  165SOPE  H12Y18604  -0.749   5.222  28.303 -0.7679 -0.9833 -0.0315
  165SOPE  C31318605  -0.576   5.182  28.413  0.2005  0.6347  0.4870
  165SOPE  H13X18606  -0.492   5.111  28.392  0.2263  1.1671 -1.4161
  165SOPE  H13Y18607  -0.625   5.160  28.510  1.9377 -0.8281  1.1071
  165SOPE  C31418608  -0.516   5.323  28.418 -0.2738 -0.7264 -0.4733
  165SOPE  H14X18609  -0.471   5.339  28.318  0.6367  1.6043  0.2362
  165SOPE  H14Y18610  -0.437   5.331  28.496  1.5717  1.6283 -2.4258
  165SOPE  C31518611  -0.611   5.439  28.452 -0.2334  0.2016  0.2405
  165SOPE  H15X18612  -0.672   5.406  28.539  1.1363  0.6291  1.4091
  165SOPE  H15Y18613  -0.671   5.461  28.362 -1.8027 -0.7882  1.0100
  165SOPE  C31618614  -0.546   5.577  28.479  0.0115  1.0218 -0.3509
  165SOPE  H16X18615  -0.471   5.609  28.404  2.4820 -0.5789  1.3001
  165SOPE  H16Y18616  -0.501   5.560  28.579  0.1303 -1.3362 -0.7354
  165SOPE  C31718617  -0.657   5.683  28.505 -0.6473  0.4916  0.9788
  165SOPE  H17X18618  -0.710   5.649  28.597 -0.8639  1.5444  1.2478
  165SOPE  H17Y18619  -0.733   5.669  28.426 -0.0467 -1.6140  0.7006
  165SOPE  C31818620  -0.590   5.816  28.532  0.1397 -0.4044  0.6821
  165SOPE  H18X18621  -0.675   5.888  28.539  1.5708  1.2324  2.0993
  165SOPE  H18Y18622  -0.529   5.851  28.446 -3.8216  1.9547 -1.4581
  165SOPE  H18Z18623  -0.542   5.830  28.632 -0.0278  2.7682  0.4167
  166SOPE     N18624   0.748   0.257  30.264  0.3093 -0.2402  0.4215
  166SOPE   HN118625   0.681   0.312  30.206  1.0646 -0.7604 -0.9968
  166SOPE   HN218626   0.834   0.314  30.282 -0.3993  0.6338  1.1636
  166SOPE   HN318627   0.770   0.173  30.207 -2.3084 -1.4683  1.0560
  166SOPE   C1218628   0.688   0.221  30.398 -0.1777  0.0644  0.0589
  166SOPE  H12A18629   0.667   0.317  30.451 -0.7603  0.6788 -1.2497
  166SOPE  H12B18630   0.760   0.159  30.455 -0.0059  1.8019  1.8502
  166SOPE   C1118631   0.555   0.149  30.373 -0.4162  0.2728 -0.4778
  166SOPE  H11A18632   0.491   0.214  30.309 -0.7189  1.1008  0.6339
  166SOPE  H11B18633   0.501   0.140  30.469  0.7857  1.6138  0.3648
  166SOPE     P18634   0.554  -0.044  30.182 -0.4438 -0.5743 -0.2356
  166SOPE   O1318635   0.426  -0.112  30.157  0.2527 -0.1984 -0.8595
  166SOPE   O1418636   0.680  -0.114  30.156  0.2624  0.4973 -0.0009
  166SOPE   O1218637   0.569   0.021  30.322  0.3257  0.2143  0.2815
  166SOPE   O1118638   0.541   0.082  30.097 -0.7376  0.1669  0.4196
  166SOPE    C118639   0.496   0.086  29.960  0.3831  0.8646 -0.4542
  166SOPE    HA18640   0.401   0.143  29.950  1.0412  1.8772 -1.0926
  166SOPE    HB18641   0.483  -0.015  29.917  0.1634  0.4223  0.6034
  166SOPE    C218642   0.608   0.150  29.877  0.1564  0.4746  0.0530
  166SOPE    HS18643   0.699   0.085  29.883  1.2197  1.9434  0.5468
  166SOPE   O2118644   0.641   0.278  29.926  0.0617  0.4502 -0.1130
  166SOPE   C2118645   0.740   0.350  29.874 -0.3146  0.7991 -0.1497
  166SOPE   O2218646   0.840   0.301  29.818  0.0007 -0.3885  0.4040
  166SOPE   C2218647   0.730   0.485  29.933 -0.5918  0.2676  0.1850
  166SOPE   H2R18648   0.804   0.484  30.016 -1.1968  0.4678  0.7368
  166SOPE   H2S18649   0.628   0.503  29.972 -0.2424 -1.4630  2.0642
  166SOPE    C318650   0.571   0.169  29.720  1.1678 -0.5406  0.1058
  166SOPE    HX18651   0.558   0.065  29.683 -1.2792 -1.0922  2.2592
  166SOPE    HY18652   0.652   0.220  29.663  0.1053  0.7899 -0.2759
  166SOPE   O3118653   0.446   0.243  29.700 -0.6224 -0.3198 -0.0223
  166SOPE   C3118654   0.448   0.371  29.679  0.2479 -1.0152 -0.1526
  166SOPE   O3218655   0.544   0.444  29.663 -0.7191 -0.0421 -0.0277
  166SOPE   C3218656   0.310   0.425  29.660  0.3909 -0.6076  0.3599
  166SOPE   H2X18657   0.242   0.368  29.727  0.8193 -0.9669  0.4940
  166SOPE   H2Y18658   0.282   0.413  29.553 -0.3683 -1.7185  0.6631
  166SOPE   C2318659   0.774   0.588  29.829  0.0678  0.1257 -0.1009
  166SOPE   H3R18660   0.679   0.615  29.778 -0.0239 -0.8893 -0.4849
  166SOPE   H3S18661   0.850   0.557  29.755 -1.0094 -0.2843 -1.0731
  166SOPE   C2418662   0.825   0.718  29.893 -0.5553  0.0354  0.0347
  166SOPE   H4R18663   0.739   0.771  29.939 -0.9140  0.2031 -0.8114
  166SOPE   H4S18664   0.900   0.693  29.971 -0.0727  0.6385 -0.2279
  166SOPE   C2518665   0.897   0.808  29.786  0.0904 -0.4919 -0.3614
  166SOPE   H5R18666   0.971   0.873  29.837  0.5666 -1.4448  0.1968
  166SOPE   H5S18667   0.951   0.749  29.709 -0.1435  0.5846 -1.3672
  166SOPE   C2618668   0.794   0.890  29.712  0.1343  0.4444 -0.2626
  166SOPE   H6R18669   0.800   0.868  29.603  0.5285 -0.6494 -0.0358
  166SOPE   H6S18670   0.689   0.878  29.745  0.7656  1.6695  2.4774
  166SOPE   C2718671   0.821   1.043  29.741 -0.4431 -0.1759 -0.7280
  166SOPE   H7R18672   0.812   1.054  29.851 -2.3524 -0.0393 -0.8775
  166SOPE   H7S18673   0.927   1.069  29.720 -0.4876  0.8853  0.2708
  166SOPE   C2818674   0.729   1.146  29.681  0.0416 -0.2180  0.1366
  166SOPE   H8R18675   0.624   1.111  29.696  0.4503 -0.7782  1.9573
  166SOPE   H8S18676   0.725   1.244  29.734  3.6436 -0.6736  1.5444
  166SOPE   C2918677   0.753   1.173  29.535 -0.7728  0.1793 -0.1439
  166SOPE   H9118678   0.744   1.082  29.475  1.2266 -0.4764  0.4817
  166SOPE  C21018679   0.788   1.293  29.482  0.3934  0.0297 -0.0912
  166SOPE  H10118680   0.789   1.297  29.372 -0.6818  2.8568 -0.0832
  166SOPE  C21118681   0.814   1.428  29.545  0.3217  0.7447 -0.1140
  166SOPE  H11R18682   0.917   1.461  29.518  0.5827 -1.3577 -2.0043
  166SOPE  H11S18683   0.803   1.407  29.653  2.3657 -0.8597 -0.1605
  166SOPE  C21218684   0.701   1.533  29.515 -0.3281  0.3757  0.7132
  166SOPE  H12R18685   0.722   1.633  29.559  0.9735 -0.3363  1.7861
  166SOPE  H12S18686   0.604   1.501  29.559  0.4887 -2.4419  0.6788
  166SOPE  C21318687   0.671   1.554  29.369 -0.1396 -0.1087  1.1528
  166SOPE  H13R18688   0.609   1.470  29.331  0.6276 -0.5520  0.8500
  166SOPE  H13S18689   0.769   1.559  29.317  0.4067 -1.1544  2.0297
  166SOPE  C21418690   0.578   1.681  29.343 -0.6194  0.6163  0.2448
  166SOPE  H14R18691   0.593   1.708  29.236  1.6652 -2.5108 -0.3813
  166SOPE  H14S18692   0.624   1.768  29.395 -0.0804  1.2796 -1.2905
  166SOPE  C21518693   0.431   1.660  29.387 -0.4352 -0.3640  0.7037
  166SOPE  H15R18694   0.433   1.596  29.478 -0.0701 -3.0378 -1.0763
  166SOPE  H15S18695   0.372   1.606  29.311  1.7942 -2.3060  0.2417
  166SOPE  C21618696   0.367   1.792  29.416  0.4680  0.7485  0.2235
  166SOPE  H16R18697   0.416   1.846  29.501 -0.4995  0.7183  0.8117
  166SOPE  H16S18698   0.267   1.760  29.451  1.8430 -1.6303  2.3623
  166SOPE  C21718699   0.351   1.892  29.300 -0.0203 -0.3033 -0.3521
  166SOPE  H17R18700   0.286   1.844  29.224 -1.3386  0.6647  0.1079
  166SOPE  H17S18701   0.452   1.927  29.268  1.5173 -0.6568  3.5500
  166SOPE  C21818702   0.300   2.022  29.360 -0.1548 -1.1120  0.3613
  166SOPE  H18R18703   0.319   2.108  29.293  1.3069  0.9134  3.1332
  166SOPE  H18S18704   0.347   2.043  29.459  0.9972  1.5287 -0.6540
  166SOPE  H18T18705   0.189   2.020  29.362 -0.1678 -1.4857 -0.4736
  166SOPE   C3318706   0.303   0.574  29.708  0.5692  0.3617 -0.0898
  166SOPE   H3X18707   0.207   0.624  29.686 -0.9511 -1.7036  1.5160
  166SOPE   H3Y18708   0.376   0.644  29.662  0.3204  2.3672  2.3287
  166SOPE   C3418709   0.310   0.572  29.861  0.5948 -0.3928  0.5742
  166SOPE   H4X18710   0.354   0.480  29.907 -1.1673 -0.6253  1.9033
  166SOPE   H4Y18711   0.204   0.565  29.893 -0.0226  2.6304 -0.5077
  166SOPE   C3518712   0.350   0.705  29.934  0.6754  0.0510  0.6727
  166SOPE   H5X18713   0.439   0.737  29.875 -0.4392 -0.4945 -1.4190
  166SOPE   H5Y18714   0.372   0.686  30.041  0.0977  0.2052  0.8205
  166SOPE   C3618715   0.243   0.821  29.909  0.3492  0.3651  0.1439
  166SOPE   H6X18716   0.144   0.774  29.926 -0.4700  0.8319 -2.8191
  166SOPE   H6Y18717   0.250   0.851  29.803  1.0782  0.5381  0.2377
  166SOPE   C3718718   0.267   0.946  29.995 -0.0673  0.1133 -0.1332
  166SOPE   H7X18719   0.254   0.912  30.099  0.2580  2.4216  0.7267
  166SOPE   H7Y18720   0.186   1.022  29.982 -0.1308 -0.0050 -0.4316
  166SOPE   C3818721   0.409   0.998  29.985  0.0995  0.1970 -0.4312
  166SOPE   H8X18722   0.433   0.985  29.877 -0.3961 -3.7189 -0.2032
  166SOPE   H8Y18723   0.467   0.931  30.051 -0.5112  0.6254  0.5774
  166SOPE   C3918724   0.423   1.144  30.030  0.2828  0.9010 -0.5755
  166SOPE   H9X18725   0.392   1.151  30.137  1.0549 -1.6293 -0.1229
  166SOPE   H9Y18726   0.348   1.195  29.966 -3.0593 -0.6892  1.7425
  166SOPE  C31018727   0.567   1.188  30.003 -0.1249 -0.4094 -0.0933
  166SOPE  H10X18728   0.592   1.196  29.895 -0.6373 -0.0907 -0.1899
  166SOPE  H10Y18729   0.648   1.123  30.043  0.2450  0.3256  0.3867
  166SOPE  C31118730   0.583   1.328  30.066 -0.1293 -0.8465  0.0370
  166SOPE  H11X18731   0.586   1.330  30.177 -1.0755  0.6568  0.0670
  166SOPE  H11Y18732   0.494   1.389  30.040 -0.0427 -1.0561 -0.7817
  166SOPE  C31218733   0.706   1.395  29.995 -0.1500 -0.5208 -0.2033
  166SOPE  H12X18734   0.708   1.500  30.032  0.1447 -0.5074 -0.2580
  166SOPE  H12Y18735   0.701   1.401  29.884 -1.6039 -0.0064 -0.1342
  166SOPE  C31318736   0.838   1.322  30.024 -0.1818 -0.4021  0.3227
  166SOPE  H13X18737   0.845   1.223  29.975  2.3050  0.1633 -0.5705
  166SOPE  H13Y18738   0.842   1.293  30.131  0.0550  0.2533  0.4963
  166SOPE  C31418739   0.959   1.409  29.988  0.5179  0.1478 -0.1982
  166SOPE  H14X18740   0.942   1.497  30.053 -2.5229 -1.9793  2.2329
  166SOPE  H14Y18741   0.956   1.454  29.886 -0.7541 -1.1511 -0.7708
  166SOPE  C31518742   1.094   1.339  30.001 -0.4672  0.0091  0.0735
  166SOPE  H15X18743   1.107   1.301  30.104  0.1206 -0.1082 -0.0436
  166SOPE  H15Y18744   1.168   1.415  29.970 -1.1806  0.9415  0.5987
  166SOPE  C31618745   1.112   1.226  29.896 -0.3908  0.4948 -0.3958
  166SOPE  H16X18746   1.109   1.260  29.790 -2.2282  0.7297 -0.3014
  166SOPE  H16Y18747   1.037   1.149  29.923 -0.4235  0.1051 -1.5617
  166SOPE  C31718748   1.247   1.162  29.912 -0.3388 -0.8800 -0.0075
  166SOPE  H17X18749   1.273   1.136  30.017  0.3405 -0.6858 -0.1210
  166SOPE  H17Y18750   1.314   1.244  29.876 -1.6444  1.5118  2.6418
  166SOPE  C31818751   1.268   1.044  29.825  0.4811 -0.6306  0.2536
  166SOPE  H18X18752   1.171   0.995  29.802  0.4215  0.7945 -3.0478
  166SOPE  H18Y18753   1.341   0.975  29.873  0.5756 -0.4031  0.4337
  166SOPE  H18Z18754   1.313   1.067  29.726  0.0157  3.0301  0.7698
  167SOPE     N18755   1.322   1.433  16.668 -0.0227  0.6736  0.2677
  167SOPE   HN118756   1.388   1.356  16.690  0.7510  0.8560 -1.3239
  167SOPE   HN218757   1.306   1.428  16.566 -1.9145  2.2418  0.4320
  167SOPE   HN318758   1.360   1.524  16.701 -0.2001  0.7719  0.2010
  167SOPE   C1218759   1.198   1.423  16.751 -0.5156  0.0672  0.1244
  167SOPE  H12A18760   1.120   1.397  16.676  0.9539 -1.0794 -1.0692
  167SOPE  H12B18761   1.182   1.522  16.798  1.5582 -0.2770  1.7100
  167SOPE   C1118762   1.214   1.323  16.868  0.4767  0.1837  0.4689
  167SOPE  H11A18763   1.243   1.221  16.834  0.7233 -0.4805  2.5271
  167SOPE  H11B18764   1.112   1.323  16.912  1.3785  0.0208  2.6608
  167SOPE     P18765   1.290   1.419  17.095  0.0634 -0.3018 -0.4675
  167SOPE   O1318766   1.150   1.385  17.139 -0.6175 -0.0242  0.0030
  167SOPE   O1418767   1.319   1.565  17.087  0.0518  0.0405 -0.0438
  167SOPE   O1218768   1.315   1.358  16.958 -0.0225 -0.2388  0.0636
  167SOPE   O1118769   1.398   1.355  17.189  0.5555  0.4669  0.4490
  167SOPE    C118770   1.495   1.256  17.135 -0.2266  0.0263  0.1296
  167SOPE    HA18771   1.503   1.265  17.025  1.8356  0.6406  0.2908
  167SOPE    HB18772   1.455   1.155  17.160  1.1852 -0.3599  0.9232
  167SOPE    C218773   1.638   1.255  17.203 -0.1777  0.1679  0.3100
  167SOPE    HS18774   1.708   1.201  17.135 -1.1592  0.5055 -1.0057
  167SOPE   O2118775   1.619   1.195  17.332  0.2432 -0.4365 -0.0578
  167SOPE   C2118776   1.681   1.092  17.363  0.2030  0.6686 -0.2637
  167SOPE   O2218777   1.758   1.031  17.287 -0.3307 -0.2366 -0.1654
  167SOPE   C2218778   1.667   1.052  17.502  0.0350  0.2390 -0.4811
  167SOPE   H2R18779   1.575   1.090  17.552  1.8510  2.0390  1.7365
  167SOPE   H2S18780   1.748   1.086  17.570 -0.4150 -1.9485  1.2813
  167SOPE    C318781   1.684   1.400  17.216 -0.2770 -0.0811  0.1028
  167SOPE    HX18782   1.615   1.449  17.289 -3.5954  1.3149 -3.5900
  167SOPE    HY18783   1.670   1.464  17.125  1.4676  0.7780  0.3965
  167SOPE   O3118784   1.818   1.411  17.266 -0.8716  0.1314  0.3091
  167SOPE   C3118785   1.910   1.414  17.164  0.3875 -0.4882 -0.0671
  167SOPE   O3218786   1.882   1.384  17.050 -0.0035  0.2075 -0.3568
  167SOPE   C3218787   2.052   1.458  17.217 -1.0070 -0.1505 -0.3239
  167SOPE   H2X18788   2.042   1.538  17.293  0.0896 -0.8289  0.5721
  167SOPE   H2Y18789   2.100   1.499  17.126 -0.9581  1.0112  0.2061
  167SOPE   C2318790   1.665   0.893  17.510  0.1557  0.4639 -0.1945
  167SOPE   H3R18791   1.768   0.865  17.481  0.7801  1.8506  0.5784
  167SOPE   H3S18792   1.581   0.864  17.443 -2.4984  2.0920  2.1616
  167SOPE   C2418793   1.617   0.845  17.649 -0.0526  0.4112 -0.2070
  167SOPE   H4R18794   1.649   0.741  17.669  0.3471  0.7113  0.8327
  167SOPE   H4S18795   1.662   0.914  17.724 -0.5854  0.3619  0.1645
  167SOPE   C2518796   1.464   0.867  17.657 -0.4363 -0.0578  0.2476
  167SOPE   H5R18797   1.444   0.878  17.766  1.3931  0.2471  0.5835
  167SOPE   H5S18798   1.427   0.954  17.598 -0.3996 -0.0863  0.1828
  167SOPE   C2618799   1.374   0.741  17.618 -0.7182 -0.5882 -0.2288
  167SOPE   H6R18800   1.270   0.779  17.616 -0.4442  0.2347  0.6031
  167SOPE   H6S18801   1.406   0.715  17.515 -0.5172 -0.6754 -0.1449
  167SOPE   C2718802   1.371   0.615  17.704 -0.0397 -0.8169  0.5078
  167SOPE   H7R18803   1.476   0.589  17.733  0.0571 -1.8381 -0.6856
  167SOPE   H7S18804   1.321   0.651  17.796 -0.6062 -2.2282  0.7787
  167SOPE   C2818805   1.289   0.499  17.645 -0.3799 -1.0077  0.9441
  167SOPE   H8R18806   1.312   0.488  17.537  2.0305  1.8457  1.0522
  167SOPE   H8S18807   1.313   0.402  17.694  2.7359 -2.5820 -3.1983
  167SOPE   C2918808   1.145   0.519  17.668  0.4911 -0.5260 -0.0434
  167SOPE   H9118809   1.107   0.606  17.723 -2.3188 -0.0489 -2.4881
  167SOPE  C21018810   1.046   0.439  17.621  0.1596 -0.2406  0.2820
  167SOPE  H10118811   0.943   0.464  17.652  0.1212 -0.1759  0.1039
  167SOPE  C21118812   1.066   0.321  17.527 -0.0158  0.8898  0.2108
  167SOPE  H11R18813   1.153   0.329  17.459  0.4187 -0.3041  0.6039
  167SOPE  H11S18814   0.976   0.317  17.462 -1.0855 -0.7730  1.6757
  167SOPE  C21218815   1.079   0.176  17.593 -0.2664 -0.2692  0.0735
  167SOPE  H12R18816   1.161   0.166  17.668 -0.8734 -1.6712  0.5771
  167SOPE  H12S18817   1.110   0.111  17.509 -0.5545  0.2251 -0.4197
  167SOPE  C21318818   0.941   0.112  17.635 -0.1486  0.0211 -0.7718
  167SOPE  H13R18819   0.885   0.106  17.539  1.9243  0.2991 -2.0676
  167SOPE  H13S18820   0.897   0.176  17.714 -1.4233 -0.8611 -0.7281
  167SOPE  C21418821   0.950  -0.033  17.693  0.3060 -0.4374 -0.1868
  167SOPE  H14R18822   0.989  -0.043  17.797 -3.3224 -2.0034  1.1574
  167SOPE  H14S18823   1.025  -0.082  17.627 -0.2003 -0.2852 -0.8865
  167SOPE  C21518824   0.818  -0.112  17.683  0.8470 -0.3912  0.0546
  167SOPE  H15R18825   0.802  -0.122  17.574 -1.2581 -1.6084  0.4175
  167SOPE  H15S18826   0.736  -0.043  17.714  0.7824 -1.0743  1.5007
  167SOPE  C21618827   0.819  -0.238  17.765  0.2691  0.1080 -0.3774
  167SOPE  H16R18828   0.913  -0.295  17.745 -0.1954 -0.4052 -1.1032
  167SOPE  H16S18829   0.725  -0.295  17.749  0.4134 -1.1322  2.4716
  167SOPE  C21718830   0.826  -0.210  17.919 -0.3546  0.7568  0.3836
  167SOPE  H17R18831   0.736  -0.150  17.944  0.2411  2.2071 -0.8287
  167SOPE  H17S18832   0.919  -0.159  17.951  1.2005 -2.1135  0.7734
  167SOPE  C21818833   0.828  -0.345  17.990  0.2654  0.4329 -0.4993
  167SOPE  H18R18834   0.869  -0.331  18.092 -0.5966  1.6065 -0.2930
  167SOPE  H18S18835   0.888  -0.425  17.941 -1.6952 -0.5271 -1.4548
  167SOPE  H18T18836   0.724  -0.385  17.992  1.3515 -2.6547 -0.4829
  167SOPE   C3318837   2.129   1.338  17.278  0.0463 -0.6085 -0.0941
  167SOPE   H3X18838   2.225   1.367  17.326 -1.6201  2.1882  1.8693
  167SOPE   H3Y18839   2.168   1.272  17.198  4.8376  2.2021 -0.4378
  167SOPE   C3418840   2.065   1.269  17.398  0.8602  0.0534 -0.3828
  167SOPE   H4X18841   1.967   1.225  17.370 -0.1147  0.8540  1.6100
  167SOPE   H4Y18842   2.045   1.354  17.466 -0.5444 -1.4348  1.1543
  167SOPE   C3518843   2.146   1.171  17.487 -0.7813 -0.3132  0.3067
  167SOPE   H5X18844   2.233   1.217  17.539 -0.1118 -0.0123 -1.0396
  167SOPE   H5Y18845   2.167   1.080  17.426 -2.3701  0.5064 -1.5690
  167SOPE   C3618846   2.065   1.120  17.608 -1.0215  0.2528  0.2486
  167SOPE   H6X18847   1.979   1.056  17.581 -0.3469  0.1357 -1.8334
  167SOPE   H6Y18848   2.028   1.210  17.661 -0.2205 -0.1212  1.4837
  167SOPE   C3718849   2.155   1.038  17.701  0.1582  0.5963  0.2472
  167SOPE   H7X18850   2.250   1.092  17.719  0.6278 -0.6652  1.7984
  167SOPE   H7Y18851   2.184   0.948  17.641  2.6295  2.3064 -1.3167
  167SOPE   C3818852   2.084   1.010  17.832 -0.1702 -0.1380  0.0506
  167SOPE   H8X18853   1.987   0.957  17.817  0.1323 -0.2670 -1.6435
  167SOPE   H8Y18854   2.068   1.102  17.893  0.0776 -0.4123  0.5329
  167SOPE   C3918855   2.166   0.915  17.923 -0.2912  0.1074  0.1569
  167SOPE   H9X18856   2.252   0.959  17.978  0.4443  0.0938 -0.9520
  167SOPE   H9Y18857   2.214   0.842  17.855  0.8333  1.7283 -0.8847
  167SOPE  C31018858   2.070   0.853  18.028  0.1409  0.3271  0.0263
  167SOPE  H10X18859   1.993   0.796  17.971 -0.2496 -0.7322  1.5625
  167SOPE  H10Y18860   2.008   0.934  18.071 -0.1485  0.6456 -0.9482
  167SOPE  C31118861   2.150   0.762  18.119 -0.0600 -1.2676  0.0576
  167SOPE  H11X18862   2.240   0.802  18.170 -1.4107  1.5284  0.4769
  167SOPE  H11Y18863   2.198   0.688  18.051  0.2706 -0.0106 -1.1265
  167SOPE  C31218864   2.062   0.703  18.230  0.0311 -0.3185  0.5085
  167SOPE  H12X18865   1.960   0.676  18.194 -0.1807 -1.8444  2.0818
  167SOPE  H12Y18866   2.058   0.774  18.315 -0.5711 -0.5131  0.6464
  167SOPE  C31318867   2.126   0.569  18.279  0.7175 -0.2914  0.3745
  167SOPE  H13X18868   2.236   0.571  18.260  0.6494 -2.2778 -0.5045
  167SOPE  H13Y18869   2.074   0.487  18.226 -2.8784  1.5771  0.7228
  167SOPE  C31418870   2.100   0.557  18.430 -0.5505 -0.3557  0.1159
  167SOPE  H14X18871   1.991   0.551  18.449 -0.3355 -1.7835  1.1485
  167SOPE  H14Y18872   2.151   0.639  18.484  1.1631 -0.0285 -1.8640
  167SOPE  C31518873   2.155   0.429  18.496  0.5002  0.0797  0.6290
  167SOPE  H15X18874   2.118   0.424  18.601 -1.6063 -2.6861 -0.1008
  167SOPE  H15Y18875   2.266   0.426  18.497  0.4943 -0.9243  0.0534
  167SOPE  C31618876   2.102   0.299  18.436 -1.0865  0.2199 -0.1692
  167SOPE  H16X18877   2.174   0.286  18.352  1.2205  0.5105  1.6603
  167SOPE  H16Y18878   2.010   0.320  18.378  0.8990  2.6271 -2.7177
  167SOPE  C31718879   2.100   0.167  18.513  0.9591  0.1557  0.4888
  167SOPE  H17X18880   2.196   0.148  18.567  0.7748 -0.5544  0.5731
  167SOPE  H17Y18881   2.097   0.088  18.435  1.4705  0.7219 -0.1076
  167SOPE  C31818882   1.989   0.168  18.616  0.3861 -0.5024  0.5022
  167SOPE  H18X18883   1.974   0.082  18.684  1.6245  1.5142  3.4923
  167SOPE  H18Y18884   1.897   0.192  18.557  1.9485  0.3768 -1.7103
  167SOPE  H18Z18885   1.989   0.263  18.674  0.8227  1.1346 -1.9843
  168SOPE     N18886   2.520   2.322  21.736 -0.1359  0.4794 -0.2579
  168SOPE   HN118887   2.597   2.257  21.761  0.4412  1.7166  1.3820
  168SOPE   HN218888   2.457   2.328  21.818  1.9671  2.9585  1.3525
  168SOPE   HN318889   2.475   2.296  21.645 -2.4173  0.3708  0.8322
  168SOPE   C1218890   2.588   2.453  21.727  0.0028 -0.4856  0.5684
  168SOPE  H12A18891   2.689   2.442  21.681 -0.2946  0.3901 -0.3514
  168SOPE  H12B18892   2.607   2.501  21.825 -2.7193  3.6738 -0.6767
  168SOPE   C1118893   2.501   2.553  21.645 -0.7639 -0.1324 -0.4939
  168SOPE  H11A18894   2.562   2.643  21.620  0.8824 -0.4699  1.9772
  168SOPE  H11B18895   2.418   2.591  21.707 -0.7516  2.2862 -1.8290
  168SOPE     P18896   2.468   2.523  21.383 -0.1394  0.1685  0.3755
  168SOPE   O1318897   2.366   2.620  21.339  0.0283 -0.4239  0.2818
  168SOPE   O1418898   2.469   2.393  21.314 -0.4142  0.4076 -0.2332
  168SOPE   O1218899   2.437   2.489  21.534 -0.0679 -0.0034 -0.0694
  168SOPE   O1118900   2.611   2.588  21.379 -0.0143 -0.7081 -0.6267
  168SOPE    C118901   2.625   2.722  21.332  0.4695  0.8020  0.2715
  168SOPE    HA18902   2.555   2.781  21.396  0.7610  1.7709 -0.2868
  168SOPE    HB18903   2.595   2.733  21.225 -1.2343 -0.0007  0.6272
  168SOPE    C218904   2.771   2.760  21.347  0.6549  0.1155  0.2701
  168SOPE    HS18905   2.825   2.667  21.319 -0.3135 -0.3171 -0.2099
  168SOPE   O2118906   2.785   2.811  21.484  0.1159 -0.1051  0.3142
  168SOPE   C2118907   2.852   2.731  21.570 -0.0878  0.8215 -0.3873
  168SOPE   O2218908   2.894   2.624  21.542 -0.2600  0.3794  0.5082
  168SOPE   C2218909   2.863   2.797  21.710 -0.2707 -0.2670  0.1176
  168SOPE   H2R18910   2.949   2.867  21.717 -0.4598  0.1644 -1.4402
  168SOPE   H2S18911   2.888   2.710  21.773  1.0120 -0.8756 -1.1677
  168SOPE    C318912   2.819   2.876  21.250 -0.0765  0.2868  0.0817
  168SOPE    HX18913   2.815   2.838  21.146  0.1174  3.1223 -1.0413
  168SOPE    HY18914   2.927   2.885  21.275 -0.2644  0.9962  0.6853
  168SOPE   O3118915   2.739   2.994  21.261  0.5054  0.1952 -0.1763
  168SOPE   C3118916   2.781   3.089  21.351 -0.7657  0.4849 -0.2788
  168SOPE   O3218917   2.893   3.086  21.405 -0.4503  0.2828 -0.2275
  168SOPE   C3218918   2.675   3.202  21.372 -1.2983  0.3367  0.1798
  168SOPE   H2X18919   2.664   3.222  21.481  1.7472  0.9553  0.4633
  168SOPE   H2Y18920   2.573   3.170  21.342 -1.9609  1.8115  0.7656
  168SOPE   C2318921   2.734   2.870  21.749  0.1235 -0.2569 -0.1367
  168SOPE   H3R18922   2.722   2.841  21.856  2.0325  0.2019  0.2402
  168SOPE   H3S18923   2.646   2.829  21.696 -1.1161  0.7347  1.0769
  168SOPE   C2418924   2.743   3.025  21.739  0.0728  0.0759  0.0754
  168SOPE   H4R18925   2.820   3.045  21.662 -1.8755  2.0674 -1.4911
  168SOPE   H4S18926   2.652   3.070  21.694  0.1400 -0.6248 -0.7972
  168SOPE   C2518927   2.763   3.090  21.868 -0.4847 -0.6306 -0.4145
  168SOPE   H5R18928   2.679   3.048  21.927 -0.3584 -1.0999 -0.5645
  168SOPE   H5S18929   2.858   3.056  21.915  1.2921  4.0018 -0.0675
  168SOPE   C2618930   2.770   3.240  21.848 -0.0422  0.3088  0.5387
  168SOPE   H6R18931   2.817   3.257  21.749 -2.2367  1.0728 -0.4375
  168SOPE   H6S18932   2.670   3.285  21.829 -0.5945 -1.2305 -0.3650
  168SOPE   C2718933   2.853   3.307  21.964 -1.1327 -0.8370  0.6100
  168SOPE   H7R18934   2.823   3.280  22.067  1.1365 -0.2537  1.4774
  168SOPE   H7S18935   2.955   3.263  21.966 -0.0708  1.2157 -1.9717
  168SOPE   C2818936   2.857   3.461  21.950  0.1462  0.5840 -0.5465
  168SOPE   H8R18937   2.921   3.518  22.021  0.1424  0.1568 -0.1971
  168SOPE   H8S18938   2.915   3.471  21.855 -0.5968 -0.9526 -1.1901
  168SOPE   C2918939   2.726   3.527  21.939 -0.1351  0.5716  0.0046
  168SOPE   H9118940   2.639   3.488  21.995  0.7494 -0.9664  0.3561
  168SOPE  C21018941   2.706   3.646  21.871  0.4696 -0.4914 -0.5570
  168SOPE  H10118942   2.600   3.678  21.866  0.4925 -0.1493  0.6542
  168SOPE  C21118943   2.808   3.725  21.799  0.6951  0.4337 -0.3297
  168SOPE  H11R18944   2.905   3.715  21.853  0.1510 -0.1134  0.5651
  168SOPE  H11S18945   2.778   3.832  21.792 -1.1673  0.0283  0.8290
  168SOPE  C21218946   2.822   3.677  21.653 -0.0466  0.2857  0.5150
  168SOPE  H12R18947   2.718   3.652  21.625 -0.8130  0.4373  2.9520
  168SOPE  H12S18948   2.875   3.580  21.646  2.1862  1.5564 -1.5966
  168SOPE  C21318949   2.889   3.789  21.564  0.2362 -0.4297  0.7537
  168SOPE  H13R18950   2.909   3.751  21.461 -1.9857  0.0510  0.0912
  168SOPE  H13S18951   2.989   3.821  21.601  0.5917  0.4828 -0.8704
  168SOPE  C21418952   2.804   3.914  21.537 -0.4652 -0.2133  0.6603
  168SOPE  H14R18953   2.797   3.958  21.639 -0.7784 -1.8292  1.3632
  168SOPE  H14S18954   2.701   3.888  21.507  0.2629  0.2672 -2.5675
  168SOPE  C21518955   2.863   4.019  21.443  0.1410 -0.0856  0.5105
  168SOPE  H15R18956   2.942   4.071  21.501 -1.0019 -0.5602  2.5859
  168SOPE  H15S18957   2.788   4.097  21.417  2.2967  1.9447 -0.0186
  168SOPE  C21618958   2.910   3.959  21.313 -0.5773 -0.3079  0.2374
  168SOPE  H16R18959   2.842   3.885  21.266  0.4168 -0.3367 -1.2511
  168SOPE  H16S18960   3.003   3.901  21.330  0.1950  0.1276 -2.1053
  168SOPE  C21718961   2.921   4.049  21.194  0.0661 -0.1208  0.7310
  168SOPE  H17R18962   2.824   4.091  21.160  1.4905  1.7628 -1.3655
  168SOPE  H17S18963   2.950   3.978  21.113  0.3879 -0.4381  1.1165
  168SOPE  C21818964   3.024   4.161  21.188 -0.0669 -0.3369 -0.1632
  168SOPE  H18R18965   3.015   4.221  21.095 -1.5817  0.0674  0.2185
  168SOPE  H18S18966   3.132   4.137  21.201  0.0248  1.0006  2.1354
  168SOPE  H18T18967   3.001   4.227  21.274  2.7909  2.0778 -1.1144
  168SOPE   C3318968   2.715   3.338  21.321 -0.2388  0.6013 -0.5601
  168SOPE   H3X18969   2.731   3.335  21.211  2.4353  1.7560 -0.2866
  168SOPE   H3Y18970   2.815   3.367  21.360 -0.0602 -2.1859  1.3482
  168SOPE   C3418971   2.612   3.447  21.369  0.0343 -0.1088  0.7013
  168SOPE   H4X18972   2.615   3.442  21.480 -1.8557 -0.5869  0.7518
  168SOPE   H4Y18973   2.509   3.419  21.338  0.3147 -0.5422  0.1400
  168SOPE   C3518974   2.644   3.588  21.317 -0.1691  0.4251 -0.6211
  168SOPE   H5X18975   2.754   3.597  21.331 -0.1772 -0.8910  0.5219
  168SOPE   H5Y18976   2.599   3.657  21.391 -1.2849  0.6067 -1.4313
  168SOPE   C3618977   2.607   3.631  21.177  0.3068  0.2780 -0.0021
  168SOPE   H6X18978   2.507   3.584  21.167  1.3527 -2.1084  0.0650
  168SOPE   H6Y18979   2.669   3.595  21.092  0.5412 -0.1360  0.3390
  168SOPE   C3718980   2.586   3.781  21.155  0.4763 -0.3456  0.6677
  168SOPE   H7X18981   2.684   3.831  21.144  2.0498 -3.4285 -0.6077
  168SOPE   H7Y18982   2.545   3.832  21.245 -0.3974  1.2237 -0.5566
  168SOPE   C3818983   2.512   3.798  21.019 -0.0308 -0.1549 -0.2957
  168SOPE   H8X18984   2.420   3.737  21.014  0.4818 -1.2993  2.4370
  168SOPE   H8Y18985   2.582   3.762  20.940  2.0186  1.3481  0.7350
  168SOPE   C3918986   2.473   3.943  20.994 -0.2407  0.3333  0.1136
  168SOPE   H9X18987   2.569   3.997  21.005  0.5357 -1.0938  0.6859
  168SOPE   H9Y18988   2.403   3.975  21.075  1.0085  0.4880  1.1554
  168SOPE  C31018989   2.424   3.960  20.846 -0.6394  0.5874 -0.3805
  168SOPE  H10X18990   2.332   3.900  20.830 -0.3044 -0.7874  2.3432
  168SOPE  H10Y18991   2.499   3.922  20.774  0.2117  0.0275  0.7745
  168SOPE  C31118992   2.401   4.107  20.817 -0.5228 -0.2293 -0.1795
  168SOPE  H11X18993   2.501   4.149  20.844 -0.7792 -0.0012  0.4275
  168SOPE  H11Y18994   2.326   4.145  20.890  0.3419 -1.8252  1.6377
  168SOPE  C31218995   2.370   4.142  20.675  0.4800 -0.2304  0.6101
  168SOPE  H12X18996   2.289   4.076  20.636  0.3517 -0.0157  0.5093
  168SOPE  H12Y18997   2.465   4.121  20.621  1.2818  0.5770  1.6587
  168SOPE  C31318998   2.337   4.297  20.660  0.0170  0.8726 -0.0765
  168SOPE  H13X18999   2.273   4.327  20.746  1.0513 -1.3820  1.5603
  168SOPE  H13Y19000   2.279   4.318  20.567  0.6170  0.7693 -0.4754
  168SOPE  C31419001   2.464   4.386  20.652  0.0194 -0.0838 -0.3665
  168SOPE  H14X19002   2.519   4.360  20.559  0.5536 -2.4556  0.5479
  168SOPE  H14Y19003   2.538   4.360  20.731  0.5894 -0.0915 -0.8940
  168SOPE  C31519004   2.429   4.537  20.655 -0.7023  0.1100 -0.0745
  168SOPE  H15X19005   2.365   4.552  20.745  0.8123 -0.9875  1.2411
  168SOPE  H15Y19006   2.358   4.554  20.572  1.9287 -1.2239 -2.7801
  168SOPE  C31619007   2.554   4.632  20.653 -0.0210  0.3518  0.3457
  168SOPE  H16X19008   2.527   4.721  20.592  0.3309  0.9317  1.0170
  168SOPE  H16Y19009   2.646   4.582  20.616 -1.8888 -1.6101 -2.0581
  168SOPE  C31719010   2.582   4.676  20.794  0.8123  0.5408  0.6437
  168SOPE  H17X19011   2.616   4.586  20.849  0.5445  0.4032  0.5857
  168SOPE  H17Y19012   2.488   4.709  20.842 -0.3753 -0.7420 -0.6959
  168SOPE  C31819013   2.689   4.784  20.804  0.1665  0.0179 -0.5805
  168SOPE  H18X19014   2.777   4.773  20.736  1.3165  0.5804  0.7618
  168SOPE  H18Y19015   2.728   4.772  20.907 -1.4600  0.8456  0.1637
  168SOPE  H18Z19016   2.651   4.887  20.790  1.1857  0.2866 -1.5315
  169SOPE     N19017   2.385   1.255  16.531 -1.0028 -0.0599  0.7650
  169SOPE   HN119018   2.282   1.250  16.545 -1.1339 -2.7597 -0.3767
  169SOPE   HN219019   2.400   1.264  16.428  1.3555 -0.3662  1.0211
  169SOPE   HN319020   2.418   1.163  16.567 -2.3067 -0.7852  0.1620
  169SOPE   C1219021   2.459   1.367  16.593  0.7813 -0.3782 -0.8339
  169SOPE  H12A19022   2.439   1.365  16.702  1.1621  2.3781 -0.6285
  169SOPE  H12B19023   2.407   1.460  16.559 -0.2916 -0.6618 -0.0323
  169SOPE   C1119024   2.605   1.385  16.563  0.4444 -0.4563 -0.5759
  169SOPE  H11A19025   2.648   1.461  16.632  1.2148  3.3433 -4.7579
  169SOPE  H11B19026   2.618   1.437  16.466  0.9727 -0.3468 -0.4493
  169SOPE     P19027   2.819   1.250  16.537 -0.3581 -0.2600 -0.3360
  169SOPE   O1319028   2.898   1.238  16.665 -0.0382 -0.2171  0.5489
  169SOPE   O1419029   2.851   1.374  16.459  0.3540  0.0078 -0.5240
  169SOPE   O1219030   2.666   1.256  16.573 -0.6538 -0.0143  0.1333
  169SOPE   O1119031   2.834   1.113  16.461  0.2257  0.1193  0.4980
  169SOPE    C119032   2.735   1.043  16.388 -0.1831  0.4666 -0.2337
  169SOPE    HA19033   2.772   1.025  16.285 -0.6464  0.3785 -0.3904
  169SOPE    HB19034   2.642   1.100  16.364 -0.5284  0.4293  0.9648
  169SOPE    C219035   2.696   0.908  16.457 -0.3849  0.5903 -0.1627
  169SOPE    HS19036   2.592   0.883  16.428 -0.7865  0.7273  1.0847
  169SOPE   O2119037   2.709   0.909  16.600 -0.4824  0.2800  0.0488
  169SOPE   C2119038   2.615   0.970  16.657  0.5232  0.4195  0.0334
  169SOPE   O2219039   2.504   0.996  16.604 -0.2201 -0.4260  0.0004
  169SOPE   C2219040   2.638   1.002  16.801  0.0707 -0.4898  0.0407
  169SOPE   H2R19041   2.561   1.081  16.814  2.0154  1.7671 -1.2456
  169SOPE   H2S19042   2.740   1.043  16.809 -0.3685  0.6742 -0.1246
  169SOPE    C319043   2.785   0.797  16.394 -0.6335  1.0076 -0.2699
  169SOPE    HX19044   2.892   0.799  16.423 -0.7109 -0.3904  0.1777
  169SOPE    HY19045   2.792   0.804  16.284  3.6130  1.9561 -0.1189
  169SOPE   O3119046   2.728   0.669  16.434 -0.0923  0.4154  0.1496
  169SOPE   C3119047   2.652   0.605  16.346  0.2177 -0.1711  0.0203
  169SOPE   O3219048   2.646   0.633  16.227  0.1079 -0.1809  0.1134
  169SOPE   C3219049   2.573   0.491  16.409 -0.0613  0.1929  0.0129
  169SOPE   H2X19050   2.526   0.532  16.501  1.0104  0.0793  0.6354
  169SOPE   H2Y19051   2.654   0.420  16.436 -0.5042 -1.1571 -1.9965
  169SOPE   C2319052   2.626   0.893  16.915 -0.1610  0.3652  0.4367
  169SOPE   H3R19053   2.670   0.796  16.884  1.5145  1.7302 -1.7888
  169SOPE   H3S19054   2.519   0.881  16.943 -0.1846  0.2545  0.3037
  169SOPE   C2419055   2.703   0.945  17.036  0.6606  0.3165  0.2585
  169SOPE   H4R19056   2.809   0.959  17.006  0.4661  1.0377 -0.1045
  169SOPE   H4S19057   2.673   1.047  17.070  1.5572  0.7440 -0.1796
  169SOPE   C2519058   2.689   0.849  17.161 -0.0218 -0.5044  0.0157
  169SOPE   H5R19059   2.757   0.889  17.239  1.0326 -1.2081 -0.5178
  169SOPE   H5S19060   2.580   0.834  17.181 -0.8543  0.8779 -2.9651
  169SOPE   C2619061   2.739   0.708  17.125 -0.1442  0.6316 -0.3592
  169SOPE   H6R19062   2.666   0.661  17.056 -2.4460  0.5670  2.0092
  169SOPE   H6S19063   2.844   0.716  17.088 -0.2542 -1.1607 -1.1855
  169SOPE   C2719064   2.763   0.605  17.242  0.0649 -0.3413  0.0704
  169SOPE   H7R19065   2.820   0.652  17.324 -2.6351  0.8369  1.4017
  169SOPE   H7S19066   2.668   0.569  17.287  0.7501 -2.8274 -0.3352
  169SOPE   C2819067   2.858   0.491  17.195  0.0248  0.0924  0.1767
  169SOPE   H8R19068   2.800   0.443  17.113  0.3285  1.2205 -0.7311
  169SOPE   H8S19069   2.953   0.525  17.148  0.0446 -1.8810 -1.3462
  169SOPE   C2919070   2.885   0.393  17.306 -0.2094  0.1280 -0.9910
  169SOPE   H9119071   2.791   0.353  17.346  0.4045 -1.4432 -1.0458
  169SOPE  C21019072   2.998   0.352  17.376  0.5431 -0.0602 -0.0855
  169SOPE  H10119073   2.981   0.284  17.461 -2.9557  0.8170  0.0943
  169SOPE  C21119074   3.140   0.406  17.352  0.1965  0.4159 -0.4528
  169SOPE  H11R19075   3.198   0.413  17.446 -1.0419  1.9354  0.2389
  169SOPE  H11S19076   3.130   0.511  17.319 -3.6771 -0.1314 -1.5387
  169SOPE  C21219077   3.226   0.335  17.242  0.1937  0.0933 -0.0251
  169SOPE  H12R19078   3.182   0.349  17.141 -0.5380 -2.9640 -0.2280
  169SOPE  H12S19079   3.222   0.225  17.259 -0.3487 -0.1249 -1.4312
  169SOPE  C21319080   3.371   0.382  17.253 -0.2792  0.2646  0.2038
  169SOPE  H13R19081   3.419   0.349  17.347 -2.8945 -1.6298  1.0039
  169SOPE  H13S19082   3.371   0.493  17.254 -0.3504  0.2765  2.1686
  169SOPE  C21419083   3.457   0.343  17.124  0.3806 -0.3562 -0.2193
  169SOPE  H14R19084   3.515   0.433  17.096  1.1728 -0.8131 -0.0777
  169SOPE  H14S19085   3.385   0.320  17.043 -0.7691 -1.5060  1.0732
  169SOPE  C21519086   3.551   0.224  17.140 -0.9393 -0.1861  0.4023
  169SOPE  H15R19087   3.509   0.125  17.168 -1.6715  0.1783  0.6223
  169SOPE  H15S19088   3.635   0.246  17.209  0.3625 -0.8719 -0.9133
  169SOPE  C21619089   3.635   0.206  17.006  0.6723  0.2165 -0.0591
  169SOPE  H16R19090   3.725   0.148  17.036 -1.2115 -1.3296  3.2378
  169SOPE  H16S19091   3.661   0.303  16.958 -2.8502  0.8241 -1.0557
  169SOPE  C21719092   3.552   0.123  16.913  0.5534 -0.4226  0.0947
  169SOPE  H17R19093   3.479   0.192  16.865  1.6997  0.3525 -0.5757
  169SOPE  H17S19094   3.497   0.046  16.971  0.2085 -0.1788  0.0912
  169SOPE  C21819095   3.639   0.050  16.810  0.4545  0.3349  0.2814
  169SOPE  H18R19096   3.575  -0.013  16.745  0.1208  0.2096  0.7252
  169SOPE  H18S19097   3.723  -0.016  16.839  0.9795  0.3959 -1.0304
  169SOPE  H18T19098   3.683   0.126  16.742 -2.2672  1.6095 -0.1950
  169SOPE   C3319099   2.466   0.421  16.321 -1.3149 -0.2944 -0.2649
  169SOPE   H3X19100   2.497   0.389  16.219  0.5145 -0.0693  0.1872
  169SOPE   H3Y19101   2.383   0.495  16.317 -3.9812 -2.8723  2.1139
  169SOPE   C3419102   2.412   0.304  16.397  0.8501  0.2226  0.3655
  169SOPE   H4X19103   2.398   0.332  16.504  0.4934  2.7723 -0.2679
  169SOPE   H4Y19104   2.476   0.214  16.396 -1.9398 -1.8813  0.5795
  169SOPE   C3519105   2.274   0.268  16.340  0.4256  0.0599  0.7342
  169SOPE   H5X19106   2.288   0.283  16.231 -0.8312 -1.6131  0.3006
  169SOPE   H5Y19107   2.194   0.340  16.368  0.0299 -0.0160 -0.1864
  169SOPE   C3619108   2.236   0.120  16.364 -0.3152 -0.4567 -0.1919
  169SOPE   H6X19109   2.199   0.092  16.464  0.7498 -2.6005 -0.3416
  169SOPE   H6Y19110   2.330   0.061  16.353  0.3402  0.4131  0.5507
  169SOPE   C3719111   2.134   0.063  16.264  0.3930  0.0858  0.5062
  169SOPE   H7X19112   2.108  -0.040  16.296  1.1642  0.2575  1.7755
  169SOPE   H7Y19113   2.194   0.062  16.170 -0.0441 -0.3693  0.2293
  169SOPE   C3819114   2.012   0.143  16.245  0.5837 -0.1961 -0.0501
  169SOPE   H8X19115   1.936   0.127  16.325 -1.0818  2.5145 -0.9645
  169SOPE   H8Y19116   2.023   0.253  16.258 -0.2855 -0.0027 -0.8186
  169SOPE   C3919117   1.948   0.113  16.106  0.3398 -0.4715  0.4324
  169SOPE   H9X19118   1.961   0.006  16.080  1.0547 -0.4794  0.7802
  169SOPE   H9Y19119   2.004   0.171  16.030 -0.3968 -0.0220  0.2171
  169SOPE  C31019120   1.804   0.165  16.084  0.1642  0.4679 -0.2275
  169SOPE  H10X19121   1.769   0.140  15.981 -1.3745  1.1865  0.0929
  169SOPE  H10Y19122   1.801   0.274  16.107  2.0334  0.7021 -0.8918
  169SOPE  C31119123   1.693   0.106  16.175  0.3588  0.4401  0.2502
  169SOPE  H11X19124   1.592   0.139  16.143  0.1826 -0.0393  0.2970
  169SOPE  H11Y19125   1.711   0.136  16.280  1.6341 -2.3471  0.9277
  169SOPE  C31219126   1.687  -0.046  16.157 -0.1178  0.2294  1.0226
  169SOPE  H12X19127   1.790  -0.081  16.176  0.4114  2.1548  2.0026
  169SOPE  H12Y19128   1.653  -0.074  16.054 -3.1147  0.9133  1.7183
  169SOPE  C31319129   1.588  -0.111  16.250 -0.3998  0.4640 -0.5335
  169SOPE  H13X19130   1.494  -0.054  16.241 -0.6431  0.1356 -0.0902
  169SOPE  H13Y19131   1.612  -0.113  16.358 -1.0110 -0.8980 -0.4046
  169SOPE  C31419132   1.583  -0.256  16.202  0.3015  0.4547 -1.0221
  169SOPE  H14X19133   1.551  -0.322  16.286  2.1583  0.2176 -0.4546
  169SOPE  H14Y19134   1.685  -0.294  16.179  1.1067  2.5963 -1.2341
  169SOPE  C31519135   1.497  -0.295  16.078 -0.6917 -0.5908 -0.0316
  169SOPE  H15X19136   1.545  -0.247  15.990  0.7541 -0.0659  0.9934
  169SOPE  H15Y19137   1.398  -0.246  16.088 -0.1534  0.5086  0.1500
  169SOPE  C31619138   1.475  -0.451  16.062 -0.2194 -0.1901  0.1345
  169SOPE  H16X19139   1.432  -0.486  16.158 -0.9069 -2.7555 -1.0355
  169SOPE  H16Y19140   1.578  -0.492  16.053 -0.1847  0.2538 -2.2935
  169SOPE  C31719141   1.386  -0.501  15.949  0.3484  0.8211 -0.0456
  169SOPE  H17X19142   1.439  -0.494  15.852  1.4096  1.2481  0.5433
  169SOPE  H17Y19143   1.298  -0.433  15.949  1.1059  1.8460 -0.9301
  169SOPE  C31819144   1.332  -0.644  15.965 -0.2716  0.9530  0.1586
  169SOPE  H18X19145   1.249  -0.660  15.892 -1.0831  0.8418  1.0813
  169SOPE  H18Y19146   1.298  -0.677  16.065  1.2770  0.2225  0.4711
  169SOPE  H18Z19147   1.411  -0.718  15.941  0.4415  0.9129  2.4443
  170SOPE     N19148   0.984   2.128  17.140 -0.0802 -0.4895 -0.4450
  170SOPE   HN119149   1.001   2.090  17.044  2.7759  0.8016 -0.5565
  170SOPE   HN219150   0.944   2.224  17.134 -1.3452 -1.0153 -5.4938
  170SOPE   HN319151   1.071   2.114  17.194  0.9939 -1.7090 -2.3425
  170SOPE   C1219152   0.877   2.040  17.213 -0.0314 -0.1876 -0.1765
  170SOPE  H12A19153   0.915   1.937  17.230 -2.5033 -1.1832 -0.2572
  170SOPE  H12B19154   0.790   2.032  17.144 -1.2691 -0.7656  1.3920
  170SOPE   C1119155   0.833   2.101  17.349 -0.4767  0.7009 -1.1212
  170SOPE  H11A19156   0.754   2.030  17.382  0.2643  1.3666  2.4728
  170SOPE  H11B19157   0.793   2.202  17.325  0.4469  1.0144 -1.3793
  170SOPE     P19158   0.905   2.184  17.585  0.5289 -0.2970  0.0906
  170SOPE   O1319159   0.966   2.118  17.701 -0.1311  0.3550  0.2556
  170SOPE   O1419160   0.759   2.208  17.590  0.1011  0.0070  0.4004
  170SOPE   O1219161   0.943   2.107  17.449 -0.4306  0.1303 -0.0432
  170SOPE   O1119162   0.974   2.320  17.562  0.2550  0.3601 -0.0367
  170SOPE    C119163   1.112   2.334  17.588 -0.2047 -0.1736  0.6452
  170SOPE    HA19164   1.151   2.397  17.506  0.1004 -2.1118 -0.7634
  170SOPE    HB19165   1.170   2.239  17.584  0.3751  0.2294 -1.4315
  170SOPE    C219166   1.150   2.419  17.714  0.1243 -0.3862  0.0305
  170SOPE    HS19167   1.104   2.354  17.791 -3.3195  2.1648  0.3349
  170SOPE   O2119168   1.080   2.549  17.705 -0.1545 -0.3447  0.3087
  170SOPE   C2119169   1.020   2.592  17.814 -0.1988  0.1828 -0.1967
  170SOPE   O2219170   1.057   2.574  17.929  0.9811  0.6361 -0.2706
  170SOPE   C2219171   0.898   2.672  17.786 -0.0308 -0.4454 -1.2351
  170SOPE   H2R19172   0.816   2.602  17.759  0.0910 -0.6762 -1.0048
  170SOPE   H2S19173   0.919   2.730  17.693  1.8418  1.6923  0.4087
  170SOPE    C319174   1.303   2.436  17.753 -0.4418  0.0870 -0.8099
  170SOPE    HX19175   1.342   2.344  17.800 -1.0494  1.1875  2.0516
  170SOPE    HY19176   1.293   2.494  17.848  0.1279 -1.2307  0.0834
  170SOPE   O3119177   1.385   2.511  17.659 -0.3579  0.0854 -0.1488
  170SOPE   C3119178   1.517   2.507  17.674 -0.0753  0.1566 -0.1357
  170SOPE   O3219179   1.578   2.437  17.756 -0.2938  0.5162 -0.1803
  170SOPE   C3219180   1.580   2.582  17.554  0.0224 -0.6667 -0.1044
  170SOPE   H2X19181   1.504   2.620  17.482  2.4310  0.5989 -2.1309
  170SOPE   H2Y19182   1.626   2.500  17.494 -0.3472 -0.4520 -0.6908
  170SOPE   C2319183   0.858   2.776  17.891 -1.2739 -0.7332 -0.1336
  170SOPE   H3R19184   0.945   2.842  17.909 -1.7248  0.3629 -1.7440
  170SOPE   H3S19185   0.838   2.725  17.988 -0.5893 -0.5664  0.1039
  170SOPE   C2419186   0.736   2.848  17.850  0.3167  0.1601  0.1220
  170SOPE   H4R19187   0.754   2.905  17.756 -1.5788  2.5108  1.0769
  170SOPE   H4S19188   0.665   2.766  17.827  0.4051 -0.3194  1.4578
  170SOPE   C2519189   0.683   2.923  17.970  0.5966 -0.2196  0.0721
  170SOPE   H5R19190   0.651   2.860  18.056 -0.3403  1.2841  0.8766
  170SOPE   H5S19191   0.746   3.006  18.008  1.0071  0.0868 -1.2451
  170SOPE   C2619192   0.546   2.981  17.920 -0.1796 -0.3132  0.5368
  170SOPE   H6R19193   0.477   2.899  17.890 -0.8377 -0.2015  1.6784
  170SOPE   H6S19194   0.498   3.041  18.000 -2.4844 -0.6929 -0.4550
  170SOPE   C2719195   0.563   3.071  17.794  0.3344 -0.0709  1.0090
  170SOPE   H7R19196   0.584   3.006  17.707 -1.8242  0.1609  0.2644
  170SOPE   H7S19197   0.468   3.126  17.776  0.4761 -0.7644 -2.4969
  170SOPE   C2819198   0.681   3.167  17.806  0.0098 -1.1561  0.4215
  170SOPE   H8R19199   0.663   3.220  17.902 -1.9003  0.0756 -0.5391
  170SOPE   H8S19200   0.781   3.120  17.815  0.4306 -0.6420 -1.2237
  170SOPE   C2919201   0.686   3.264  17.688 -0.3243  0.6517  0.4220
  170SOPE   H9119202   0.617   3.242  17.606  0.4681 -2.3163  0.4115
  170SOPE  C21019203   0.787   3.349  17.664  0.7267  0.1339 -0.1853
  170SOPE  H10119204   0.799   3.414  17.576  0.4917  0.3879 -0.0333
  170SOPE  C21119205   0.897   3.374  17.761  0.3302  0.5965  0.2411
  170SOPE  H11R19206   0.884   3.327  17.861 -1.6672  0.9352  0.1869
  170SOPE  H11S19207   0.890   3.482  17.787  1.1411  0.6913  0.0941
  170SOPE  C21219208   1.034   3.349  17.710 -0.0254  0.0403  0.0537
  170SOPE  H12R19209   1.058   3.394  17.611  2.8501  1.6613  1.3750
  170SOPE  H12S19210   1.043   3.239  17.695 -0.1472  0.0932 -0.4268
  170SOPE  C21319211   1.137   3.402  17.806 -0.1424 -1.1797 -0.4662
  170SOPE  H13R19212   1.239   3.362  17.785  1.1549  1.8485 -0.4868
  170SOPE  H13S19213   1.118   3.372  17.911  0.0636 -0.3549 -0.1848
  170SOPE  C21419214   1.163   3.556  17.785  0.6015 -0.1959  0.1440
  170SOPE  H14R19215   1.064   3.605  17.798 -0.4025 -2.1086  0.0059
  170SOPE  H14S19216   1.203   3.596  17.689 -0.0289 -0.1118 -0.0902
  170SOPE  C21519217   1.259   3.622  17.896  0.5999 -0.2310  0.1050
  170SOPE  H15R19218   1.311   3.544  17.955 -2.3901 -1.2582  1.5858
  170SOPE  H15S19219   1.194   3.669  17.973 -1.2399 -0.3976 -1.2630
  170SOPE  C21619220   1.349   3.731  17.845 -0.0247 -0.5271  0.0582
  170SOPE  H16R19221   1.278   3.807  17.808 -1.2866 -2.4339 -1.6688
  170SOPE  H16S19222   1.417   3.687  17.768 -0.3001 -1.6381  0.4248
  170SOPE  C21719223   1.446   3.774  17.956 -0.4134  0.2810  0.3075
  170SOPE  H17R19224   1.514   3.688  17.973 -2.7394 -1.7383 -0.0355
  170SOPE  H17S19225   1.385   3.787  18.048 -0.7525  2.7625 -0.2064
  170SOPE  C21819226   1.532   3.903  17.925  0.5290 -0.0546 -0.3610
  170SOPE  H18R19227   1.579   3.896  17.825 -2.8122  0.5636 -2.0967
  170SOPE  H18S19228   1.603   3.907  18.011  0.2021  0.4335 -0.1127
  170SOPE  H18T19229   1.474   3.998  17.926  0.4594 -0.0857 -1.0175
  170SOPE   C3319230   1.689   2.691  17.591  0.4247 -0.1007  0.0272
  170SOPE   H3X19231   1.755   2.709  17.503 -0.3601  1.9575 -0.2130
  170SOPE   H3Y19232   1.755   2.668  17.676  2.3237  1.8128 -0.8287
  170SOPE   C3419233   1.620   2.829  17.613  0.6429  0.5766  0.9959
  170SOPE   H4X19234   1.548   2.830  17.698  0.3607  1.5233  0.7557
  170SOPE   H4Y19235   1.555   2.856  17.527 -1.0886 -1.5404  1.5401
  170SOPE   C3519236   1.729   2.935  17.635 -0.4225  0.0908  0.0990
  170SOPE   H5X19237   1.804   2.918  17.555 -0.5713 -3.4206  0.5707
  170SOPE   H5Y19238   1.778   2.931  17.735  0.6988  1.3537 -0.3544
  170SOPE   C3619239   1.690   3.074  17.603 -0.4720 -0.8883  0.1216
  170SOPE   H6X19240   1.629   3.092  17.512  0.7303  2.6246 -0.1745
  170SOPE   H6Y19241   1.776   3.142  17.586 -1.4587  0.2296 -0.5429
  170SOPE   C3719242   1.600   3.132  17.709  0.0265  0.3149 -0.9306
  170SOPE   H7X19243   1.518   3.060  17.726 -0.7029  1.5154  0.9013
  170SOPE   H7Y19244   1.554   3.229  17.680  2.9006  2.7272  1.7677
  170SOPE   C3819245   1.665   3.149  17.847  0.2123  0.4680 -1.0589
  170SOPE   H8X19246   1.775   3.155  17.833  0.5154  2.1537  1.3500
  170SOPE   H8Y19247   1.645   3.056  17.905 -0.6917  1.3225  0.0589
  170SOPE   C3919248   1.633   3.272  17.937  0.5423  0.4186  0.3797
  170SOPE   H9X19249   1.697   3.245  18.024  0.7344 -1.0959 -0.1879
  170SOPE   H9Y19250   1.532   3.285  17.980  0.7176  1.1775  0.5732
  170SOPE  C31019251   1.664   3.413  17.866  0.4724  1.0507  0.1754
  170SOPE  H10X19252   1.615   3.491  17.929  0.3248 -0.3177  1.8291
  170SOPE  H10Y19253   1.625   3.404  17.763 -1.0144 -1.3919  0.8732
  170SOPE  C31119254   1.809   3.453  17.874 -0.4746  0.5428  0.4590
  170SOPE  H11X19255   1.853   3.423  17.777 -1.3480  1.7225 -0.3222
  170SOPE  H11Y19256   1.866   3.411  17.960  0.3698 -0.2145 -0.4452
  170SOPE  C31219257   1.830   3.606  17.870  0.7344  0.2406  0.5366
  170SOPE  H12X19258   1.939   3.630  17.869  0.8607  0.1975 -3.5125
  170SOPE  H12Y19259   1.799   3.646  17.969  0.8555 -0.9501  1.0667
  170SOPE  C31319260   1.761   3.679  17.760  0.3666  0.4996 -0.2445
  170SOPE  H13X19261   1.650   3.688  17.770  0.4356  0.2117  0.8841
  170SOPE  H13Y19262   1.789   3.614  17.674  0.8399 -0.0840  0.3415
  170SOPE  C31419263   1.830   3.815  17.741 -0.1963 -0.1817  0.0132
  170SOPE  H14X19264   1.933   3.796  17.706 -0.0625  1.9464 -0.9149
  170SOPE  H14Y19265   1.818   3.848  17.846 -1.7107 -0.5345 -0.0229
  170SOPE  C31519266   1.760   3.895  17.631 -0.5684 -0.9894  0.0919
  170SOPE  H15X19267   1.653   3.919  17.648 -0.2569  1.7865 -1.3096
  170SOPE  H15Y19268   1.759   3.836  17.536  0.9648  1.1758 -1.3759
  170SOPE  C31619269   1.823   4.032  17.591 -0.1264 -0.5205  0.0629
  170SOPE  H16X19270   1.766   4.076  17.506 -1.2494 -0.8018  0.6661
  170SOPE  H16Y19271   1.927   4.004  17.561 -0.0631 -0.7705  0.5089
  170SOPE  C31719272   1.810   4.144  17.708  0.2688  0.0044 -0.1536
  170SOPE  H17X19273   1.873   4.108  17.793  0.8532  1.1532 -0.0795
  170SOPE  H17Y19274   1.712   4.140  17.759 -0.0704 -1.7484 -0.8859
  170SOPE  C31819275   1.864   4.285  17.683 -0.2713  0.3383 -0.0536
  170SOPE  H18X19276   1.795   4.324  17.605 -0.8051  0.8958  0.6981
  170SOPE  H18Y19277   1.971   4.280  17.650 -0.7759  1.1895 -1.9989
  170SOPE  H18Z19278   1.848   4.353  17.768 -3.1720  0.6870 -0.7738
  171SOPE     N19279   0.768   1.781  21.078  0.5124 -0.6402  0.4191
  171SOPE   HN119280   0.762   1.880  21.108 -2.2088 -1.1661  1.9124
  171SOPE   HN219281   0.802   1.777  20.980  1.5035 -2.0989  0.7952
  171SOPE   HN319282   0.667   1.756  21.072 -0.4302  2.9077 -1.3260
  171SOPE   C1219283   0.855   1.690  21.161 -0.4248 -0.1504  0.0328
  171SOPE  H12A19284   0.851   1.591  21.111 -1.7541 -1.0082  1.7515
  171SOPE  H12B19285   0.817   1.684  21.265  3.1483 -1.9199  1.3921
  171SOPE   C1119286   1.000   1.747  21.166  0.2181 -0.3984  0.2158
  171SOPE  H11A19287   1.054   1.695  21.248 -1.5089  0.3158  1.8898
  171SOPE  H11B19288   0.986   1.854  21.191 -0.6614 -0.6799  0.9889
  171SOPE     P19289   1.198   1.701  21.002 -0.1512  0.6107  0.0471
  171SOPE   O1319290   1.280   1.734  21.121 -0.5169 -0.1387  0.1521
  171SOPE   O1419291   1.236   1.754  20.867 -0.0616 -0.1236 -0.2852
  171SOPE   O1219292   1.044   1.737  21.028  0.3170 -0.1824 -0.7842
  171SOPE   O1119293   1.196   1.545  20.989 -0.1685 -0.5337 -0.0239
  171SOPE    C119294   1.086   1.475  20.927 -0.0060 -0.8068 -0.3253
  171SOPE    HA19295   1.058   1.527  20.833  1.2159  1.7283  0.6216
  171SOPE    HB19296   0.992   1.470  20.986 -0.5685 -2.9264 -1.2897
  171SOPE    C219297   1.118   1.323  20.897  0.9924  0.6216 -0.0234
  171SOPE    HS19298   1.027   1.283  20.849  0.0803  1.9346  0.5532
  171SOPE   O2119299   1.155   1.258  21.023 -0.0958  0.8663  1.2791
  171SOPE   C2119300   1.120   1.129  21.029 -0.1380  0.6039 -0.2853
  171SOPE   O2219301   1.070   1.063  20.942  0.2051  0.7715  0.2492
  171SOPE   C2219302   1.143   1.071  21.170 -0.7172 -1.1105 -0.0472
  171SOPE   H2R19303   1.133   1.155  21.242 -0.2029 -1.1157  0.0353
  171SOPE   H2S19304   1.251   1.045  21.173  0.3442  2.7166  1.3056
  171SOPE    C319305   1.249   1.329  20.806 -0.0654 -0.8105  0.1628
  171SOPE    HX19306   1.333   1.341  20.878 -0.7604  1.8671  0.6362
  171SOPE    HY19307   1.247   1.424  20.748  0.5566 -1.1996 -0.5192
  171SOPE   O3119308   1.265   1.212  20.717  0.2449  0.1189 -0.2879
  171SOPE   C3119309   1.360   1.128  20.756 -0.2012  0.5326 -0.6100
  171SOPE   O3219310   1.422   1.132  20.867  0.0968  0.4083  0.5897
  171SOPE   C3219311   1.364   1.010  20.662  0.4449 -0.2727  0.0789
  171SOPE   H2X19312   1.462   0.960  20.669 -0.2604 -1.7789 -0.3766
  171SOPE   H2Y19313   1.343   1.057  20.563  0.4297  1.9859  1.0858
  171SOPE   C2319314   1.037   0.968  21.218 -0.5359 -0.4199 -0.3167
  171SOPE   H3R19315   1.063   0.920  21.314 -1.8618 -1.3635 -0.4032
  171SOPE   H3S19316   1.042   0.883  21.146 -0.2737 -1.4285  0.8465
  171SOPE   C2419317   0.899   1.014  21.225 -0.1305  0.3521  0.2861
  171SOPE   H4R19318   0.898   1.104  21.291 -1.4016  1.5926 -1.3463
  171SOPE   H4S19319   0.867   1.043  21.123  3.0865  1.0486 -0.6577
  171SOPE   C2519320   0.816   0.899  21.286  0.3948  0.5350 -0.2713
  171SOPE   H5R19321   0.837   0.802  21.236  1.8094  1.7135 -2.0683
  171SOPE   H5S19322   0.860   0.883  21.387  3.0049 -2.4092 -1.6886
  171SOPE   C2619323   0.665   0.922  21.288 -0.3267 -0.1106 -0.0877
  171SOPE   H6R19324   0.653   1.028  21.321  0.8255  0.9070 -2.6783
  171SOPE   H6S19325   0.648   0.926  21.179  0.0372  0.7943 -0.1199
  171SOPE   C2719326   0.586   0.822  21.366 -0.2038  0.0662  0.3605
  171SOPE   H7R19327   0.630   0.720  21.352 -1.1246 -0.1157 -1.5775
  171SOPE   H7S19328   0.603   0.857  21.470  0.5716  0.0512  0.2451
  171SOPE   C2819329   0.436   0.805  21.349 -0.3635  0.2786 -0.3307
  171SOPE   H8R19330   0.395   0.720  21.408  0.6589 -0.1066 -0.1599
  171SOPE   H8S19331   0.368   0.892  21.364 -1.3189 -0.0124 -2.6014
  171SOPE   C2919332   0.421   0.782  21.200 -0.8845  0.7748  0.4687
  171SOPE   H9119333   0.460   0.859  21.131 -1.1500  0.8597  0.4127
  171SOPE  C21019334   0.386   0.659  21.153 -0.5188 -0.7295 -0.0820
  171SOPE  H10119335   0.407   0.646  21.046  3.0996  3.3634 -0.0960
  171SOPE  C21119336   0.340   0.537  21.226  0.5444  0.1401 -0.0341
  171SOPE  H11R19337   0.296   0.568  21.323 -2.0622  1.9763 -1.6722
  171SOPE  H11S19338   0.426   0.474  21.257 -0.2767  0.4467  3.2263
  171SOPE  C21219339   0.242   0.444  21.151  0.2290 -0.3028  0.4507
  171SOPE  H12R19340   0.254   0.336  21.177 -1.8934 -0.4272  1.0470
  171SOPE  H12S19341   0.273   0.446  21.044  0.8432  0.6009  0.6331
  171SOPE  C21319342   0.089   0.475  21.169 -0.2188  0.1956  0.6109
  171SOPE  H13R19343   0.073   0.489  21.278  0.3546 -2.9174  1.1781
  171SOPE  H13S19344   0.033   0.384  21.138 -1.3871  1.4925 -1.3407
  171SOPE  C21419345   0.032   0.583  21.074 -0.0695 -0.3027  0.2772
  171SOPE  H14R19346   0.076   0.585  20.972 -2.6128  0.3237 -0.9007
  171SOPE  H14S19347   0.052   0.678  21.127  1.7781 -0.3869 -0.2149
  171SOPE  C21519348  -0.122   0.559  21.050  0.2486  0.0025 -0.5278
  171SOPE  H15R19349  -0.137   0.450  21.036 -2.6274  0.1931  0.3433
  171SOPE  H15S19350  -0.154   0.607  20.955 -1.4986 -3.9739 -2.1577
  171SOPE  C21619351  -0.210   0.605  21.174  0.2172  0.4205 -0.6207
  171SOPE  H16R19352  -0.192   0.715  21.174  0.0029  0.5015 -2.7892
  171SOPE  H16S19353  -0.177   0.550  21.265 -2.7806 -0.7796 -0.1682
  171SOPE  C21719354  -0.357   0.562  21.159  0.2614 -0.0975 -0.9029
  171SOPE  H17R19355  -0.410   0.597  21.067 -0.9248 -1.0285 -0.5981
  171SOPE  H17S19356  -0.417   0.615  21.236  1.6191  2.0075 -1.2009
  171SOPE  C21819357  -0.380   0.417  21.175  0.8335  0.0224 -0.4643
  171SOPE  H18R19358  -0.360   0.383  21.279  1.7241 -0.0136 -0.6367
  171SOPE  H18S19359  -0.326   0.360  21.096 -0.4985 -0.6851 -0.8856
  171SOPE  H18T19360  -0.486   0.395  21.150  0.5369  0.0283  0.7001
  171SOPE   C3319361   1.257   0.903  20.693 -0.1742  0.4576 -0.3927
  171SOPE   H3X19362   1.258   0.820  20.619 -1.5945 -0.9712  1.0736
  171SOPE   H3Y19363   1.155   0.948  20.699 -0.8300 -1.0913  1.0608
  171SOPE   C3419364   1.273   0.834  20.834 -0.1750  0.1260 -0.3798
  171SOPE   H4X19365   1.187   0.764  20.835  0.7662 -1.0691 -0.6091
  171SOPE   H4Y19366   1.246   0.909  20.911 -1.1174 -0.6580  0.0851
  171SOPE   C3519367   1.399   0.761  20.879  0.4903 -0.4271 -0.3145
  171SOPE   H5X19368   1.390   0.720  20.982 -2.3530  1.2597  0.2278
  171SOPE   H5Y19369   1.476   0.840  20.890  0.4447 -0.5866  1.4317
  171SOPE   C3619370   1.455   0.649  20.794 -0.2693 -0.3452  0.0595
  171SOPE   H6X19371   1.553   0.620  20.837  1.6663  4.1276 -0.7668
  171SOPE   H6Y19372   1.454   0.682  20.688 -1.1397 -0.7929 -0.0846
  171SOPE   C3719373   1.356   0.530  20.805 -0.4230 -0.5127 -0.5080
  171SOPE   H7X19374   1.372   0.467  20.714  1.3776 -0.9430  0.0629
  171SOPE   H7Y19375   1.250   0.558  20.823  0.0794  0.5487  0.9762
  171SOPE   C3819376   1.396   0.442  20.929  0.1795  0.1191  0.5893
  171SOPE   H8X19377   1.413   0.500  21.022 -0.3034  0.7142  0.3151
  171SOPE   H8Y19378   1.492   0.392  20.904  0.6319  1.1706  0.1752
  171SOPE   C3919379   1.284   0.337  20.948  0.2748  1.0985 -0.5138
  171SOPE   H9X19380   1.269   0.279  20.855  1.2372 -2.5349  1.4236
  171SOPE   H9Y19381   1.185   0.385  20.957 -0.6481 -0.2786 -2.6290
  171SOPE  C31019382   1.318   0.245  21.058 -0.0150 -0.2778 -0.2413
  171SOPE  H10X19383   1.241   0.169  21.081  0.5566  0.1915  4.0467
  171SOPE  H10Y19384   1.315   0.310  21.149 -2.3724 -1.0581  0.3073
  171SOPE  C31119385   1.445   0.165  21.034  0.1574  0.0458  0.5014
  171SOPE  H11X19386   1.529   0.236  21.051 -0.7287  0.9309  1.3584
  171SOPE  H11Y19387   1.442   0.131  20.929 -0.2950 -0.0857  0.5571
  171SOPE  C31219388   1.444   0.044  21.124  0.3165 -0.0850 -0.2466
  171SOPE  H12X19389   1.357  -0.023  21.106 -0.5476  0.9193  0.1153
  171SOPE  H12Y19390   1.433   0.066  21.233 -0.8244 -3.6950  0.4823
  171SOPE  C31319391   1.577  -0.037  21.110 -0.2162 -0.1127 -1.0215
  171SOPE  H13X19392   1.659   0.037  21.124 -2.0375  1.7043  0.7917
  171SOPE  H13Y19393   1.593  -0.055  21.002  2.1702 -0.1108 -0.7087
  171SOPE  C31419394   1.588  -0.165  21.194  0.3854  1.1788  0.0639
  171SOPE  H14X19395   1.692  -0.196  21.171  0.5581 -0.7637  2.9925
  171SOPE  H14Y19396   1.520  -0.242  21.151  0.4619  0.6709  0.8506
  171SOPE  C31519397   1.578  -0.156  21.345 -0.1269  0.4361 -0.2479
  171SOPE  H15X19398   1.471  -0.146  21.374 -0.0663 -1.8261  1.0419
  171SOPE  H15Y19399   1.641  -0.075  21.388  0.9499 -1.1493  1.2728
  171SOPE  C31619400   1.633  -0.284  21.418  0.9371 -0.1252 -0.3256
  171SOPE  H16X19401   1.741  -0.293  21.397  1.1984 -1.3333  1.3560
  171SOPE  H16Y19402   1.596  -0.377  21.370  1.3702 -1.0193  1.0379
  171SOPE  C31719403   1.605  -0.292  21.565  0.4401  0.3053 -0.4013
  171SOPE  H17X19404   1.628  -0.191  21.603 -1.0532  1.3120 -2.0017
  171SOPE  H17Y19405   1.672  -0.367  21.612 -1.2967 -1.1893 -0.1711
  171SOPE  C31819406   1.461  -0.341  21.597 -0.1558  0.0137 -0.6873
  171SOPE  H18X19407   1.374  -0.282  21.560 -1.0969  0.0992  1.5133
  171SOPE  H18Y19408   1.450  -0.356  21.706 -0.0233 -1.0103 -0.8074
  171SOPE  H18Z19409   1.445  -0.446  21.564 -3.5033  0.2743 -0.2511
  172SOPE     N19410   2.033   1.957  22.674  0.3133  0.0981  0.1691
  172SOPE   HN119411   2.103   1.882  22.689  1.8709  0.4389 -4.1711
  172SOPE   HN219412   2.065   2.018  22.597 -0.2875  0.6178  0.3233
  172SOPE   HN319413   2.018   2.011  22.762 -1.4989  1.2027 -0.7519
  172SOPE   C1219414   1.902   1.885  22.648  0.1057  0.4734  0.0109
  172SOPE  H12A19415   1.846   1.869  22.742 -1.3295  3.2565 -0.2418
  172SOPE  H12B19416   1.930   1.786  22.605 -1.9196 -0.7268  1.3047
  172SOPE   C1119417   1.811   1.951  22.541  0.6687 -0.3317 -0.6381
  172SOPE  H11A19418   1.763   2.044  22.579 -1.2688 -1.7709  0.6009
  172SOPE  H11B19419   1.734   1.876  22.514  0.8828 -0.5568 -0.6335
  172SOPE     P19420   1.790   2.054  22.302  0.1686  0.2562  0.0742
  172SOPE   O1319421   1.674   1.968  22.263 -0.2714  0.1925 -0.2762
  172SOPE   O1419422   1.879   2.093  22.199 -0.1789 -0.2261 -0.0206
  172SOPE   O1219423   1.871   1.991  22.421  0.1841 -0.7411 -0.0769
  172SOPE   O1119424   1.730   2.187  22.367  0.2819 -0.0339 -0.5996
  172SOPE    C119425   1.821   2.294  22.416  0.5949  0.5174  0.1162
  172SOPE    HA19426   1.884   2.311  22.326 -1.6711  0.1934 -1.6152
  172SOPE    HB19427   1.871   2.248  22.504 -2.3001  0.2347  1.7438
  172SOPE    C219428   1.760   2.423  22.467  0.3443  0.5475  0.0391
  172SOPE    HS19429   1.820   2.463  22.551  3.4686 -3.6540  0.1258
  172SOPE   O2119430   1.622   2.412  22.511  0.1275 -0.5598 -0.0773
  172SOPE   C2119431   1.593   2.317  22.608 -0.9068 -0.4390 -0.0571
  172SOPE   O2219432   1.680   2.255  22.670  0.0724  0.1511 -0.3038
  172SOPE   C2219433   1.446   2.302  22.627 -0.1479  0.1380 -0.6123
  172SOPE   H2R19434   1.414   2.204  22.584 -0.9034  0.9433 -1.9450
  172SOPE   H2S19435   1.392   2.382  22.572 -0.7492  1.4266  1.6938
  172SOPE    C319436   1.767   2.535  22.352  0.6574  0.1815 -0.4458
  172SOPE    HX19437   1.681   2.523  22.282 -0.3545  0.8694  0.6486
  172SOPE    HY19438   1.865   2.526  22.299  1.4713 -0.4442  1.0984
  172SOPE   O3119439   1.762   2.661  22.418  0.9357  0.2002  0.4974
  172SOPE   C3119440   1.639   2.721  22.434 -0.2093  0.6578  0.0580
  172SOPE   O3219441   1.539   2.678  22.389  0.5506 -0.0341 -0.1570
  172SOPE   C3219442   1.656   2.854  22.512 -0.0605  0.0361  0.0302
  172SOPE   H2X19443   1.564   2.850  22.574  0.4068 -0.2484  0.7191
  172SOPE   H2Y19444   1.653   2.930  22.431  1.1261 -0.4600 -0.4925
  172SOPE   C2319445   1.415   2.319  22.780 -0.2508  0.7692  0.9072
  172SOPE   H3R19446   1.465   2.400  22.837  0.7364 -0.3117  1.6319
  172SOPE   H3S19447   1.454   2.228  22.830  0.1676  1.4833  1.9176
  172SOPE   C2419448   1.264   2.330  22.806  0.0956 -0.4608  0.5648
  172SOPE   H4R19449   1.222   2.408  22.740  1.0482 -1.7059 -1.6044
  172SOPE   H4S19450   1.207   2.238  22.781 -1.0332  0.5422 -0.7107
  172SOPE   C2519451   1.241   2.360  22.957  0.9084  0.4350 -0.0469
  172SOPE   H5R19452   1.285   2.284  23.026  0.6026 -0.0436 -0.3808
  172SOPE   H5S19453   1.310   2.440  22.990  0.9765  0.1697  0.4767
  172SOPE   C2619454   1.101   2.389  22.993  0.6404 -0.9472  0.1970
  172SOPE   H6R19455   1.042   2.295  23.003 -1.6761  0.2048 -1.6117
  172SOPE   H6S19456   1.108   2.433  23.095  0.8518 -0.3527 -0.0770
  172SOPE   C2719457   1.031   2.495  22.904  0.1168  0.1257 -0.2485
  172SOPE   H7R19458   1.090   2.582  22.871  1.7788 -1.8552 -2.9552
  172SOPE   H7S19459   1.004   2.440  22.811 -0.1904 -1.6362  0.8390
  172SOPE   C2819460   0.905   2.547  22.976 -0.1389  0.1532  0.4046
  172SOPE   H8R19461   0.854   2.470  23.038 -2.6682  1.9222  0.6948
  172SOPE   H8S19462   0.940   2.619  23.053 -0.9511  0.5589  0.4082
  172SOPE   C2919463   0.798   2.606  22.888 -0.1274 -0.2822  1.1574
  172SOPE   H9119464   0.751   2.543  22.812 -1.2015  0.2429  1.3578
  172SOPE  C21019465   0.770   2.730  22.872 -0.2677 -0.3172 -0.6653
  172SOPE  H10119466   0.681   2.754  22.811  0.5495 -0.4049 -1.9284
  172SOPE  C21119467   0.829   2.851  22.935 -0.3186 -0.1022 -0.9282
  172SOPE  H11R19468   0.774   2.942  22.904  0.0906  0.1442 -0.9306
  172SOPE  H11S19469   0.934   2.864  22.903  0.2343  1.2915  1.3183
  172SOPE  C21219470   0.821   2.863  23.093 -0.1157 -0.7633  0.2386
  172SOPE  H12R19471   0.921   2.829  23.128 -0.3047  0.8284  2.5553
  172SOPE  H12S19472   0.743   2.800  23.141  0.7518 -2.2984 -0.3027
  172SOPE  C21319473   0.803   3.015  23.126  0.8104  0.4036 -0.5307
  172SOPE  H13R19474   0.704   3.040  23.084  0.0191  0.7213  1.4051
  172SOPE  H13S19475   0.885   3.069  23.074 -0.3603  2.8356  0.0429
  172SOPE  C21419476   0.804   3.035  23.283 -0.3098 -0.2476  0.3146
  172SOPE  H14R19477   0.696   3.048  23.309 -0.1884 -0.4224  0.9263
  172SOPE  H14S19478   0.866   3.118  23.321  0.0692 -0.5898  0.4522
  172SOPE  C21519479   0.865   2.916  23.364  0.1574  0.3346  0.6384
  172SOPE  H15R19480   0.956   2.885  23.308 -1.0157 -1.0607 -0.5628
  172SOPE  H15S19481   0.788   2.836  23.368 -0.2267  0.6191 -0.6634
  172SOPE  C21619482   0.900   2.964  23.505 -0.5239  0.1258 -0.7995
  172SOPE  H16R19483   0.975   3.046  23.500  2.3285 -2.2405  0.3880
  172SOPE  H16S19484   0.956   2.891  23.566 -1.9487  1.1332  1.9313
  172SOPE  C21719485   0.783   3.015  23.588  0.8221  0.4164 -0.0271
  172SOPE  H17R19486   0.702   2.940  23.582  1.0472  0.0991  0.8365
  172SOPE  H17S19487   0.763   3.112  23.537 -0.2759  1.0641  1.5865
  172SOPE  C21819488   0.795   3.035  23.738 -0.6491  0.1949  0.3195
  172SOPE  H18R19489   0.887   3.095  23.755 -1.0225  0.4046  1.7497
  172SOPE  H18S19490   0.814   2.937  23.786 -0.7447 -0.4584 -0.9540
  172SOPE  H18T19491   0.716   3.096  23.788  0.4052  1.9683 -0.0761
  172SOPE   C3319492   1.775   2.870  22.607  0.0373 -0.1909 -0.3705
  172SOPE   H3X19493   1.876   2.854  22.564  0.8124  1.2045  0.8412
  172SOPE   H3Y19494   1.763   2.775  22.663  2.8002 -0.5531 -0.2535
  172SOPE   C3419495   1.765   2.991  22.693 -0.4163  0.4279  0.3471
  172SOPE   H4X19496   1.843   2.984  22.772  0.4756  0.4929 -0.5042
  172SOPE   H4Y19497   1.662   2.994  22.734  0.3975  0.8572  2.5252
  172SOPE   C3519498   1.767   3.112  22.611 -0.4144  0.2353 -0.0733
  172SOPE   H5X19499   1.704   3.116  22.520 -1.0651  1.4414  0.4035
  172SOPE   H5Y19500   1.870   3.125  22.572  1.0947 -3.1547  2.2247
  172SOPE   C3619501   1.734   3.235  22.696  0.0446 -0.1437  0.1643
  172SOPE   H6X19502   1.628   3.230  22.730  0.1137  0.6547  0.5137
  172SOPE   H6Y19503   1.739   3.326  22.632 -4.2359  0.8840  0.9760
  172SOPE   C3719504   1.819   3.242  22.818 -0.2199 -1.1952  0.0962
  172SOPE   H7X19505   1.927   3.228  22.798 -0.2899  0.0260 -1.3200
  172SOPE   H7Y19506   1.793   3.159  22.887  1.4469 -2.0323 -0.2473
  172SOPE   C3819507   1.810   3.382  22.890 -0.5438  0.1489  0.4351
  172SOPE   H8X19508   1.879   3.375  22.977 -1.8719  2.5369  1.7848
  172SOPE   H8Y19509   1.713   3.410  22.935  1.5703  3.6265  3.5143
  172SOPE   C3919510   1.871   3.498  22.810  0.2037  0.4841 -0.7043
  172SOPE   H9X19511   1.822   3.503  22.710 -2.2061 -1.2900  0.2900
  172SOPE   H9Y19512   1.980   3.477  22.809  0.1433  0.1488 -0.4537
  172SOPE  C31019513   1.853   3.644  22.868  0.2241  1.0161  0.8057
  172SOPE  H10X19514   1.885   3.625  22.972  2.5431  0.0375 -0.0048
  172SOPE  H10Y19515   1.748   3.674  22.852 -0.2613 -0.2065  1.6033
  172SOPE  C31119516   1.940   3.753  22.798  0.1209 -0.0712 -0.2500
  172SOPE  H11X19517   1.911   3.756  22.691 -0.2807 -2.1652 -0.2496
  172SOPE  H11Y19518   2.050   3.737  22.795  0.1681 -0.6397  2.2579
  172SOPE  C31219519   1.924   3.896  22.865 -0.2966 -0.0750  0.4535
  172SOPE  H12X19520   1.959   3.891  22.970 -0.7920 -0.9456  0.5819
  172SOPE  H12Y19521   1.816   3.920  22.870 -0.4945 -1.1776  3.7461
  172SOPE  C31319522   2.004   4.018  22.805 -0.0269 -0.3246  0.0543
  172SOPE  H13X19523   1.938   4.055  22.723 -0.3746  2.1504  1.3617
  172SOPE  H13Y19524   2.091   3.974  22.752 -0.2224 -0.3349 -0.2603
  172SOPE  C31419525   2.051   4.124  22.900 -0.7380  0.1418 -0.0220
  172SOPE  H14X19526   2.126   4.076  22.967 -1.2354  0.3619  0.6998
  172SOPE  H14Y19527   1.969   4.178  22.951  0.3361  0.9344  0.9227
  172SOPE  C31519528   2.120   4.231  22.815  0.0396 -0.1477  0.2758
  172SOPE  H15X19529   2.063   4.265  22.726 -1.7815  0.0908  1.4906
  172SOPE  H15Y19530   2.218   4.188  22.786  0.2323 -0.1953  0.9749
  172SOPE  C31619531   2.139   4.360  22.905 -0.6446 -0.3047 -0.0160
  172SOPE  H16X19532   2.205   4.327  22.988 -3.7139 -0.0631  2.7545
  172SOPE  H16Y19533   2.041   4.375  22.957 -0.8068  1.9363 -0.8716
  172SOPE  C31719534   2.186   4.474  22.832 -0.1680 -1.3060 -0.6907
  172SOPE  H17X19535   2.103   4.528  22.783 -0.0190  0.9646  1.4029
  172SOPE  H17Y19536   2.252   4.447  22.746 -1.2958 -0.2411 -1.9438
  172SOPE  C31819537   2.283   4.566  22.901  0.2194 -0.1043  0.2350
  172SOPE  H18X19538   2.330   4.636  22.827 -1.4701 -0.1687 -0.9546
  172SOPE  H18Y19539   2.367   4.505  22.939  1.0673 -2.0148 -4.1030
  172SOPE  H18Z19540   2.240   4.621  22.987 -2.3021  0.2741 -1.1705
  173SAPI   C1219541   1.667   0.083  25.394 -1.1714 -0.1645 -0.5512
  173SAPI    H219542   1.753   0.014  25.408  0.5171  1.4858 -2.2360
  173SAPI    O219543   1.618   0.050  25.263 -0.4164  0.0193  0.2816
  173SAPI   HO219544   1.629  -0.045  25.262  1.7821  0.2161 -0.0998
  173SAPI   C1319545   1.567   0.062  25.503  0.0220  0.1477 -0.9935
  173SAPI    H319546   1.610   0.107  25.595  1.9075  0.4872 -1.9865
  173SAPI    O319547   1.550  -0.077  25.543  0.0467 -0.2305  0.4288
  173SAPI   HO319548   1.527  -0.134  25.470 -1.7378  0.6171  0.2777
  173SAPI   C1419549   1.434   0.126  25.465  0.0348  0.5309  0.5219
  173SAPI    H419550   1.406   0.083  25.367  0.7272 -1.4076  1.1136
  173SAPI    O419551   1.322   0.088  25.545  0.5797 -0.0007 -0.5454
  173SAPI   HO419552   1.298  -0.005  25.535  1.1493 -0.8265  3.7794
  173SAPI   C1519553   1.456   0.277  25.443  0.1703 -0.5076  0.4426
  173SAPI    H519554   1.462   0.319  25.545 -1.5012  0.2145  0.2862
  173SAPI    O519555   1.335   0.328  25.383  0.6021 -0.1938 -0.0972
  173SAPI   HO519556   1.325   0.295  25.293  0.5133  0.5621 -0.3658
  173SAPI   C1619557   1.593   0.328  25.385 -0.6692 -0.3308  0.0851
  173SAPI    H619558   1.567   0.320  25.277  2.0790  1.0581 -0.7793
  173SAPI    O619559   1.620   0.464  25.416  0.0812 -0.3673 -0.0685
  173SAPI   HO619560   1.648   0.501  25.332 -0.4857 -1.1473 -0.6125
  173SAPI   C1119561   1.709   0.234  25.406 -0.7112 -0.4372 -0.0568
  173SAPI    H119562   1.735   0.253  25.513  1.3771 -1.1734 -0.3915
  173SAPI     P19563   1.973   0.232  25.367 -0.1301 -0.0748 -0.1573
  173SAPI   O1319564   1.999   0.095  25.326 -0.4455 -0.4920 -0.6515
  173SAPI   O1419565   1.987   0.264  25.511  0.7916  0.2509 -0.4314
  173SAPI   O1219566   1.818   0.276  25.318 -0.2652  0.6357 -0.0756
  173SAPI   O1119567   2.070   0.328  25.291 -0.0030  0.8435  0.2023
  173SAPI    C119568   2.111   0.454  25.344 -0.4394  0.0338 -0.1124
  173SAPI    HA19569   2.130   0.450  25.454  1.3500 -0.5048 -0.4135
  173SAPI    HB19570   2.205   0.495  25.300 -1.5324  3.2170  0.2434
  173SAPI    C219571   2.010   0.571  25.323 -0.6540  0.5531 -0.0549
  173SAPI    HS19572   1.919   0.539  25.377 -0.4186  0.2799  0.1816
  173SAPI   O2119573   1.991   0.564  25.176 -0.3908  0.4286  0.5338
  173SAPI   C2119574   1.857   0.571  25.137  0.1679  0.0627  0.0589
  173SAPI   O2219575   1.762   0.568  25.215 -0.1429  0.3993  0.7355
  173SAPI   C2219576   1.849   0.560  24.990  0.2314  0.0519  0.4048
  173SAPI   H2R19577   1.952   0.558  24.947 -0.0545  1.3279 -0.4276
  173SAPI   H2S19578   1.799   0.466  24.961  1.6256 -0.7079  0.3625
  173SAPI    C319579   2.063   0.708  25.366  0.9116 -0.1913  0.2434
  173SAPI    HX19580   2.165   0.722  25.322  0.3008 -0.1451 -1.2054
  173SAPI    HY19581   2.085   0.697  25.474  0.6865 -5.4195 -0.0030
  173SAPI   O3119582   1.960   0.808  25.333 -0.3396  0.3957 -0.5803
  173SAPI   C3119583   1.910   0.883  25.436  0.4971 -0.3559  0.7947
  173SAPI   O3219584   1.918   0.849  25.551  0.1617 -0.5628  0.2137
  173SAPI   C3219585   1.844   1.004  25.378  0.3069 -0.7833  0.0261
  173SAPI   H2X19586   1.750   1.029  25.431  0.9212 -1.0043  1.2491
  173SAPI   H2Y19587   1.810   0.981  25.275  1.4543 -0.2506 -0.4878
  173SAPI   C2319588   1.780   0.676  24.912 -0.5369  0.2136  0.2208
  173SAPI   H3R19589   1.674   0.680  24.943 -0.5676  2.5551 -0.0264
  173SAPI   H3S19590   1.785   0.640  24.806 -1.5654  2.5177 -0.6653
  173SAPI   C2419591   1.838   0.815  24.930  0.5619  0.3134 -0.5665
  173SAPI   H4R19592   1.836   0.830  25.040 -0.1709 -1.2820 -0.3251
  173SAPI   H4S19593   1.765   0.883  24.881 -1.6824 -2.2370 -1.0446
  173SAPI   C2519594   1.968   0.827  24.846  0.6676 -0.2804 -0.7014
  173SAPI   H5R19595   1.959   0.767  24.755 -0.5031  0.3504 -1.0175
  173SAPI   C2619596   2.081   0.897  24.873  0.1244  1.0982 -0.7148
  173SAPI   H6R19597   2.154   0.893  24.792 -1.7329 -0.7448 -2.4239
  173SAPI   C2719598   2.115   0.966  24.998  0.0739 -0.0772 -0.1113
  173SAPI   H7R19599   2.027   0.999  25.057 -0.1384 -2.4915  1.0300
  173SAPI   H7S19600   2.172   1.059  24.976 -0.9445  0.1733 -1.8914
  173SAPI   C2819601   2.206   0.877  25.092  0.0880  0.0326  0.4381
  173SAPI   H8R19602   2.158   0.787  25.132 -0.1699  0.3288  0.7943
  173SAPI   C2919603   2.339   0.888  25.132 -0.3260  0.9868 -0.1357
  173SAPI   H9R19604   2.377   0.811  25.201  1.4036  1.1447 -0.8451
  173SAPI  C21019605   2.435   0.997  25.087 -0.0413  0.3850  0.0811
  173SAPI  H10R19606   2.374   1.062  25.021  0.9466  0.5313 -0.7082
  173SAPI  H10S19607   2.520   0.958  25.027 -0.5172 -0.2832 -0.1709
  173SAPI  C21119608   2.497   1.061  25.210  0.0217 -1.0774  0.7987
  173SAPI  H11R19609   2.533   0.989  25.284  2.3962 -0.9407 -0.1335
  173SAPI  C21219610   2.519   1.194  25.222  0.7409  0.4848 -0.1458
  173SAPI  H12R19611   2.564   1.235  25.313  0.0464  0.9974 -0.0331
  173SAPI  C21319612   2.477   1.304  25.127 -0.0670  0.5422  0.2229
  173SAPI  H13R19613   2.447   1.395  25.183 -1.1032 -1.1667  2.6647
  173SAPI  H13S19614   2.382   1.271  25.081 -0.7389  2.3082  0.2667
  173SAPI  C21419615   2.574   1.352  25.024  0.0978  0.1044  0.0160
  173SAPI  H14R19616   2.672   1.302  25.026 -0.2408 -0.5722  1.5583
  173SAPI  C21519617   2.534   1.429  24.923  0.3119 -0.0043  0.1572
  173SAPI  H15R19618   2.609   1.457  24.848  0.5756 -0.2672  0.3176
  173SAPI  C21619619   2.396   1.486  24.901 -0.5390  0.4413  0.5165
  173SAPI  H16R19620   2.326   1.461  24.984  0.4192  1.6733  1.7428
  173SAPI  H16S19621   2.351   1.438  24.811  1.3024  0.1634 -0.2862
  173SAPI  C21719622   2.401   1.637  24.876  0.3861 -0.2081  0.6818
  173SAPI  H17R19623   2.485   1.657  24.807  0.9677 -0.4911  1.3020
  173SAPI  H17S19624   2.439   1.686  24.968  1.6846 -0.6825  0.4113
  173SAPI  C21819625   2.263   1.692  24.827  0.1034 -0.1172  0.4076
  173SAPI  H18R19626   2.183   1.645  24.890 -1.4902 -3.4363 -3.6062
  173SAPI  H18S19627   2.246   1.645  24.728 -0.6556  1.4740 -0.2541
  173SAPI  C21919628   2.252   1.844  24.843  0.7219 -0.8017  0.5770
  173SAPI  H19R19629   2.316   1.884  24.762  0.5754  0.2203  0.9452
  173SAPI  H19S19630   2.301   1.884  24.934 -0.7346  1.1441  0.5802
  173SAPI  C22019631   2.116   1.907  24.828  0.4509 -0.4983  0.8398
  173SAPI  H20R19632   2.043   1.875  24.905 -0.1142 -0.8438  0.1731
  173SAPI  H20S19633   2.067   1.881  24.731  4.3277 -0.6241 -1.3081
  173SAPI  H20T19634   2.121   2.017  24.840 -0.9008 -0.1294 -1.4590
  173SAPI   C3319635   1.929   1.136  25.394  0.2563  0.2867  0.3106
  173SAPI   H3X19636   2.013   1.122  25.322 -0.7198  0.0888 -0.8116
  173SAPI   H3Y19637   1.962   1.160  25.497 -1.9948 -1.0307  1.4128
  173SAPI   C3419638   1.867   1.267  25.354  0.0325 -0.0966 -0.0959
  173SAPI   H4X19639   1.928   1.356  25.383 -0.3862  0.0233  0.4290
  173SAPI   H4Y19640   1.777   1.279  25.417  0.4700  0.4246  0.4447
  173SAPI   C3519641   1.822   1.278  25.211  0.1816  1.0519 -0.1521
  173SAPI   H5X19642   1.753   1.363  25.230 -1.1255 -0.4081  2.0149
  173SAPI   H5Y19643   1.772   1.183  25.187  0.8842 -0.1006  2.5158
  173SAPI   C3619644   1.936   1.307  25.105 -0.0359  0.5381 -0.3248
  173SAPI   H6X19645   2.016   1.231  25.117 -0.1032  0.3812 -0.8887
  173SAPI   H6Y19646   1.980   1.400  25.148  1.8411 -0.6766  0.5176
  173SAPI   C3719647   1.883   1.338  24.960 -0.0075  0.8930 -0.3446
  173SAPI   H7X19648   1.974   1.374  24.907  1.1255 -0.4381  0.5853
  173SAPI   H7Y19649   1.800   1.409  24.975 -0.4972  0.1001  0.8789
  173SAPI   C3819650   1.836   1.208  24.891  0.4982 -0.4859  0.7085
  173SAPI   H8X19651   1.768   1.150  24.957 -0.8372 -1.0480 -1.1014
  173SAPI   H8Y19652   1.927   1.145  24.877 -0.0885 -1.0342 -0.8227
  173SAPI   C3919653   1.770   1.233  24.748 -0.2044  0.4444  0.9075
  173SAPI   H9X19654   1.773   1.137  24.693  1.6142  0.0129  1.6883
  173SAPI   H9Y19655   1.832   1.310  24.696 -1.1038  1.3122  1.0873
  173SAPI  C31019656   1.628   1.284  24.777  0.9340 -0.5114  0.0662
  173SAPI  H10X19657   1.641   1.389  24.809 -1.7584  0.2404 -1.0536
  173SAPI  H10Y19658   1.570   1.234  24.858 -0.8459 -0.2201 -0.9788
  173SAPI  C31119659   1.546   1.305  24.645 -0.4665  0.1179 -0.2487
  173SAPI  H11X19660   1.490   1.211  24.627 -1.1332  0.0613  1.8115
  173SAPI  H11Y19661   1.620   1.336  24.568  0.3846  0.3781  0.6575
  173SAPI  C31219662   1.444   1.410  24.670 -0.8747  0.7917  0.0160
  173SAPI  H12X19663   1.485   1.502  24.716 -2.5345  1.1753  0.8158
  173SAPI  H12Y19664   1.368   1.367  24.739 -0.0544 -2.7577 -1.0543
  173SAPI  C31319665   1.369   1.455  24.540  0.3977  0.3758 -0.0948
  173SAPI  H13X19666   1.325   1.365  24.491 -0.9136  1.0660 -0.2233
  173SAPI  H13Y19667   1.447   1.493  24.471  0.6408  0.2874  0.1288
  173SAPI  C31419668   1.255   1.557  24.569 -0.0825  0.4411 -0.0877
  173SAPI  H14X19669   1.288   1.662  24.583  0.4816  0.3096 -0.4317
  173SAPI  H14Y19670   1.203   1.525  24.662  0.2230  0.3724  0.0606
  173SAPI  C31519671   1.140   1.550  24.466  0.4875 -0.5074  0.4714
  173SAPI  H15X19672   1.136   1.450  24.418  1.2251  0.2841 -1.3001
  173SAPI  H15Y19673   1.161   1.618  24.381  0.7151 -0.9398  0.1789
  173SAPI  C31619674   1.005   1.591  24.516  0.1032 -0.0788  0.3965
  173SAPI  H16X19675   1.002   1.696  24.553 -1.2588  0.8382 -2.0982
  173SAPI  H16Y19676   0.978   1.509  24.586  2.4827 -1.3712 -0.0956
  173SAPI  C31719677   0.897   1.588  24.409  0.3146 -0.1899 -0.2564
  173SAPI  H17X19678   0.909   1.496  24.349 -1.1673  0.1006 -1.0557
  173SAPI  H17Y19679   0.895   1.678  24.343 -0.7306  0.9554  1.2539
  173SAPI  C31819680   0.758   1.589  24.474  0.2081  0.0072  0.5358
  173SAPI  H18X19681   0.732   1.694  24.500  0.5989 -0.0735  1.2767
  173SAPI  H18Y19682   0.756   1.534  24.571  1.7350  2.4225  2.0439
  173SAPI  H18Z19683   0.685   1.551  24.400 -0.1631  2.0294 -0.1794
  174SAPI   C1219684   0.087   3.994  24.835 -0.3025 -0.8691 -0.0897
  174SAPI    H219685   0.088   4.021  24.942  1.7172 -1.6161  0.1156
  174SAPI    O219686   0.096   4.117  24.764  0.0927  0.9451  0.2981
  174SAPI   HO219687   0.018   4.164  24.794 -1.9114 -1.1179 -1.3261
  174SAPI   C1319688   0.211   3.913  24.818 -0.7979 -0.0415 -0.2861
  174SAPI    H319689   0.199   3.821  24.880 -0.7642 -0.0339 -0.2683
  174SAPI    O319690   0.328   3.979  24.869 -0.0054  0.1299 -0.4763
  174SAPI   HO319691   0.403   3.919  24.865 -1.2015 -1.4916  0.2283
  174SAPI   C1419692   0.222   3.873  24.665 -0.6746 -0.5582  0.1227
  174SAPI    H419693   0.257   3.962  24.609 -3.6601  0.3284 -0.4742
  174SAPI    O419694   0.326   3.774  24.649  0.1091 -0.1842  0.4273
  174SAPI   HO419695   0.395   3.836  24.626 -2.5290  2.3006 -1.5593
  174SAPI   C1519696   0.097   3.848  24.581 -0.0776 -0.6996  0.5964
  174SAPI    H519697   0.092   3.738  24.567  1.4555 -0.5646 -1.5991
  174SAPI    O519698   0.109   3.892  24.444  0.2167 -0.2214 -0.8884
  174SAPI   HO519699   0.031   3.945  24.425  0.3242  0.7005  1.0448
  174SAPI   C1619700  -0.038   3.882  24.646 -0.3023 -0.3530  0.0113
  174SAPI    H619701  -0.067   3.977  24.595 -3.5872 -0.9371  0.6158
  174SAPI    O619702  -0.140   3.797  24.609  0.0571  0.5151  0.4208
  174SAPI   HO619703  -0.222   3.848  24.608  1.3159  2.6576 -0.2985
  174SAPI   C1119704  -0.033   3.916  24.795  0.0389  0.1226  0.2123
  174SAPI    H119705  -0.029   3.818  24.847 -1.0778 -1.1728 -1.9986
  174SAPI     P19706  -0.296   3.932  24.863  0.1017  0.0200  0.0125
  174SAPI   O1319707  -0.357   3.881  24.743 -0.1728 -0.0378  0.1863
  174SAPI   O1419708  -0.379   4.032  24.933 -0.2087 -0.3058 -0.2944
  174SAPI   O1219709  -0.146   3.998  24.832 -0.1079  0.2674 -0.1808
  174SAPI   O1119710  -0.267   3.816  24.962 -0.2941  0.5799  0.0289
  174SAPI    C119711  -0.361   3.710  24.975  0.8440  0.1623  0.4193
  174SAPI    HA19712  -0.410   3.720  25.074  1.1615 -0.5823  0.6552
  174SAPI    HB19713  -0.444   3.716  24.901  1.3854  1.6710 -0.1009
  174SAPI    C219714  -0.304   3.564  24.963 -0.4251 -0.1636 -0.7806
  174SAPI    HS19715  -0.241   3.546  25.053  1.8971 -0.5746 -2.3972
  174SAPI   O2119716  -0.226   3.537  24.849 -0.0162  0.2058  0.0750
  174SAPI   C2119717  -0.108   3.475  24.877  0.7889 -0.3400 -0.4188
  174SAPI   O2219718  -0.074   3.423  24.989  0.5390 -0.3328  1.2278
  174SAPI   C2219719  -0.015   3.497  24.760 -0.5065 -1.1758  0.4607
  174SAPI   H2R19720  -0.036   3.586  24.696  0.0831 -2.5929 -1.8428
  174SAPI   H2S19721   0.086   3.517  24.800 -0.1358 -0.8238 -0.6100
  174SAPI    C319722  -0.415   3.452  24.969  0.4780 -0.4402 -0.0473
  174SAPI    HX19723  -0.482   3.481  24.885  1.2126 -1.7301 -1.1098
  174SAPI    HY19724  -0.474   3.460  25.063  3.4520  0.0240  1.9332
  174SAPI   O3119725  -0.360   3.316  24.953  0.7923  0.0250  0.2096
  174SAPI   C3119726  -0.310   3.274  25.067  0.8951 -0.1499 -0.3578
  174SAPI   O3219727  -0.303   3.335  25.172  0.5535  0.3832  0.5517
  174SAPI   C3219728  -0.261   3.137  25.046  0.2428  0.3754 -0.4092
  174SAPI   H2X19729  -0.174   3.143  24.977 -0.7502  0.4890 -1.6927
  174SAPI   H2Y19730  -0.341   3.076  24.998  0.0432  0.3720 -0.0696
  174SAPI   C2319731   0.002   3.379  24.660 -0.2553  0.4153  0.0469
  174SAPI   H3R19732   0.024   3.287  24.717  0.0173  0.8022  0.5746
  174SAPI   H3S19733   0.081   3.408  24.587 -0.6753  0.8435 -0.2500
  174SAPI   C2419734  -0.124   3.334  24.581 -0.1752 -0.1859 -0.1976
  174SAPI   H4R19735  -0.210   3.341  24.652  0.6019  1.6541  0.6343
  174SAPI   H4S19736  -0.116   3.227  24.554  1.1644  0.2411 -1.5995
  174SAPI   C2519737  -0.154   3.423  24.462  0.1104  0.2620 -0.2863
  174SAPI   H5R19738  -0.178   3.527  24.488  0.2805 -0.1785  1.7817
  174SAPI   C2619739  -0.172   3.391  24.333 -0.1746  0.2840 -0.2628
  174SAPI   H6R19740  -0.184   3.470  24.258 -0.1937  0.1927 -0.3560
  174SAPI   C2719741  -0.135   3.250  24.289  0.0529 -0.1806  0.3529
  174SAPI   H7R19742  -0.199   3.219  24.204  3.3340 -1.2431 -1.9197
  174SAPI   H7S19743  -0.150   3.178  24.373 -1.4828 -0.2331  0.0633
  174SAPI   C2819744   0.006   3.240  24.246 -0.3661  0.2397  0.4295
  174SAPI   H8R19745   0.075   3.283  24.321 -0.7195 -1.4451  1.7675
  174SAPI   C2919746   0.045   3.197  24.125 -0.3036 -0.2711 -0.1232
  174SAPI   H9R19747   0.150   3.176  24.103 -1.0457 -0.6530 -4.0235
  174SAPI  C21019748  -0.042   3.134  24.020  0.3822  0.4899 -0.1693
  174SAPI  H10R19749  -0.140   3.094  24.052 -0.3652  0.3486 -2.3979
  174SAPI  H10S19750   0.016   3.047  23.982 -0.7633 -0.3085 -0.1163
  174SAPI  C21119751  -0.071   3.225  23.899 -0.9304 -0.0005 -1.0082
  174SAPI  H11R19752  -0.020   3.323  23.901 -2.3299  0.7500 -0.2172
  174SAPI  C21219753  -0.142   3.184  23.795  0.3780  0.3908  0.3822
  174SAPI  H12R19754  -0.166   3.267  23.727  0.2968 -1.2323 -1.6469
  174SAPI  C21319755  -0.199   3.050  23.772 -0.5124 -0.0453  0.2694
  174SAPI  H13R19756  -0.307   3.064  23.751 -0.1037  0.9530 -1.3542
  174SAPI  H13S19757  -0.186   2.987  23.863  2.8873  1.3879  0.9323
  174SAPI  C21419758  -0.133   2.973  23.653  0.0944 -0.4850 -0.0894
  174SAPI  H14R19759  -0.038   3.011  23.613 -0.0620 -1.4820 -1.4543
  174SAPI  C21519760  -0.180   2.864  23.582  0.4962  0.3822  0.9255
  174SAPI  H15R19761  -0.126   2.830  23.493 -1.1084  0.6699 -0.1888
  174SAPI  C21619762  -0.314   2.808  23.593  0.3822 -0.2897  0.3193
  174SAPI  H16R19763  -0.384   2.864  23.659 -1.7254 -1.4807 -0.7912
  174SAPI  H16S19764  -0.305   2.710  23.646  1.3319 -0.4018 -0.0178
  174SAPI  C21719765  -0.372   2.773  23.451 -0.3989  0.2665  0.0617
  174SAPI  H17R19766  -0.348   2.858  23.384  1.6871 -0.5291 -0.2623
  174SAPI  H17S19767  -0.482   2.763  23.462 -0.4862  0.3222 -0.7429
  174SAPI  C21819768  -0.312   2.646  23.395  0.5260 -0.0814  0.1046
  174SAPI  H18R19769  -0.315   2.567  23.473  4.0323 -1.2090 -0.7220
  174SAPI  H18S19770  -0.206   2.659  23.365  1.1684 -2.0015  1.3696
  174SAPI  C21919771  -0.391   2.606  23.269  0.7040 -0.0292 -0.8582
  174SAPI  H19R19772  -0.488   2.574  23.313  0.7027  1.7998  0.5559
  174SAPI  H19S19773  -0.350   2.518  23.214 -2.5201 -0.2339 -3.2060
  174SAPI  C22019774  -0.414   2.719  23.166  0.1502 -0.3877  1.1605
  174SAPI  H20R19775  -0.482   2.691  23.083  0.3299  1.4212  0.3550
  174SAPI  H20S19776  -0.321   2.747  23.113 -0.2522  1.9106  1.5572
  174SAPI  H20T19777  -0.459   2.806  23.219 -1.3010 -0.1203 -0.4160
  174SAPI   C3319778  -0.224   3.060  25.176 -0.3526 -0.1695 -0.1207
  174SAPI   H3X19779  -0.317   3.031  25.229  0.0804 -1.6784 -0.1193
  174SAPI   H3Y19780  -0.159   3.127  25.235 -0.7581 -1.7367  2.2803
  174SAPI   C3419781  -0.137   2.928  25.163 -0.9075 -0.4957  0.4913
  174SAPI   H4X19782  -0.172   2.855  25.088 -1.7249 -0.5634  0.9217
  174SAPI   H4Y19783  -0.150   2.869  25.257 -4.8432 -1.3613 -0.3962
  174SAPI   C3519784   0.008   2.955  25.124 -0.5745 -0.1066  0.2640
  174SAPI   H5X19785   0.053   3.026  25.197  1.6081 -0.7858 -0.3410
  174SAPI   H5Y19786   0.006   3.003  25.024 -1.2606  0.5064  0.5667
  174SAPI   C3619787   0.094   2.831  25.116  0.5583  0.0102 -0.3934
  174SAPI   H6X19788   0.052   2.747  25.175  0.4726  0.4572  0.1849
  174SAPI   H6Y19789   0.193   2.846  25.164  0.4296  0.4834 -0.2751
  174SAPI   C3719790   0.107   2.777  24.976  0.2874 -0.0619 -0.0784
  174SAPI   H7X19791   0.148   2.865  24.921 -0.0124  1.4313  1.9624
  174SAPI   H7Y19792   0.002   2.770  24.941  0.2597  2.7689 -0.8226
  174SAPI   C3819793   0.194   2.654  24.970 -0.2920  0.4500 -0.5651
  174SAPI   H8X19794   0.141   2.563  25.006 -0.2046  0.6652  0.1332
  174SAPI   H8Y19795   0.284   2.678  25.030  0.7478  0.2554 -2.0084
  174SAPI   C3919796   0.244   2.618  24.826 -0.3947 -0.6096  0.1897
  174SAPI   H9X19797   0.325   2.690  24.801  1.5353 -2.3764  0.9922
  174SAPI   H9Y19798   0.160   2.632  24.755  0.4986 -0.0360 -0.7787
  174SAPI  C31019799   0.297   2.476  24.814  0.0296 -0.4263  0.1279
  174SAPI  H10X19800   0.221   2.404  24.853  0.1888 -1.5979 -1.5878
  174SAPI  H10Y19801   0.398   2.471  24.861  0.5378  0.9613 -0.7676
  174SAPI  C31119802   0.314   2.448  24.663 -0.1363  0.2581  0.1380
  174SAPI  H11X19803   0.410   2.497  24.639  2.0185 -1.2443  4.6349
  174SAPI  H11Y19804   0.220   2.485  24.616 -1.0493 -0.7876  1.0726
  174SAPI  C31219805   0.313   2.304  24.637 -0.0881 -0.1762 -0.4303
  174SAPI  H12X19806   0.209   2.271  24.659 -0.8034  0.9066 -1.9714
  174SAPI  H12Y19807   0.400   2.275  24.700  0.7383  2.3886 -0.2671
  174SAPI  C31319808   0.352   2.253  24.495  0.1106  0.1332  0.4318
  174SAPI  H13X19809   0.459   2.280  24.483  0.0666  0.1957  0.1592
  174SAPI  H13Y19810   0.296   2.306  24.414 -0.3195 -2.4175 -1.0689
  174SAPI  C31419811   0.336   2.101  24.489 -0.2871 -0.0328 -0.1625
  174SAPI  H14X19812   0.229   2.071  24.498  0.1927 -1.6064  0.7197
  174SAPI  H14Y19813   0.398   2.061  24.572  0.8449  2.3616  0.2051
  174SAPI  C31519814   0.377   2.046  24.356  0.0797  0.6160  0.0304
  174SAPI  H15X19815   0.475   2.082  24.319  0.0056 -0.5464 -1.3518
  174SAPI  H15Y19816   0.300   2.087  24.287  1.0459 -1.7615 -2.6464
  174SAPI  C31619817   0.376   1.896  24.355  0.3170  0.2136 -0.8998
  174SAPI  H16X19818   0.285   1.861  24.407 -0.1044  1.4069 -0.7910
  174SAPI  H16Y19819   0.457   1.854  24.418 -0.1576 -0.4847 -0.7443
  174SAPI  C31719820   0.372   1.838  24.218  0.4140  0.7355  0.1935
  174SAPI  H17X19821   0.405   1.733  24.204 -1.8159  0.1173 -1.0095
  174SAPI  H17Y19822   0.444   1.898  24.158  1.8995  0.9144  2.0527
  174SAPI  C31819823   0.230   1.843  24.153 -0.6811 -0.4471  0.2497
  174SAPI  H18X19824   0.177   1.806  24.244  1.2305  0.4879  1.8222
  174SAPI  H18Y19825   0.215   1.776  24.065  2.3867  0.0901 -0.8086
  174SAPI  H18Z19826   0.190   1.944  24.131 -0.9228 -0.4779  0.5448
  175SAPI   C1219827   1.952   2.085  17.162 -1.2591  0.9214 -0.3852
  175SAPI    H219828   1.964   2.188  17.202  1.2881  0.4010  0.4008
  175SAPI    O219829   2.089   2.048  17.151 -0.0633 -0.3575 -0.6903
  175SAPI   HO219830   2.146   2.125  17.145  0.8437 -1.0990 -2.4011
  175SAPI   C1319831   1.876   2.011  17.273  0.3009  0.1654  0.1478
  175SAPI    H319832   1.771   2.043  17.286 -0.0261 -1.1647  0.9257
  175SAPI    O319833   1.944   2.026  17.399  0.6261 -0.2787  0.3655
  175SAPI   HO319834   1.876   2.049  17.463 -1.9844 -2.0644 -1.5292
  175SAPI   C1419835   1.882   1.867  17.235 -0.1030 -0.5820 -0.9699
  175SAPI    H419836   1.988   1.837  17.254 -0.7898 -1.2128  2.7560
  175SAPI    O419837   1.803   1.789  17.326  0.0826 -0.8481 -0.2859
  175SAPI   HO419838   1.854   1.769  17.405  0.2074 -2.8228 -0.8276
  175SAPI   C1519839   1.860   1.832  17.088  0.4696  0.5531  0.0615
  175SAPI    H519840   1.750   1.817  17.098  0.4488  1.4823  1.5221
  175SAPI    O519841   1.911   1.708  17.051 -0.0377  0.2335  0.0996
  175SAPI   HO519842   2.006   1.727  17.054 -0.3389  1.9447 -0.1445
  175SAPI   C1619843   1.869   1.940  16.977  0.3228  0.2738  0.1006
  175SAPI    H619844   1.964   1.924  16.922  0.1454 -0.9196  0.1142
  175SAPI    O619845   1.770   1.918  16.876  0.0901 -0.6651  0.0953
  175SAPI   HO619846   1.685   1.950  16.905  1.2307  0.6176  2.3148
  175SAPI   C1119847   1.878   2.080  17.033 -0.0334 -0.5414  0.4362
  175SAPI    H119848   1.773   2.110  17.056  0.2043 -0.6469  1.7519
  175SAPI     P19849   1.895   2.306  16.889 -0.6902 -0.0421  0.1565
  175SAPI   O1319850   1.748   2.303  16.882  0.5406 -0.0580  0.3124
  175SAPI   O1419851   1.963   2.348  16.766 -0.3039  0.3455  0.2449
  175SAPI   O1219852   1.939   2.157  16.933  0.2040  0.1970  0.1950
  175SAPI   O1119853   1.950   2.388  17.007 -0.7964 -0.9417 -0.2925
  175SAPI    C119854   2.087   2.409  17.019  0.5484 -0.2633  0.5658
  175SAPI    HA19855   2.124   2.368  17.116 -1.0872 -0.7237  1.0182
  175SAPI    HB19856   2.156   2.368  16.942 -0.1128  1.6432 -1.1347
  175SAPI    C219857   2.123   2.561  17.014 -0.9455 -0.0709  0.1632
  175SAPI    HS19858   2.053   2.612  17.083 -1.1176  1.0748 -0.8197
  175SAPI   O2119859   2.119   2.615  16.885  0.1439 -0.5212 -0.3150
  175SAPI   C2119860   2.001   2.668  16.852 -0.2142  0.3712  0.2781
  175SAPI   O2219861   1.901   2.660  16.918 -0.2173 -0.6799 -0.0809
  175SAPI   C2219862   2.010   2.738  16.712  0.2088  0.4097 -0.8305
  175SAPI   H2R19863   2.109   2.789  16.710  1.6341 -2.0108  0.9216
  175SAPI   H2S19864   2.014   2.651  16.642 -0.8660 -1.8812  1.7478
  175SAPI    C319865   2.274   2.579  17.065  0.1587 -0.2576 -0.6255
  175SAPI    HX19866   2.306   2.682  17.042 -1.0105  0.7593  1.8342
  175SAPI    HY19867   2.331   2.507  17.003 -0.5816 -0.3354 -1.2363
  175SAPI   O3119868   2.287   2.563  17.206  0.3524  0.5120 -0.9059
  175SAPI   C3119869   2.415   2.543  17.246  0.1675 -0.5389  0.2044
  175SAPI   O3219870   2.515   2.547  17.179 -0.0224  0.1838  0.6785
  175SAPI   C3219871   2.426   2.524  17.396 -0.4682 -0.6449 -0.0816
  175SAPI   H2X19872   2.535   2.520  17.417 -0.4460  0.8155  0.1857
  175SAPI   H2Y19873   2.375   2.432  17.430 -0.9129  0.4702  2.4830
  175SAPI   C2319874   1.887   2.825  16.678  0.4719 -0.9335 -0.7732
  175SAPI   H3R19875   1.796   2.762  16.690  0.7519 -1.1940  0.0438
  175SAPI   H3S19876   1.892   2.868  16.575 -1.2839  0.8754 -0.1759
  175SAPI   C2419877   1.880   2.947  16.782 -0.1709  0.3223  0.3788
  175SAPI   H4R19878   1.972   3.007  16.765 -0.6949  0.7765 -1.0081
  175SAPI   H4S19879   1.873   2.905  16.884 -1.6832 -0.6981 -0.1129
  175SAPI   C2519880   1.752   3.029  16.766  0.8835  0.2905 -0.5716
  175SAPI   H5R19881   1.691   3.002  16.679  0.1003 -0.2994  0.1391
  175SAPI   C2619882   1.713   3.135  16.834  0.0197  0.4007 -0.1257
  175SAPI   H6R19883   1.621   3.188  16.807  0.2888  1.3007  0.6620
  175SAPI   C2719884   1.791   3.209  16.935  0.6591 -0.1233  0.4574
  175SAPI   H7R19885   1.900   3.203  16.914  0.9718  0.6593  1.7296
  175SAPI   H7S19886   1.796   3.168  17.038  2.0012 -2.1906 -0.3768
  175SAPI   C2819887   1.749   3.360  16.939  0.5370  0.4245 -0.7722
  175SAPI   H8R19888   1.706   3.407  16.849 -1.1042  2.1633  0.7994
  175SAPI   C2919889   1.754   3.438  17.057  0.5837 -0.3476  0.4594
  175SAPI   H9R19890   1.710   3.539  17.056 -0.6617 -0.8684 -0.3772
  175SAPI  C21019891   1.815   3.394  17.191  0.4850 -0.0359  0.1265
  175SAPI  H10R19892   1.901   3.329  17.163  2.3939  2.4247 -0.1328
  175SAPI  H10S19893   1.740   3.333  17.245  1.4610  0.9819  2.7576
  175SAPI  C21119894   1.870   3.508  17.272  0.2456  0.7089 -0.5223
  175SAPI  H11R19895   1.980   3.520  17.277  0.2556  0.2464  0.9575
  175SAPI  C21219896   1.800   3.601  17.338 -0.7904  0.5361 -0.2037
  175SAPI  H12R19897   1.859   3.677  17.392  2.3038 -1.1432 -1.0071
  175SAPI  C21319898   1.649   3.607  17.343 -0.1456  0.6130 -0.2903
  175SAPI  H13R19899   1.609   3.589  17.241 -0.9652  0.7826 -0.0067
  175SAPI  H13S19900   1.616   3.712  17.361 -1.2659 -0.2897  4.0814
  175SAPI  C21419901   1.563   3.525  17.438 -0.1568 -0.5723 -0.5262
  175SAPI  H14R19902   1.606   3.459  17.515 -1.0126  0.1110  0.5629
  175SAPI  C21519903   1.429   3.541  17.446 -0.3104  0.3953  0.3659
  175SAPI  H15R19904   1.370   3.481  17.517  0.8595 -2.7758 -1.1465
  175SAPI  C21619905   1.344   3.619  17.349 -0.1483 -0.7546  0.0705
  175SAPI  H16R19906   1.262   3.559  17.305  0.6501  0.1513 -2.8808
  175SAPI  H16S19907   1.398   3.664  17.263 -0.1039  0.4963  0.7307
  175SAPI  C21719908   1.276   3.738  17.416  1.0817 -0.3846 -0.3737
  175SAPI  H17R19909   1.217   3.695  17.499 -0.6131  0.4057 -1.1214
  175SAPI  H17S19910   1.200   3.787  17.351  0.7770  1.0466  0.9895
  175SAPI  C21819911   1.380   3.843  17.459  0.5278  0.4587 -0.1456
  175SAPI  H18R19912   1.443   3.871  17.372  1.3584 -1.7812 -0.3480
  175SAPI  H18S19913   1.434   3.804  17.548  1.4571 -1.3981 -1.4469
  175SAPI  C21919914   1.312   3.970  17.514  0.2159 -0.3358  0.0712
  175SAPI  H19R19915   1.249   3.946  17.602 -1.1070 -1.7935 -1.1923
  175SAPI  H19S19916   1.238   4.012  17.442 -2.4616 -0.7615  2.4046
  175SAPI  C22019917   1.404   4.089  17.547 -0.0705 -0.6324 -0.0021
  175SAPI  H20R19918   1.362   4.162  17.620  4.7313 -0.0142  2.5514
  175SAPI  H20S19919   1.441   4.134  17.453  1.8815 -0.3051  0.8670
  175SAPI  H20T19920   1.480   4.032  17.606  0.0913  0.7841  1.2236
  175SAPI   C3319921   2.357   2.640  17.476  0.2400  0.6085 -0.1504
  175SAPI   H3X19922   2.398   2.616  17.576  0.1650 -0.3546 -0.3394
  175SAPI   H3Y19923   2.250   2.618  17.495  0.0591  1.9585  0.4813
  175SAPI   C3419924   2.398   2.781  17.447  0.7177  0.0471 -0.4417
  175SAPI   H4X19925   2.328   2.830  17.517 -1.3903 -2.6791 -0.4846
  175SAPI   H4Y19926   2.365   2.822  17.349 -1.4213 -0.7747 -0.0994
  175SAPI   C3519927   2.545   2.813  17.467 -0.4828 -0.3069  0.4821
  175SAPI   H5X19928   2.600   2.766  17.384 -2.5083 -0.3070 -0.9401
  175SAPI   H5Y19929   2.581   2.779  17.567 -2.2224 -0.6940  1.0242
  175SAPI   C3619930   2.572   2.967  17.460  0.4839  0.6700 -0.3999
  175SAPI   H6X19931   2.482   3.029  17.439  1.1446  2.0403  0.5771
  175SAPI   H6Y19932   2.641   2.984  17.375  1.0815 -0.7705 -0.2267
  175SAPI   C3719933   2.665   3.015  17.581  0.1330  0.5549 -1.0092
  175SAPI   H7X19934   2.738   2.932  17.591 -1.4092 -0.7754 -0.2568
  175SAPI   H7Y19935   2.611   3.023  17.677 -0.7280  0.0151 -1.4383
  175SAPI   C3819936   2.744   3.151  17.564 -0.3247  0.5660  0.0869
  175SAPI   H8X19937   2.779   3.158  17.459 -3.9013 -0.9217 -1.3894
  175SAPI   H8Y19938   2.829   3.146  17.636  0.9414 -2.0798 -1.4586
  175SAPI   C3919939   2.653   3.262  17.609 -0.7314  0.0034  0.8704
  175SAPI   H9X19940   2.617   3.237  17.712  1.6136  1.8512  2.2382
  175SAPI   H9Y19941   2.582   3.259  17.524 -1.2229 -1.7766  1.3008
  175SAPI  C31019942   2.743   3.388  17.626  0.8855 -0.4632  0.2246
  175SAPI  H10X19943   2.800   3.404  17.532 -0.2116  2.6252 -0.0252
  175SAPI  H10Y19944   2.799   3.369  17.720 -0.9665 -0.9908  1.2768
  175SAPI  C31119945   2.666   3.523  17.642  0.3473 -0.6684  0.0128
  175SAPI  H11X19946   2.742   3.604  17.643 -0.3176  0.1878 -3.7018
  175SAPI  H11Y19947   2.608   3.530  17.736  3.4247  4.5944  1.9648
  175SAPI  C31219948   2.561   3.545  17.533  0.1094 -0.3105 -0.8113
  175SAPI  H12X19949   2.492   3.626  17.565 -1.6997 -1.1782 -2.3301
  175SAPI  H12Y19950   2.489   3.461  17.531  0.9765 -1.3941  3.5066
  175SAPI  C31319951   2.619   3.574  17.393  0.1263  0.8524 -0.2251
  175SAPI  H13X19952   2.679   3.481  17.378 -0.2407  0.6160 -0.2185
  175SAPI  H13Y19953   2.686   3.663  17.400 -2.4672  3.3533 -3.7545
  175SAPI  C31419954   2.521   3.595  17.282 -0.4793 -0.5343  0.2541
  175SAPI  H14X19955   2.456   3.680  17.312  1.2113  0.9438 -0.0928
  175SAPI  H14Y19956   2.455   3.507  17.266 -1.1976 -0.7350  3.5589
  175SAPI  C31519957   2.599   3.623  17.149  0.0680 -0.0553  0.9951
  175SAPI  H15X19958   2.530   3.615  17.062  1.3004  1.5206 -0.1933
  175SAPI  H15Y19959   2.656   3.528  17.136  0.0975  0.1750 -0.8093
  175SAPI  C31619960   2.672   3.749  17.138 -0.1825 -0.6684 -0.2514
  175SAPI  H16X19961   2.751   3.746  17.216 -0.2273  1.7206 -0.0384
  175SAPI  H16Y19962   2.595   3.824  17.166  0.4969  0.6090 -1.6663
  175SAPI  C31719963   2.724   3.786  16.999 -0.5134  0.3616 -0.0393
  175SAPI  H17X19964   2.759   3.687  16.962 -0.1912 -0.0084  1.1866
  175SAPI  H17Y19965   2.800   3.865  17.015 -1.3006  1.6181 -2.1546
  175SAPI  C31819966   2.631   3.854  16.901 -0.8055  0.1309  0.2617
  175SAPI  H18X19967   2.700   3.875  16.817  0.7653 -0.7438  1.2824
  175SAPI  H18Y19968   2.598   3.953  16.940 -2.3932 -0.5418  0.7457
  175SAPI  H18Z19969   2.552   3.784  16.866 -0.2257  1.1455 -3.4368
  176SAPI   C1219970   2.862   0.978  15.715  0.8291 -0.5686  0.6803
  176SAPI    H219971   2.921   0.956  15.624  0.5863  0.3739  0.2863
  176SAPI    O219972   2.844   1.119  15.735 -0.3420  0.1383  0.3322
  176SAPI   HO219973   2.932   1.157  15.735 -0.2902  0.0279  0.7233
  176SAPI   C1319974   2.732   0.897  15.715 -0.2480 -0.7216  0.5008
  176SAPI    H319975   2.768   0.792  15.707 -1.0177 -0.9049 -0.8306
  176SAPI    O319976   2.651   0.924  15.592  0.3526  0.0230 -0.0956
  176SAPI   HO319977   2.631   0.837  15.557  0.0051 -2.3212  5.0065
  176SAPI   C1419978   2.655   0.933  15.841  0.4803 -0.3552  0.5895
  176SAPI    H419979   2.626   1.040  15.839  1.7401  0.0638  2.3041
  176SAPI    O419980   2.543   0.846  15.844 -0.2389 -0.1422 -0.1708
  176SAPI   HO419981   2.491   0.861  15.766 -1.2693  0.5991  0.6389
  176SAPI   C1519982   2.738   0.927  15.969  0.1818  0.6160  0.0279
  176SAPI    H519983   2.716   0.821  15.996  0.5190 -0.1535 -2.4624
  176SAPI    O519984   2.681   1.019  16.063  0.4159  0.1116 -0.4541
  176SAPI   HO519985   2.598   0.981  16.093 -0.0620  1.1401 -0.4422
  176SAPI   C1619986   2.885   0.933  15.966 -0.6987 -0.1097 -0.8741
  176SAPI    H619987   2.907   1.036  16.001 -1.1034 -0.7457  1.4541
  176SAPI    O619988   2.955   0.846  16.051 -0.4011  0.2934 -0.2980
  176SAPI   HO619989   3.050   0.855  16.040 -0.2858 -0.9626 -0.4116
  176SAPI   C1119990   2.957   0.927  15.831  0.5331 -0.3366  0.0171
  176SAPI    H119991   2.958   0.818  15.808 -0.1021 -0.9342  2.5223
  176SAPI     P19992   3.216   0.887  15.855 -0.5073  0.0094  0.3453
  176SAPI   O1319993   3.336   0.971  15.845  0.3002 -0.2208  0.6527
  176SAPI   O1419994   3.208   0.767  15.769 -0.2688  0.5774 -0.4239
  176SAPI   O1219995   3.083   0.979  15.832  0.4563  0.4383  0.3283
  176SAPI   O1119996   3.191   0.838  16.001 -0.2380  0.6629 -0.0209
  176SAPI    C119997   3.269   0.866  16.116  0.5327  0.0013 -0.0317
  176SAPI    HA19998   3.287   0.975  16.122 -0.7105  0.1424  2.5882
  176SAPI    HB19999   3.218   0.835  16.210  2.8710 -0.3099  1.2046
  176SAPI    C220000   3.407   0.792  16.117 -0.9855 -0.3884  0.6297
  176SAPI    HS20001   3.472   0.825  16.033  0.7085 -1.1401  1.5962
  176SAPI   O2120002   3.393   0.649  16.104  0.1132  0.0542 -0.2615
  176SAPI   C2120003   3.468   0.569  16.038 -0.4335  0.1863 -0.9859
  176SAPI   O2220004   3.562   0.605  15.968  0.7284 -0.2755  1.0213
  176SAPI   C2220005   3.433   0.425  16.071  0.2048  0.6309 -0.1839
  176SAPI   H2R20006   3.336   0.423  16.124 -0.2705  0.9829 -1.0280
  176SAPI   H2S20007   3.408   0.376  15.975  2.0262 -0.1126 -0.3310
  176SAPI    C320008   3.494   0.835  16.238 -0.0465 -0.2745  0.1290
  176SAPI    HX20009   3.439   0.797  16.327  0.2482  0.8316  0.8107
  176SAPI    HY20010   3.488   0.946  16.239 -0.6043 -0.3054  0.8547
  176SAPI   O3120011   3.622   0.778  16.217  0.4098  0.2587  0.0090
  176SAPI   C3120012   3.701   0.805  16.320  0.3862 -0.4250  0.7798
  176SAPI   O3220013   3.662   0.834  16.433  0.2252 -0.4479 -0.2857
  176SAPI   C3220014   3.845   0.769  16.280 -0.0620 -0.2819  0.0601
  176SAPI   H2X20015   3.891   0.846  16.214  1.9603 -1.3344  0.1709
  176SAPI   H2Y20016   3.842   0.674  16.223  1.3425 -0.3187  0.0125
  176SAPI   C2320017   3.546   0.355  16.135 -0.4898 -0.4765 -0.5154
  176SAPI   H3R20018   3.648   0.365  16.092  0.4023 -0.3514  1.5367
  176SAPI   H3S20019   3.530   0.245  16.141 -0.3088 -0.4981 -0.3973
  176SAPI   C2420020   3.573   0.410  16.284  0.4348 -0.0901 -0.6447
  176SAPI   H4R20021   3.471   0.418  16.327 -1.9650  2.0672 -5.8412
  176SAPI   H4S20022   3.624   0.509  16.279  2.1000 -0.7085  1.9730
  176SAPI   C2520023   3.660   0.320  16.367 -0.4924  0.5051 -0.5349
  176SAPI   H5R20024   3.726   0.255  16.309  0.7003  0.0340  1.2725
  176SAPI   C2620025   3.661   0.317  16.502  0.3098  0.0095 -0.6532
  176SAPI   H6R20026   3.730   0.241  16.541  1.6472  1.6707  0.3927
  176SAPI   C2720027   3.576   0.402  16.597 -0.0135 -0.4403 -0.2557
  176SAPI   H7R20028   3.587   0.372  16.704 -1.3404  0.3788  0.1342
  176SAPI   H7S20029   3.470   0.375  16.576 -0.2904 -2.7598  3.2243
  176SAPI   C2820030   3.593   0.554  16.602  0.1160  0.2466  0.4593
  176SAPI   H8R20031   3.665   0.602  16.533  0.4023 -0.3512  0.3390
  176SAPI   C2920032   3.532   0.633  16.691  0.6828  0.5176  0.5128
  176SAPI   H9R20033   3.568   0.738  16.694  1.8980  0.1688 -0.6530
  176SAPI  C21020034   3.439   0.588  16.804  0.3151  0.3426  0.1890
  176SAPI  H10R20035   3.480   0.490  16.835 -0.5995 -0.4166 -0.8944
  176SAPI  H10S20036   3.336   0.576  16.764  0.4708  1.0086 -0.4375
  176SAPI  C21120037   3.421   0.679  16.925 -0.3529 -0.8074 -0.6779
  176SAPI  H11R20038   3.505   0.747  16.947 -0.0933 -1.5528  0.7550
  176SAPI  C21220039   3.312   0.705  16.997 -0.5940  0.1426 -0.2191
  176SAPI  H12R20040   3.323   0.782  17.075  0.6726 -0.0321 -0.2117
  176SAPI  C21320041   3.177   0.644  16.988  0.5786 -0.4486  0.9489
  176SAPI  H13R20042   3.108   0.671  17.071 -0.0629  0.8239  0.0363
  176SAPI  H13S20043   3.188   0.534  16.996  1.0612 -0.3374  1.9868
  176SAPI  C21420044   3.099   0.690  16.868 -1.2893 -0.6916 -0.3868
  176SAPI  H14R20045   3.112   0.796  16.843 -1.9037 -0.4366  0.3163
  176SAPI  C21520046   3.012   0.613  16.803  0.2181  0.0452  0.1922
  176SAPI  H15R20047   2.944   0.658  16.730 -1.3133  0.7165  1.9275
  176SAPI  C21620048   2.966   0.475  16.840 -0.2085 -0.2010 -0.3344
  176SAPI  H16R20049   2.989   0.433  16.940  0.2876 -1.9633 -1.1446
  176SAPI  H16S20050   3.000   0.400  16.765  0.4286 -2.3687  1.9599
  176SAPI  C21720051   2.808   0.485  16.812 -0.0732 -1.1323 -0.9429
  176SAPI  H17R20052   2.790   0.516  16.707 -0.2414 -0.3944 -0.6979
  176SAPI  H17S20053   2.769   0.569  16.873  1.3055 -1.6918  0.8264
  176SAPI  C21820054   2.729   0.353  16.830  0.0575  0.1255  0.3785
  176SAPI  H18R20055   2.623   0.382  16.843  0.2445  0.6477  0.7838
  176SAPI  H18S20056   2.748   0.306  16.929  1.5570 -0.2741 -0.0632
  176SAPI  C21920057   2.744   0.252  16.720  0.3301 -0.2316 -0.0783
  176SAPI  H19R20058   2.849   0.229  16.692  0.4258 -0.5499  0.5051
  176SAPI  H19S20059   2.693   0.298  16.633  0.1337 -1.8149 -0.8352
  176SAPI  C22020060   2.675   0.123  16.760 -0.2964 -0.2853 -1.3424
  176SAPI  H20R20061   2.670   0.062  16.667 -2.8004  0.3314 -1.6668
  176SAPI  H20S20062   2.571   0.152  16.782  0.5335  1.3677  0.7021
  176SAPI  H20T20063   2.729   0.073  16.843  1.4833  1.3977 -1.4011
  176SAPI   C3320064   3.944   0.757  16.399  0.1662 -0.2598  0.5353
  176SAPI   H3X20065   3.933   0.824  16.487 -0.7284  1.2755 -0.7100
  176SAPI   H3Y20066   4.039   0.784  16.349  1.1722  1.5938  3.2193
  176SAPI   C3420067   3.963   0.612  16.456 -0.7162  0.1949 -0.5116
  176SAPI   H4X20068   3.988   0.545  16.371  0.1536 -0.9868  0.6401
  176SAPI   H4Y20069   3.864   0.596  16.503 -0.4463  1.1383  0.4197
  176SAPI   C3520070   4.082   0.587  16.556  0.3037  0.1956  0.4019
  176SAPI   H5X20071   4.073   0.498  16.621  1.9873  0.0676  0.5142
  176SAPI   H5Y20072   4.097   0.679  16.617  1.8272 -1.7045  3.1110
  176SAPI   C3620073   4.215   0.586  16.470  0.5030 -0.1033 -0.2500
  176SAPI   H6X20074   4.220   0.659  16.386 -1.6404 -0.4605 -0.7616
  176SAPI   H6Y20075   4.224   0.488  16.418  2.2362  1.0955 -2.3615
  176SAPI   C3720076   4.337   0.590  16.556 -0.0380 -0.3420 -0.6713
  176SAPI   H7X20077   4.320   0.509  16.630  2.6750 -0.5976 -0.2107
  176SAPI   H7Y20078   4.355   0.686  16.611  0.4149 -0.3051 -0.8820
  176SAPI   C3820079   4.472   0.550  16.500  0.3722 -0.3817  0.2359
  176SAPI   H8X20080   4.489   0.637  16.433 -0.0438  0.5044  1.2593
  176SAPI   H8Y20081   4.466   0.457  16.440 -0.4806 -0.4536  0.4245
  176SAPI   C3920082   4.578   0.536  16.612  0.2863  0.5979  0.3106
  176SAPI   H9X20083   4.657   0.468  16.574 -0.0562  0.7503 -0.7046
  176SAPI   H9Y20084   4.533   0.487  16.701  2.3858  1.8326  2.1784
  176SAPI  C31020085   4.637   0.669  16.649 -0.0582 -0.2242 -0.5917
  176SAPI  H10X20086   4.719   0.652  16.722 -2.5368  1.1596  2.7719
  176SAPI  H10Y20087   4.559   0.734  16.695  0.2526 -0.6309  0.5590
  176SAPI  C31120088   4.704   0.753  16.539 -0.2467  0.5690  0.0069
  176SAPI  H11X20089   4.704   0.858  16.572 -1.6913 -0.1754  2.6107
  176SAPI  H11Y20090   4.648   0.738  16.444  0.9898 -0.0155 -0.6584
  176SAPI  C31220091   4.850   0.720  16.499  0.3227 -0.4025 -0.1909
  176SAPI  H12X20092   4.853   0.616  16.460 -0.3778 -0.8699  0.9628
  176SAPI  H12Y20093   4.910   0.710  16.591  1.6815 -1.2287 -1.1202
  176SAPI  C31320094   4.910   0.808  16.393 -0.4918 -0.3979  0.3506
  176SAPI  H13X20095   4.891   0.914  16.423  0.6364  0.1023 -0.6193
  176SAPI  H13Y20096   4.868   0.781  16.294  1.1098 -1.8800  0.0134
  176SAPI  C31420097   5.066   0.792  16.374  0.5124  0.3472  0.0805
  176SAPI  H14X20098   5.097   0.689  16.345 -1.2848  0.0693 -1.0530
  176SAPI  H14Y20099   5.108   0.816  16.474 -1.9838  2.9197  0.6308
  176SAPI  C31520100   5.115   0.892  16.272 -0.0880 -0.3596 -0.3721
  176SAPI  H15X20101   5.068   0.991  16.287  2.0784  0.6551  0.0574
  176SAPI  H15Y20102   5.085   0.854  16.172 -0.3544  1.0411 -0.8434
  176SAPI  C31620103   5.266   0.914  16.277 -0.5363  0.8499  0.5221
  176SAPI  H16X20104   5.305   0.815  16.248 -1.2688 -0.0617  2.4493
  176SAPI  H16Y20105   5.308   0.953  16.373 -0.2049 -1.3241  1.3230
  176SAPI  C31720106   5.311   1.011  16.171  0.6878  0.8593  0.6172
  176SAPI  H17X20107   5.254   1.106  16.175  1.3840  1.2635  1.2661
  176SAPI  H17Y20108   5.282   0.964  16.074 -0.4259 -2.7525  2.5445
  176SAPI  C31820109   5.462   1.032  16.178  0.6399 -0.0264  0.0756
  176SAPI  H18X20110   5.496   1.098  16.095 -0.5197 -1.1140 -1.3378
  176SAPI  H18Y20111   5.523   0.939  16.180  1.1613  0.2738 -1.1667
  176SAPI  H18Z20112   5.472   1.087  16.274 -2.3516  0.9673 -0.0669
  177SLPC     N20113   0.933   0.304  25.519 -0.1348  0.0230 -0.2671
  177SLPC   C1320114   0.857   0.175  25.487  0.6669  0.1871 -0.4465
  177SLPC  H13A20115   0.862   0.094  25.558 -0.8882  0.2931 -0.1933
  177SLPC  H13B20116   0.750   0.188  25.484  0.6339 -0.1407 -2.5970
  177SLPC  H13C20117   0.879   0.134  25.389 -2.1589 -1.6867 -0.4212
  177SLPC   C1420118   0.898   0.401  25.413 -0.3515 -0.7763 -0.6540
  177SLPC  H14A20119   0.954   0.491  25.431  1.7970 -2.0119 -0.7694
  177SLPC  H14B20120   0.930   0.367  25.315  1.5586  1.5633 -0.9324
  177SLPC  H14C20121   0.795   0.432  25.422  0.4190  1.2315  3.0266
  177SLPC   C1520122   1.075   0.263  25.515  0.1389 -0.8502 -0.4836
  177SLPC  H15A20123   1.107   0.222  25.420  3.0041  2.9086 -1.4154
  177SLPC  H15B20124   1.140   0.349  25.515 -0.8539  0.0106 -3.2990
  177SLPC  H15C20125   1.094   0.201  25.601  0.9896  0.0251 -0.0200
  177SLPC   C1220126   0.893   0.359  25.651  0.5416  0.0760  0.3021
  177SLPC  H12A20127   0.930   0.458  25.672 -0.4225  0.0006  2.7318
  177SLPC  H12B20128   0.938   0.294  25.725 -0.1885 -0.5863  0.1767
  177SLPC   C1120129   0.740   0.367  25.683  0.0314 -0.5851  0.5959
  177SLPC  H11A20130   0.739   0.403  25.788  1.6936 -0.6693  0.6637
  177SLPC  H11B20131   0.700   0.263  25.688 -1.7692  0.0375 -0.1272
  177SLPC     P20132   0.582   0.568  25.651  0.1889 -0.0574 -0.2513
  177SLPC   O1320133   0.492   0.613  25.543  0.5490 -0.2916 -0.2419
  177SLPC   O1420134   0.521   0.527  25.778 -0.4178 -0.3582 -0.4839
  177SLPC   O1220135   0.663   0.450  25.593  0.3421 -0.0476  0.5064
  177SLPC   O1120136   0.702   0.669  25.675 -0.5635  0.3470 -0.1113
  177SLPC    C120137   0.776   0.707  25.554  0.2166 -0.9506 -0.1814
  177SLPC    HA20138   0.884   0.710  25.582 -0.4003 -0.7659  2.3887
  177SLPC    HB20139   0.765   0.636  25.469  0.2388 -2.6239  1.1657
  177SLPC    C220140   0.729   0.846  25.504  0.5311 -0.1744 -0.4067
  177SLPC    HS20141   0.658   0.829  25.421 -2.3900 -0.4965  2.0055
  177SLPC   O2120142   0.853   0.904  25.464 -0.4290 -0.5160  0.2993
  177SLPC   C2120143   0.852   0.990  25.368  0.0885 -0.0591 -0.3933
  177SLPC   O2220144   0.748   1.020  25.306  0.4030  0.4158  0.3423
  177SLPC   C2220145   0.993   1.037  25.344  0.4022  0.3638  0.1690
  177SLPC   H2R20146   1.060   0.948  25.342  2.1806  1.6400 -0.6600
  177SLPC   H2S20147   0.989   1.077  25.240  0.3093  1.6840  0.6626
  177SLPC    C320148   0.661   0.926  25.620 -0.0764 -0.1599 -0.3235
  177SLPC    HX20149   0.725   0.928  25.711 -1.4715 -0.8753  0.7152
  177SLPC    HY20150   0.565   0.889  25.662  0.0174  3.7625  4.3093
  177SLPC   O3120151   0.650   1.070  25.595  0.6284  0.2988 -0.2099
  177SLPC   C3120152   0.545   1.106  25.524 -0.3713 -0.2108  0.8840
  177SLPC   O3220153   0.457   1.028  25.478  0.0324 -0.0344  0.1237
  177SLPC   C3220154   0.542   1.258  25.503 -0.5237 -0.4498  0.2301
  177SLPC   H2X20155   0.620   1.275  25.426 -0.1653 -0.7673  0.5139
  177SLPC   H2Y20156   0.579   1.307  25.596 -0.0538 -1.3792  0.5493
  177SLPC   C2320157   1.034   1.148  25.437  0.2916  0.0277 -0.3042
  177SLPC   H3R20158   1.141   1.172  25.422  0.2882 -0.8159 -1.7880
  177SLPC   H3S20159   1.022   1.109  25.540  0.3847  0.0540 -0.2845
  177SLPC   C2420160   0.950   1.270  25.434 -0.3264  0.5990  0.5693
  177SLPC   H4R20161   0.850   1.247  25.476  0.2663 -0.0902  1.6851
  177SLPC   H4S20162   0.931   1.307  25.332  0.4710  0.6567  0.4328
  177SLPC   C2520163   1.000   1.390  25.516 -0.2016  0.4537 -0.2610
  177SLPC   H5R20164   1.098   1.416  25.470  0.3119 -0.2265  0.4276
  177SLPC   H5S20165   1.007   1.363  25.623 -0.9420 -1.1420 -0.5861
  177SLPC   C2620166   0.902   1.508  25.497 -0.1602  0.1408  0.0276
  177SLPC   H6R20167   0.797   1.471  25.501 -0.2379  0.2300 -0.9647
  177SLPC   H6S20168   0.919   1.547  25.395 -1.2645  3.8909  1.1214
  177SLPC   C2720169   0.942   1.620  25.594 -0.1324 -0.2757  0.2213
  177SLPC   H7R20170   1.052   1.626  25.604 -0.1764  0.0186  0.5256
  177SLPC   H7S20171   0.906   1.598  25.697  2.4695 -2.8212  0.7074
  177SLPC   C2820172   0.897   1.764  25.551  0.2345  0.6627 -0.0015
  177SLPC   H8R20173   0.909   1.825  25.643  2.2294 -0.6698  0.6792
  177SLPC   H8S20174   0.787   1.760  25.532  0.3795  0.9631 -0.9914
  177SLPC   C2920175   0.962   1.820  25.435 -0.7714 -0.4097  0.5460
  177SLPC   H9R20176   1.071   1.832  25.448 -0.7398 -1.4803  1.3719
  177SLPC  C21020177   0.926   1.857  25.311  0.6971  0.5327  0.6540
  177SLPC  H10R20178   1.004   1.906  25.251 -0.2307  1.7480  0.4051
  177SLPC  C21120179   0.785   1.857  25.260 -0.2806 -0.0620 -0.5619
  177SLPC  H11R20180   0.710   1.839  25.340 -0.0350 -1.2794 -0.5918
  177SLPC  H11S20181   0.764   1.942  25.192  0.2587 -0.2596 -0.9816
  177SLPC  C21220182   0.771   1.738  25.179 -0.0486 -0.0607  0.7313
  177SLPC  H12R20183   0.757   1.639  25.226 -0.4267 -0.7813 -0.8245
  177SLPC  C21320184   0.783   1.730  25.040 -0.0553  0.2881  0.1522
  177SLPC  H13R20185   0.770   1.631  24.994 -1.2930 -0.9534  2.9153
  177SLPC  C21420186   0.797   1.850  24.949  0.2215 -0.1715  0.1864
  177SLPC  H14R20187   0.843   1.824  24.851  0.3296 -0.6028  0.3468
  177SLPC  H14S20188   0.869   1.924  24.990 -2.5255  1.6714  2.0025
  177SLPC  C21520189   0.663   1.921  24.931 -0.5077 -0.5429  0.4728
  177SLPC  H15R20190   0.603   1.930  25.024 -0.2534  1.0111  0.5191
  177SLPC  H15S20191   0.597   1.847  24.882 -0.2727 -1.7979  2.0010
  177SLPC  C21620192   0.657   2.053  24.848 -0.7413 -0.0069 -0.9058
  177SLPC  H16R20193   0.553   2.092  24.838 -1.0580 -1.4056 -4.8331
  177SLPC  H16S20194   0.701   2.053  24.746  1.6528  0.7450  0.0614
  177SLPC  C21720195   0.760   2.153  24.923  0.5108 -0.1529  0.0629
  177SLPC  H17R20196   0.865   2.119  24.918  1.2428  0.3900  5.4054
  177SLPC  H17S20197   0.735   2.146  25.031  2.1772 -0.8391  0.4256
  177SLPC  C21820198   0.760   2.297  24.882  0.1858  0.3514  0.2807
  177SLPC  H18R20199   0.670   2.355  24.912  1.0103  0.0090  4.0122
  177SLPC  H18S20200   0.767   2.293  24.772 -1.3990 -2.1391  0.1940
  177SLPC  H18T20201   0.846   2.359  24.915 -0.7822  0.4486  2.8557
  177SLPC   C3320202   0.404   1.306  25.476  0.7139  0.1399 -0.2628
  177SLPC   H3X20203   0.364   1.328  25.578  0.4318  2.3001 -0.7753
  177SLPC   H3Y20204   0.343   1.227  25.428 -0.6601  0.4737  0.8584
  177SLPC   C3420205   0.412   1.433  25.390 -0.5364 -1.0543  0.0364
  177SLPC   H4X20206   0.458   1.402  25.293  1.7654 -0.7946  0.9742
  177SLPC   H4Y20207   0.473   1.510  25.442 -1.5114  0.0711 -0.4461
  177SLPC   C3520208   0.276   1.504  25.354 -1.3664 -0.2721 -0.8346
  177SLPC   H5X20209   0.243   1.561  25.444  1.2978 -0.3212  0.2474
  177SLPC   H5Y20210   0.203   1.425  25.328  0.6145 -2.9329  1.2094
  177SLPC   C3620211   0.287   1.599  25.243 -1.1394 -0.4093  0.2835
  177SLPC   H6X20212   0.190   1.628  25.197 -1.1513 -0.8229  0.0369
  177SLPC   H6Y20213   0.332   1.541  25.159 -0.8213 -0.9256  0.8047
  177SLPC   C3720214   0.364   1.734  25.264  0.2030  0.4420 -0.2462
  177SLPC   H7X20215   0.460   1.730  25.320  0.7550  0.6860 -1.1566
  177SLPC   H7Y20216   0.303   1.807  25.322 -1.2828 -1.4724  0.7044
  177SLPC   C3820217   0.388   1.812  25.132 -0.0196  0.1345  0.0259
  177SLPC   H8X20218   0.465   1.756  25.075 -1.8936 -0.1352 -2.3951
  177SLPC   H8Y20219   0.443   1.905  25.158  0.3561 -0.2515  0.6344
  177SLPC   C3920220   0.266   1.847  25.049  0.0187  0.1803  0.5382
  177SLPC   H9X20221   0.198   1.894  25.123  0.7314 -1.9192  2.6469
  177SLPC   H9Y20222   0.222   1.754  25.007 -1.3285  1.0820 -0.1299
  177SLPC  C31020223   0.287   1.950  24.933 -0.3684 -0.1905  0.0044
  177SLPC  H10X20224   0.333   1.909  24.841 -2.6437 -1.1757 -0.7535
  177SLPC  H10Y20225   0.356   2.035  24.955  0.3131  0.0094 -2.6520
  177SLPC  C31120226   0.149   2.016  24.890 -0.1263  0.5459 -0.2290
  177SLPC  H11X20227   0.082   1.930  24.867  1.5844 -1.1279  0.7553
  177SLPC  H11Y20228   0.170   2.059  24.790 -1.0634 -2.0378 -1.6275
  177SLPC  C31220229   0.085   2.119  24.986 -0.0101 -0.6036  0.2322
  177SLPC  H12X20230   0.096   2.215  24.930 -3.1590 -0.4392 -0.2761
  177SLPC  H12Y20231   0.137   2.136  25.082  0.1621 -0.5375  0.1284
  177SLPC  C31320232  -0.065   2.098  24.996 -0.3796 -0.2716 -0.0596
  177SLPC  H13X20233  -0.096   2.087  24.890  1.8732 -0.9348 -0.7201
  177SLPC  H13Y20234  -0.109   2.190  25.039 -2.4982 -1.9082  1.5133
  177SLPC  C31420235  -0.112   1.987  25.090  0.2821 -0.2706 -0.5116
  177SLPC  H14X20236  -0.070   1.997  25.192 -1.0355  0.8819 -0.0529
  177SLPC  H14Y20237  -0.087   1.884  25.055  0.0725 -0.3925 -0.2978
  177SLPC  C31520238  -0.260   2.003  25.101 -0.2363  0.3747  0.0122
  177SLPC  H15X20239  -0.297   1.985  24.998  1.9541 -1.9426 -0.4910
  177SLPC  H15Y20240  -0.303   2.096  25.143  0.4263  0.9183 -0.4892
  177SLPC  C31620241  -0.315   1.895  25.190 -0.2294  0.4480  0.2734
  177SLPC  H16X20242  -0.282   1.915  25.294  0.3828 -0.1622  0.2008
  177SLPC  H16Y20243  -0.275   1.799  25.149  3.3380  1.4294  1.1503
  177SLPC  C31720244  -0.469   1.890  25.191 -1.0037  0.1796 -0.4802
  177SLPC  H17X20245  -0.517   1.893  25.091 -2.4801  1.9883  0.2421
  177SLPC  H17Y20246  -0.488   1.983  25.248 -0.3526 -0.6289  1.1294
  177SLPC  C31820247  -0.523   1.767  25.276  0.1863  0.0931 -0.0410
  177SLPC  H18X20248  -0.633   1.766  25.294 -0.1387  1.7927 -1.5542
  177SLPC  H18Y20249  -0.489   1.773  25.382 -1.8541 -0.8269  0.7173
  177SLPC  H18Z20250  -0.499   1.674  25.220 -2.5130 -1.2999  0.9109
  178SLPC     N20251   1.304   2.419  31.423 -0.2807  0.2829  0.3918
  178SLPC   C1320252   1.327   2.491  31.553  0.1188 -0.2467  0.5499
  178SLPC  H13A20253   1.372   2.587  31.532 -0.5874  0.1991  1.0679
  178SLPC  H13B20254   1.237   2.534  31.592 -0.8283 -0.6073 -1.1381
  178SLPC  H13C20255   1.386   2.432  31.621 -0.3626 -1.1834  0.1719
  178SLPC   C1420256   1.227   2.287  31.435 -0.6028 -0.4818  0.0904
  178SLPC  H14A20257   1.122   2.297  31.459 -1.0955  0.1050 -2.0576
  178SLPC  H14B20258   1.211   2.237  31.341 -0.0695 -0.1484 -0.1806
  178SLPC  H14C20259   1.287   2.218  31.492  0.8369  1.3189  0.8540
  178SLPC   C1520260   1.428   2.384  31.352 -0.2552  0.1227 -0.2356
  178SLPC  H15A20261   1.402   2.335  31.260 -3.0268  0.8576  0.0821
  178SLPC  H15B20262   1.487   2.468  31.318 -0.9921 -0.5261 -3.4232
  178SLPC  H15C20263   1.502   2.319  31.397  0.8262  1.9901  0.8801
  178SLPC   C1220264   1.220   2.510  31.323 -0.6612  0.3326  0.1076
  178SLPC  H12A20265   1.275   2.600  31.299 -1.4116  1.0365  0.9478
  178SLPC  H12B20266   1.130   2.526  31.381 -1.1491 -1.1307 -0.2025
  178SLPC   C1120267   1.182   2.444  31.185  0.5834 -0.8757  0.2136
  178SLPC  H11A20268   1.117   2.515  31.129 -0.4645 -1.0983  1.1197
  178SLPC  H11B20269   1.122   2.354  31.208  0.4401 -1.6614 -2.8523
  178SLPC     P20270   1.355   2.482  30.995  0.1640 -0.3139  0.0533
  178SLPC   O1320271   1.342   2.624  31.041  0.1052 -0.5173 -0.2726
  178SLPC   O1420272   1.485   2.429  30.951 -0.2227  0.0524 -0.5138
  178SLPC   O1220273   1.288   2.385  31.101  0.0652 -0.0830 -0.3061
  178SLPC   O1120274   1.238   2.472  30.881  0.3285 -0.0044 -0.5104
  178SLPC    C120275   1.213   2.351  30.810 -0.0639 -0.0216 -0.0082
  178SLPC    HA20276   1.217   2.371  30.701  2.0350 -1.6405 -0.2931
  178SLPC    HB20277   1.292   2.272  30.817 -1.2341 -1.3380 -1.0750
  178SLPC    C220278   1.078   2.289  30.862 -0.0018  0.4689  0.1454
  178SLPC    HS20279   1.063   2.316  30.969  1.0928  1.7354  0.0153
  178SLPC   O2120280   1.075   2.155  30.823 -0.6676 -0.6057  0.0253
  178SLPC   C2120281   1.017   2.064  30.898  0.0788 -0.3041  0.4274
  178SLPC   O2220282   0.969   2.082  31.010 -0.3170 -0.4109  0.2403
  178SLPC   C2220283   1.030   1.929  30.831  0.0506 -0.1918  0.2940
  178SLPC   H2R20284   1.112   1.913  30.757 -2.3277  0.1990 -2.6089
  178SLPC   H2S20285   1.046   1.847  30.904  2.0611 -0.9508 -0.9174
  178SLPC    C320286   0.954   2.361  30.796 -0.4527  0.1262  0.5079
  178SLPC    HX20287   0.984   2.364  30.689 -0.3436 -0.2002  0.5284
  178SLPC    HY20288   0.955   2.464  30.836  0.0902 -0.5285  2.2977
  178SLPC   O3120289   0.825   2.301  30.820 -0.0612  0.0532 -0.7749
  178SLPC   C3120290   0.762   2.317  30.934  0.0685 -0.0304 -0.4854
  178SLPC   O3220291   0.804   2.377  31.031  0.2812 -0.2354  0.4244
  178SLPC   C3220292   0.615   2.256  30.935 -0.3339 -0.6220  0.1719
  178SLPC   H2X20293   0.550   2.345  30.951 -1.3797 -1.7287  2.5112
  178SLPC   H2Y20294   0.611   2.198  31.029  4.2490  1.1902  1.7580
  178SLPC   C2320295   0.894   1.890  30.760 -0.1169 -0.1290 -0.4937
  178SLPC   H3R20296   0.906   1.801  30.695 -0.7736  1.2267 -2.5688
  178SLPC   H3S20297   0.850   1.960  30.686 -0.4913 -0.6900 -0.8067
  178SLPC   C2420298   0.779   1.846  30.862 -0.1922 -0.2526 -0.1634
  178SLPC   H4R20299   0.743   1.933  30.921 -0.1657 -0.6536  0.4563
  178SLPC   H4S20300   0.820   1.772  30.934  0.1028 -0.6071 -0.6860
  178SLPC   C2520301   0.654   1.787  30.787  0.0835 -0.1849 -0.3952
  178SLPC   H5R20302   0.699   1.714  30.717  1.9436  2.3381 -2.0255
  178SLPC   H5S20303   0.600   1.865  30.728  1.5639 -0.5965 -2.3980
  178SLPC   C2620304   0.561   1.713  30.886 -0.0833  0.0389  0.1596
  178SLPC   H6R20305   0.626   1.652  30.952 -1.5806 -0.5531  1.1298
  178SLPC   H6S20306   0.491   1.643  30.836  0.1788 -0.5663  0.6222
  178SLPC   C2720307   0.472   1.802  30.977 -0.2656  0.1951  0.1767
  178SLPC   H7R20308   0.392   1.830  30.905  0.8747  0.8010 -0.9002
  178SLPC   H7S20309   0.516   1.898  31.011 -0.9358  0.8192 -0.6741
  178SLPC   C2820310   0.411   1.731  31.098  1.0164 -0.5458 -0.0184
  178SLPC   H8R20311   0.343   1.798  31.155 -1.3157 -2.1687 -0.7798
  178SLPC   H8S20312   0.491   1.699  31.169 -1.4252 -0.6312  2.9138
  178SLPC   C2920313   0.329   1.607  31.074 -0.6789  0.2376 -0.0906
  178SLPC   H9R20314   0.375   1.519  31.122 -0.7335  1.1600  1.6930
  178SLPC  C21020315   0.201   1.599  31.031 -0.1716 -0.2907 -0.1237
  178SLPC  H10R20316   0.152   1.501  31.016  3.1499 -2.1066 -0.0015
  178SLPC  C21120317   0.110   1.710  30.991 -0.1434 -0.6007  0.3899
  178SLPC  H11R20318   0.145   1.808  31.032 -1.6084 -0.2176  0.7726
  178SLPC  H11S20319   0.005   1.700  31.023 -0.2754  0.7669  0.4554
  178SLPC  C21220320   0.111   1.737  30.838  1.0441 -0.4282 -0.8543
  178SLPC  H12R20321   0.170   1.828  30.821  0.8402 -0.1911 -0.3114
  178SLPC  C21320322   0.053   1.659  30.744 -0.8943 -0.2263 -0.4871
  178SLPC  H13R20323   0.054   1.696  30.640  0.6859  1.2043  0.0033
  178SLPC  C21420324  -0.032   1.535  30.771  0.8327  0.2708  0.4676
  178SLPC  H14R20325  -0.057   1.532  30.880 -0.9754 -1.3755  0.0671
  178SLPC  H14S20326   0.023   1.443  30.744 -0.2956  0.3527 -2.4820
  178SLPC  C21520327  -0.167   1.534  30.687 -0.7810  0.4128 -0.0706
  178SLPC  H15R20328  -0.147   1.542  30.578 -1.5738 -1.4588 -0.3916
  178SLPC  H15S20329  -0.217   1.630  30.714 -0.7501  0.4361 -0.0950
  178SLPC  C21620330  -0.240   1.405  30.721 -0.0360  0.8664 -0.7314
  178SLPC  H16R20331  -0.223   1.389  30.829 -1.1013  0.9300 -0.5402
  178SLPC  H16S20332  -0.175   1.330  30.672 -0.5143  0.1746 -0.3164
  178SLPC  C21720333  -0.387   1.408  30.675 -0.4950  0.3532 -0.2299
  178SLPC  H17R20334  -0.396   1.419  30.565  3.0218 -1.6142 -0.8891
  178SLPC  H17S20335  -0.433   1.499  30.719  0.9371  1.4133 -0.8291
  178SLPC  C21820336  -0.473   1.280  30.713 -0.0157  0.3375 -0.2999
  178SLPC  H18R20337  -0.485   1.277  30.823 -2.0665  0.5695 -0.4894
  178SLPC  H18S20338  -0.420   1.186  30.686 -2.3765 -1.4449  0.9689
  178SLPC  H18T20339  -0.567   1.274  30.655  0.2876  0.5116 -0.8194
  178SLPC   C3320340   0.563   2.199  30.803  0.5203  0.1731  0.1324
  178SLPC   H3X20341   0.604   2.100  30.776 -1.5763 -0.6668 -0.1877
  178SLPC   H3Y20342   0.599   2.268  30.724  0.3002  1.1524  0.8595
  178SLPC   C3420343   0.414   2.191  30.798 -0.3673 -0.3843  0.5989
  178SLPC   H4X20344   0.384   2.298  30.800  0.5869 -0.0651 -0.8094
  178SLPC   H4Y20345   0.371   2.127  30.878  2.5681 -1.5573  1.3897
  178SLPC   C3520346   0.367   2.131  30.664 -0.2097 -0.0745 -0.5368
  178SLPC   H5X20347   0.430   2.040  30.651 -0.0556 -0.1670  0.7686
  178SLPC   H5Y20348   0.377   2.208  30.585  1.2512  0.0561 -0.2463
  178SLPC   C3620349   0.217   2.091  30.667 -0.7243 -0.1103 -0.0116
  178SLPC   H6X20350   0.152   2.166  30.718 -1.2205  1.5060 -2.7768
  178SLPC   H6Y20351   0.213   1.991  30.715 -1.2340 -1.2343 -2.2570
  178SLPC   C3720352   0.143   2.075  30.531 -0.3506  0.7459  0.2279
  178SLPC   H7X20353   0.142   2.166  30.467  0.8074 -0.4319 -1.5493
  178SLPC   H7Y20354   0.036   2.057  30.555 -0.3090  0.3118  0.1026
  178SLPC   C3820355   0.189   1.946  30.457  0.3853 -0.7134  0.1803
  178SLPC   H8X20356   0.172   1.849  30.509 -0.4679 -1.6656 -1.7928
  178SLPC   H8Y20357   0.299   1.949  30.445  0.6252  1.5056  2.1617
  178SLPC   C3920358   0.132   1.939  30.316  0.2139 -0.1175 -0.4588
  178SLPC   H9X20359   0.166   1.850  30.259  0.4996  0.5320 -1.3164
  178SLPC   H9Y20360   0.176   2.024  30.260 -2.3416  0.2613 -2.0914
  178SLPC  C31020361  -0.027   1.925  30.306  0.0281  0.8425 -0.3062
  178SLPC  H10X20362  -0.059   1.927  30.199 -0.7153 -0.8633 -0.1591
  178SLPC  H10Y20363  -0.072   2.007  30.364 -1.3446  1.0529 -1.5930
  178SLPC  C31120364  -0.088   1.795  30.367  0.8578  0.3091  0.3994
  178SLPC  H11X20365  -0.041   1.761  30.461 -0.8697  0.3508  1.3109
  178SLPC  H11Y20366  -0.069   1.709  30.300 -1.3294 -0.0460  0.1597
  178SLPC  C31220367  -0.242   1.804  30.382 -0.1384  0.2814 -0.5307
  178SLPC  H12X20368  -0.284   1.707  30.417 -1.8257  0.7287 -1.1794
  178SLPC  H12Y20369  -0.286   1.835  30.285 -0.8873 -0.2829 -0.3804
  178SLPC  C31320370  -0.312   1.903  30.478  0.0432  0.2677  0.0051
  178SLPC  H13X20371  -0.292   2.008  30.446  2.5366 -0.0045  0.4290
  178SLPC  H13Y20372  -0.259   1.881  30.573 -0.4427 -0.9014  0.0224
  178SLPC  C31420373  -0.456   1.870  30.500 -0.1485  0.1956  0.3496
  178SLPC  H14X20374  -0.472   1.767  30.464  0.9488 -0.2491  1.0850
  178SLPC  H14Y20375  -0.508   1.941  30.432 -0.3304 -0.3637 -0.1027
  178SLPC  C31520376  -0.504   1.889  30.646  0.2780 -1.0284  0.3228
  178SLPC  H15X20377  -0.456   1.808  30.705  1.3037 -0.9760 -0.3988
  178SLPC  H15Y20378  -0.468   1.976  30.705  0.4065 -0.1132 -1.0500
  178SLPC  C31620379  -0.656   1.879  30.655 -0.5008  0.3294  0.3159
  178SLPC  H16X20380  -0.688   1.787  30.602 -0.2507  0.7115 -0.5207
  178SLPC  H16Y20381  -0.692   1.965  30.595 -0.3366  0.7193  0.7699
  178SLPC  C31720382  -0.720   1.882  30.793 -1.4118 -0.2326  0.1361
  178SLPC  H17X20383  -0.672   1.963  30.850  0.0390 -1.3056  0.4939
  178SLPC  H17Y20384  -0.697   1.788  30.849  1.0282  0.4141  0.3151
  178SLPC  C31820385  -0.871   1.898  30.782 -0.5370  0.3014  0.0746
  178SLPC  H18X20386  -0.923   1.874  30.878  0.8765 -0.4770  0.6778
  178SLPC  H18Y20387  -0.915   1.821  30.714  0.2760  0.6617 -0.8735
  178SLPC  H18Z20388  -0.900   1.997  30.742 -0.8169  0.5806  0.9323
  179SLPC     N20389   3.708   0.287  24.579  0.0353  0.0605  0.2497
  179SLPC   C1320390   3.719   0.289  24.729  0.4832 -0.3469  0.0609
  179SLPC  H13A20391   3.638   0.230  24.769  1.0675 -0.4460  1.1173
  179SLPC  H13B20392   3.816   0.262  24.767  0.2535  1.6040  2.2355
  179SLPC  H13C20393   3.694   0.388  24.764 -1.8023 -0.3490 -1.3472
  179SLPC   C1420394   3.812   0.383  24.511  0.7562  0.6023  0.3386
  179SLPC  H14A20395   3.806   0.383  24.403  0.0635  2.2228  0.3529
  179SLPC  H14B20396   3.788   0.485  24.539  0.5984  0.6622  0.0017
  179SLPC  H14C20397   3.907   0.350  24.550  1.0245  1.8152  0.7540
  179SLPC   C1520398   3.574   0.341  24.542 -0.2703  0.3199  0.6308
  179SLPC  H15A20399   3.567   0.443  24.576  1.5062  0.5184  0.5126
  179SLPC  H15B20400   3.559   0.347  24.435 -2.2838  1.1228  0.9214
  179SLPC  H15C20401   3.493   0.280  24.578 -1.0597  1.6385  1.1563
  179SLPC   C1220402   3.725   0.146  24.523 -0.2232  0.6454  0.5670
  179SLPC  H12A20403   3.693   0.147  24.420 -1.6643 -1.7766  0.9053
  179SLPC  H12B20404   3.655   0.074  24.564 -1.7908  1.4363 -0.6332
  179SLPC   C1120405   3.873   0.091  24.528  0.0274 -0.0340 -0.6020
  179SLPC  H11A20406   3.880  -0.019  24.519 -0.6261 -0.0882 -0.4818
  179SLPC  H11B20407   3.908   0.102  24.633 -1.8148 -3.0545  0.4418
  179SLPC     P20408   4.008   0.098  24.296 -0.2366  0.5056 -0.3277
  179SLPC   O1320409   4.114   0.188  24.242 -0.3345  0.2322  0.5055
  179SLPC   O1420410   4.055  -0.044  24.323  0.5210  0.2941  0.1514
  179SLPC   O1220411   3.962   0.150  24.438  0.2290 -0.2666  0.1046
  179SLPC   O1120412   3.869   0.107  24.224  0.3463 -0.1782 -0.0433
  179SLPC    C120413   3.775  -0.006  24.210 -0.0839 -0.4131  0.2496
  179SLPC    HA20414   3.783  -0.079  24.294 -1.0630 -2.2294 -1.1697
  179SLPC    HB20415   3.670   0.031  24.210 -1.1217 -3.0790  1.6511
  179SLPC    C220416   3.786  -0.080  24.073 -0.8687 -0.4137 -0.2567
  179SLPC    HS20417   3.692  -0.139  24.067  0.1960 -2.1620 -0.1947
  179SLPC   O2120418   3.920  -0.146  24.048  0.1922  0.5346 -0.6984
  179SLPC   C2120419   3.944  -0.251  24.127 -0.5331  0.1082  0.2822
  179SLPC   O2220420   3.868  -0.303  24.208 -0.0162  0.4015  0.2089
  179SLPC   C2220421   4.093  -0.303  24.089 -0.1043 -0.4583  0.4503
  179SLPC   H2R20422   4.105  -0.319  23.980 -2.2007 -0.8942  0.2354
  179SLPC   H2S20423   4.155  -0.214  24.113 -0.3940 -0.3449  0.7989
  179SLPC    C320424   3.779   0.026  23.959  0.8269  0.0906 -0.0135
  179SLPC    HX20425   3.869   0.091  23.955 -0.4800  2.0286  0.7719
  179SLPC    HY20426   3.701   0.093  24.001  1.3563 -1.6841  4.3219
  179SLPC   O3120427   3.766  -0.034  23.823  0.1154 -0.1809 -0.4637
  179SLPC   C3120428   3.716   0.056  23.741 -0.8879  0.7190 -0.4836
  179SLPC   O3220429   3.666   0.162  23.776  0.3455 -0.4953  0.1666
  179SLPC   C3220430   3.740   0.013  23.601  0.3897  0.4176  0.4618
  179SLPC   H2X20431   3.849   0.001  23.587  0.7835  3.2339  0.5502
  179SLPC   H2Y20432   3.705   0.092  23.531 -1.2238 -0.4978  0.1899
  179SLPC   C2320433   4.138  -0.425  24.168 -0.0119  0.5709  0.4575
  179SLPC   H3R20434   4.110  -0.519  24.116 -0.2744  2.0337 -2.1791
  179SLPC   H3S20435   4.092  -0.408  24.268 -1.5900  1.0768 -0.3269
  179SLPC   C2420436   4.297  -0.422  24.163  0.2656 -0.1375  0.4679
  179SLPC   H4R20437   4.326  -0.322  24.201 -1.1852  0.4663  0.0596
  179SLPC   H4S20438   4.336  -0.438  24.061 -1.1875 -2.0503  0.1565
  179SLPC   C2520439   4.355  -0.530  24.259  0.4282 -0.0965  0.0560
  179SLPC   H5R20440   4.280  -0.609  24.280  2.5547 -2.3227 -0.3145
  179SLPC   H5S20441   4.387  -0.483  24.354  3.3893 -0.5907 -0.5879
  179SLPC   C2620442   4.477  -0.615  24.216  0.1835 -0.3521  0.4901
  179SLPC   H6R20443   4.564  -0.552  24.188 -1.3320  0.8075 -1.9013
  179SLPC   H6S20444   4.442  -0.672  24.127 -0.3656  1.0034 -0.1773
  179SLPC   C2720445   4.514  -0.711  24.328 -0.1106 -0.2965 -0.5879
  179SLPC   H7R20446   4.440  -0.792  24.348  2.1127 -1.9565  1.4192
  179SLPC   H7S20447   4.521  -0.651  24.421 -2.0823 -1.4545  0.3825
  179SLPC   C2820448   4.651  -0.785  24.305 -0.0822 -0.4681  0.0021
  179SLPC   H8R20449   4.683  -0.850  24.389  1.4438 -0.7936 -0.8090
  179SLPC   H8S20450   4.717  -0.698  24.282 -0.3783 -0.9973 -3.3804
  179SLPC   C2920451   4.656  -0.866  24.179 -0.5318  0.1332 -0.3068
  179SLPC   H9R20452   4.703  -0.814  24.094  1.2797 -0.3368  0.3745
  179SLPC  C21020453   4.606  -0.986  24.162 -0.1911 -0.1465 -0.2698
  179SLPC  H10R20454   4.600  -1.020  24.058  0.3848  2.2860 -1.1738
  179SLPC  C21120455   4.535  -1.074  24.269 -0.2924 -0.6223 -0.8606
  179SLPC  H11R20456   4.443  -1.018  24.294  0.1352 -0.2975  0.0175
  179SLPC  H11S20457   4.601  -1.086  24.358 -0.4676  0.0331 -0.6321
  179SLPC  C21220458   4.495  -1.204  24.218 -0.0465 -0.0284  0.1872
  179SLPC  H12R20459   4.519  -1.229  24.114 -1.8563 -0.7018 -0.1137
  179SLPC  C21320460   4.440  -1.300  24.303  0.7781  0.0543 -0.0131
  179SLPC  H13R20461   4.405  -1.398  24.267 -1.8316  0.6028  0.8186
  179SLPC  C21420462   4.391  -1.263  24.442 -0.4646  0.6969  0.3412
  179SLPC  H14R20463   4.459  -1.184  24.481  0.3464  0.2381 -0.1157
  179SLPC  H14S20464   4.416  -1.354  24.500 -0.0291  0.9131  0.4978
  179SLPC  C21520465   4.245  -1.223  24.433  0.4214 -0.4622  0.0714
  179SLPC  H15R20466   4.189  -1.305  24.382 -0.3804  0.9986 -1.5296
  179SLPC  H15S20467   4.225  -1.133  24.371 -2.1991 -1.0366 -0.0586
  179SLPC  C21620468   4.188  -1.192  24.571 -0.2308 -0.0643 -1.3131
  179SLPC  H16R20469   4.236  -1.102  24.615 -0.3498 -0.5550 -0.1367
  179SLPC  H16S20470   4.220  -1.272  24.642 -0.2827  2.5766  1.8815
  179SLPC  C21720471   4.038  -1.188  24.568  0.6224  0.1694  0.2215
  179SLPC  H17R20472   4.001  -1.288  24.537 -1.8800  0.4067  2.0913
  179SLPC  H17S20473   4.005  -1.115  24.491  2.1188  0.0577 -0.5637
  179SLPC  C21820474   3.960  -1.156  24.702 -0.0063 -0.2968 -0.3115
  179SLPC  H18R20475   3.962  -1.053  24.742 -1.9908 -1.2576  2.6406
  179SLPC  H18S20476   3.997  -1.210  24.792  1.3969  0.8879 -0.1394
  179SLPC  H18T20477   3.852  -1.183  24.697 -0.5601  1.7146 -0.0256
  179SLPC   C3320478   3.675  -0.120  23.557 -0.5393 -0.1011 -0.0768
  179SLPC   H3X20479   3.564  -0.128  23.560 -0.6332  1.2092  0.2462
  179SLPC   H3Y20480   3.711  -0.192  23.633  1.8241  0.9736 -0.1094
  179SLPC   C3420481   3.732  -0.159  23.428 -0.1693 -0.4813  0.7021
  179SLPC   H4X20482   3.843  -0.150  23.421 -0.2856 -0.3149 -1.4587
  179SLPC   H4Y20483   3.715  -0.085  23.348  4.3174  0.3717  0.2376
  179SLPC   C3520484   3.698  -0.294  23.359 -0.4485 -0.3639  0.0122
  179SLPC   H5X20485   3.591  -0.321  23.356 -0.4333 -0.3770 -0.5579
  179SLPC   H5Y20486   3.762  -0.373  23.403  1.6346  0.3958 -1.4691
  179SLPC   C3620487   3.739  -0.301  23.209 -0.3403 -0.3817 -0.2736
  179SLPC   H6X20488   3.820  -0.229  23.183  0.5591 -1.2386  0.0672
  179SLPC   H6Y20489   3.651  -0.257  23.158 -1.6403 -0.0489  2.1337
  179SLPC   C3720490   3.768  -0.443  23.158 -0.6078 -0.1912  0.5980
  179SLPC   H7X20491   3.674  -0.501  23.173  0.5496 -2.1017  0.7292
  179SLPC   H7Y20492   3.834  -0.492  23.233  0.8143 -0.6781 -0.9204
  179SLPC   C3820493   3.818  -0.459  23.014 -0.0675  0.0206 -0.0408
  179SLPC   H8X20494   3.758  -0.407  22.936  1.4227  0.3148 -1.0194
  179SLPC   H8Y20495   3.816  -0.564  22.977  2.7453  0.4011 -1.5132
  179SLPC   C3920496   3.952  -0.386  22.992 -0.3205 -0.0067  0.0192
  179SLPC   H9X20497   4.029  -0.444  23.047  1.2029  2.0041  0.1184
  179SLPC   H9Y20498   3.957  -0.291  23.050  1.7163 -0.4386  0.6448
  179SLPC  C31020499   3.996  -0.363  22.849 -0.5678 -0.4964 -0.5211
  179SLPC  H10X20500   3.915  -0.315  22.790  0.7533 -0.0986 -2.0888
  179SLPC  H10Y20501   4.022  -0.459  22.800 -2.2382 -1.9305  1.2926
  179SLPC  C31120502   4.118  -0.267  22.845 -0.0579 -0.8642  0.9697
  179SLPC  H11X20503   4.197  -0.281  22.921  1.7088 -3.1215 -1.1106
  179SLPC  H11Y20504   4.079  -0.165  22.865  1.3328 -0.5979  2.4991
  179SLPC  C31220505   4.185  -0.254  22.702 -0.1772 -0.1517  0.1705
  179SLPC  H12X20506   4.224  -0.352  22.667  0.7769  1.0184 -2.2487
  179SLPC  H12Y20507   4.268  -0.181  22.706  0.8116 -1.2988  2.0962
  179SLPC  C31320508   4.087  -0.208  22.597  0.7294  0.8553  0.7080
  179SLPC  H13X20509   4.003  -0.157  22.648 -2.3472 -0.2405 -2.8300
  179SLPC  H13Y20510   4.042  -0.295  22.545  1.0052  0.8072  0.5441
  179SLPC  C31420511   4.142  -0.108  22.491  0.0668 -0.0269 -0.1968
  179SLPC  H14X20512   4.205  -0.166  22.422 -1.0547  0.2813 -1.5250
  179SLPC  H14Y20513   4.207  -0.031  22.538  1.6298 -1.0338 -0.6347
  179SLPC  C31520514   4.032  -0.023  22.415 -1.0995 -0.7213 -0.3687
  179SLPC  H15X20515   3.972   0.042  22.483 -0.7970  0.5900 -1.3230
  179SLPC  H15Y20516   3.963  -0.095  22.366 -1.2398 -0.1122 -1.0724
  179SLPC  C31620517   4.088   0.072  22.304  0.4907  0.6247 -0.1953
  179SLPC  H16X20518   4.126   0.001  22.228 -0.5311 -0.0458 -0.1067
  179SLPC  H16Y20519   4.173   0.129  22.346  3.6427 -4.3061  1.0108
  179SLPC  C31720520   3.980   0.157  22.240 -0.4529 -1.2668 -0.4097
  179SLPC  H17X20521   3.944   0.237  22.308 -0.5634  0.1004 -2.0276
  179SLPC  H17Y20522   3.896   0.088  22.217 -1.4812 -1.4329  3.1599
  179SLPC  C31820523   4.008   0.224  22.108  0.4716 -0.1164  0.1373
  179SLPC  H18X20524   4.102   0.283  22.106  0.1189  0.4755  0.5017
  179SLPC  H18Y20525   3.923   0.292  22.086  0.1968 -0.9368 -1.4446
  179SLPC  H18Z20526   4.021   0.148  22.028 -0.1998 -0.2931  0.1892
  180SLPC     N20527   2.999   0.345  30.693 -0.1076 -0.1593  0.0998
  180SLPC   C1320528   3.102   0.411  30.608  0.3026  0.1284 -0.1221
  180SLPC  H13A20529   3.137   0.341  30.534  0.2169 -1.4501  1.2758
  180SLPC  H13B20530   3.059   0.494  30.554 -0.9547 -0.8454 -0.6837
  180SLPC  H13C20531   3.180   0.448  30.672 -0.9234 -0.0352  1.5473
  180SLPC   C1420532   2.963   0.429  30.806  0.1785  0.5258 -0.6296
  180SLPC  H14A20533   2.867   0.403  30.849 -0.2707  1.6316 -0.9235
  180SLPC  H14B20534   3.039   0.444  30.882 -1.7153  1.5592  1.1909
  180SLPC  H14C20535   2.959   0.532  30.774 -2.1913  0.1276 -1.8107
  180SLPC   C1520536   3.047   0.215  30.739 -0.1149  0.2769 -0.1258
  180SLPC  H15A20537   3.143   0.215  30.790 -1.2067 -3.4724  2.3284
  180SLPC  H15B20538   2.970   0.166  30.796 -0.0124 -0.3310 -0.5024
  180SLPC  H15C20539   3.049   0.163  30.645  0.7083  3.2877 -1.8945
  180SLPC   C1220540   2.871   0.325  30.612  0.1354 -0.0112 -0.1929
  180SLPC  H12A20541   2.903   0.296  30.513  3.7853 -0.9676  1.0902
  180SLPC  H12B20542   2.833   0.425  30.597 -0.9950 -0.5894 -1.3311
  180SLPC   C1120543   2.761   0.236  30.668  0.3956 -0.2764  0.6329
  180SLPC  H11A20544   2.714   0.256  30.766 -1.1864 -0.1808 -0.1144
  180SLPC  H11B20545   2.802   0.136  30.693 -0.8178 -0.1758  3.2599
  180SLPC     P20546   2.661   0.166  30.433  0.0660  0.4887  0.4917
  180SLPC   O1320547   2.768   0.071  30.445  0.0278  0.2267  0.1354
  180SLPC   O1420548   2.526   0.115  30.395 -0.2606  0.2446  0.2457
  180SLPC   O1220549   2.652   0.231  30.573 -0.1924 -0.1402 -0.8320
  180SLPC   O1120550   2.706   0.279  30.337 -0.6963  0.1284 -0.7100
  180SLPC    C120551   2.733   0.242  30.198  0.0616 -1.0396 -0.2008
  180SLPC    HA20552   2.840   0.224  30.174  0.1037 -1.1900  0.0981
  180SLPC    HB20553   2.667   0.157  30.171  0.9223 -2.0141  0.6795
  180SLPC    C220554   2.674   0.348  30.100  0.2663  0.1054  0.0861
  180SLPC    HS20555   2.758   0.418  30.081 -1.3393  2.3249  0.7354
  180SLPC   O2120556   2.556   0.422  30.151  0.4810  0.1674 -0.3396
  180SLPC   C2120557   2.591   0.515  30.244 -0.2300  0.1654  1.1851
  180SLPC   O2220558   2.703   0.547  30.277 -0.2308  0.2168  0.3640
  180SLPC   C2220559   2.462   0.578  30.309  0.0549  0.1092 -0.3802
  180SLPC   H2R20560   2.491   0.647  30.392  0.6720 -1.0281  0.3782
  180SLPC   H2S20561   2.416   0.652  30.240 -0.3666  1.9139  1.7143
  180SLPC    C320562   2.642   0.287  29.958 -0.5506  0.2572 -0.0822
  180SLPC    HX20563   2.554   0.220  29.975 -1.0125  0.3130 -2.0533
  180SLPC    HY20564   2.724   0.222  29.922  0.1586  0.9748  0.2103
  180SLPC   O3120565   2.601   0.386  29.862  0.1905 -0.1217  0.4038
  180SLPC   C3120566   2.651   0.366  29.736  0.5706 -0.3162 -0.4812
  180SLPC   O3220567   2.737   0.289  29.707 -0.1405  0.1222  0.5490
  180SLPC   C3220568   2.563   0.450  29.642 -0.2446  1.1040 -0.3136
  180SLPC   H2X20569   2.459   0.426  29.670  0.4721 -0.8368  0.9053
  180SLPC   H2Y20570   2.583   0.417  29.537  1.2778  1.8815 -0.2948
  180SLPC   C2320571   2.353   0.470  30.343 -0.8346 -0.7753  0.4509
  180SLPC   H3R20572   2.400   0.381  30.391 -0.4027 -0.4517  0.6326
  180SLPC   H3S20573   2.311   0.428  30.249 -0.7793  1.7619 -0.7808
  180SLPC   C2420574   2.244   0.523  30.437  0.5714 -0.3414 -0.2713
  180SLPC   H4R20575   2.281   0.553  30.538  1.0881  2.1303 -1.1265
  180SLPC   H4S20576   2.173   0.441  30.461 -1.5061  1.5464  0.3329
  180SLPC   C2520577   2.159   0.634  30.372  0.6721  0.0511 -0.1625
  180SLPC   H5R20578   2.112   0.599  30.278  0.3002  0.8635 -0.2901
  180SLPC   H5S20579   2.226   0.715  30.335  0.2365  0.3315 -0.3405
  180SLPC   C2620580   2.046   0.668  30.463 -0.4884  0.4757 -0.4455
  180SLPC   H6R20581   2.102   0.711  30.548 -0.5045  0.5063 -0.4518
  180SLPC   H6S20582   1.980   0.579  30.482 -0.5238  0.3628 -1.0769
  180SLPC   C2720583   1.964   0.789  30.412  0.2247 -0.4453  0.0361
  180SLPC   H7R20584   1.863   0.765  30.450  1.3421 -3.2123  1.5322
  180SLPC   H7S20585   1.957   0.794  30.301  1.5259 -1.7959 -0.1386
  180SLPC   C2820586   2.032   0.917  30.474 -0.6546 -0.2753  0.3531
  180SLPC   H8R20587   2.138   0.912  30.440  0.1955  1.1939  2.5993
  180SLPC   H8S20588   2.022   0.911  30.584  1.1496  0.5562  0.6019
  180SLPC   C2920589   1.947   1.037  30.424  0.5827  0.5222  0.2231
  180SLPC   H9R20590   1.840   1.017  30.439  1.4515 -2.9872  3.2786
  180SLPC  C21020591   1.987   1.145  30.357  0.2378 -0.5571 -0.1350
  180SLPC  H10R20592   1.919   1.227  30.328  1.3941  0.7680  0.7559
  180SLPC  C21120593   2.126   1.197  30.329 -0.3545  0.1114  0.6715
  180SLPC  H11R20594   2.117   1.286  30.263  0.8620 -1.2927 -1.5202
  180SLPC  H11S20595   2.174   1.116  30.270  0.3390 -0.3751  1.8700
  180SLPC  C21220596   2.213   1.231  30.445  0.0342  0.7633 -0.5941
  180SLPC  H12R20597   2.206   1.170  30.536 -1.6525  2.1386  0.2651
  180SLPC  C21320598   2.296   1.337  30.462  0.0020  0.1718 -0.9481
  180SLPC  H13R20599   2.350   1.345  30.557 -1.5726  0.4226 -0.0454
  180SLPC  C21420600   2.330   1.444  30.357  0.1387 -0.4006  0.1295
  180SLPC  H14R20601   2.250   1.453  30.281 -0.4776 -1.6520  0.6024
  180SLPC  H14S20602   2.420   1.407  30.303 -0.0111  0.1573 -0.5078
  180SLPC  C21520603   2.370   1.580  30.415 -0.4771 -0.1052 -0.0054
  180SLPC  H15R20604   2.454   1.573  30.487 -1.5641  0.1696  1.3239
  180SLPC  H15S20605   2.293   1.636  30.473  1.4854  0.1896  2.4997
  180SLPC  C21620606   2.408   1.679  30.302  0.3488 -0.8632  0.1246
  180SLPC  H16R20607   2.328   1.680  30.225 -0.9098  0.8559  1.3685
  180SLPC  H16S20608   2.500   1.642  30.252  0.2012  0.0612 -0.8698
  180SLPC  C21720609   2.424   1.822  30.359 -0.2069  0.2378  0.3246
  180SLPC  H17R20610   2.339   1.853  30.423  1.6111  3.4088  1.4208
  180SLPC  H17S20611   2.422   1.893  30.275  0.0000  1.2932  1.1879
  180SLPC  C21820612   2.554   1.843  30.445 -0.0467 -0.7231  0.6602
  180SLPC  H18R20613   2.554   1.772  30.530  1.5641  1.4040  2.5575
  180SLPC  H18S20614   2.556   1.946  30.487  0.3713 -0.3821 -0.1705
  180SLPC  H18T20615   2.645   1.838  30.381 -0.3501 -1.3131  0.2721
  180SLPC   C3320616   2.587   0.601  29.663 -0.5941  0.3819 -0.4471
  180SLPC   H3X20617   2.562   0.632  29.767  1.7135 -0.9717  0.5870
  180SLPC   H3Y20618   2.511   0.648  29.597 -0.2825  0.5250 -0.7130
  180SLPC   C3420619   2.732   0.641  29.635  0.8168 -0.0253 -1.1725
  180SLPC   H4X20620   2.771   0.626  29.532 -0.2568  2.1388 -1.9694
  180SLPC   H4Y20621   2.780   0.579  29.713  1.0564  2.3608  0.6753
  180SLPC   C3520622   2.767   0.783  29.678  0.1927 -0.3224 -0.9790
  180SLPC   H5X20623   2.867   0.771  29.724  1.0959 -0.0949 -2.7856
  180SLPC   H5Y20624   2.699   0.819  29.758 -0.7734  2.0755 -2.7552
  180SLPC   C3620625   2.774   0.885  29.566 -0.1849 -0.4163 -0.6302
  180SLPC   H6X20626   2.714   0.843  29.482  0.7699 -0.8576 -1.1084
  180SLPC   H6Y20627   2.876   0.899  29.526  0.2995  0.3314  0.7715
  180SLPC   C3720628   2.710   1.023  29.594 -0.7000  0.1052  0.1506
  180SLPC   H7X20629   2.758   1.074  29.680 -0.3803 -0.6375  0.4208
  180SLPC   H7Y20630   2.605   1.007  29.627 -0.3914  1.1542  1.7490
  180SLPC   C3820631   2.709   1.116  29.471 -0.1212 -0.1188 -0.0211
  180SLPC   H8X20632   2.652   1.076  29.385  0.2289  0.3396 -0.4693
  180SLPC   H8Y20633   2.814   1.126  29.439  1.1574 -1.1209  3.3931
  180SLPC   C3920634   2.653   1.258  29.499  0.2031  0.2183 -0.2650
  180SLPC   H9X20635   2.687   1.280  29.602  1.0684 -1.8711 -0.0508
  180SLPC   H9Y20636   2.543   1.242  29.490 -0.3849  2.8736  1.2792
  180SLPC  C31020637   2.679   1.371  29.399 -0.0539  0.2552 -0.4364
  180SLPC  H10X20638   2.596   1.444  29.409 -0.6704 -0.3329 -1.2014
  180SLPC  H10Y20639   2.684   1.315  29.303 -2.0277  0.2492 -0.5690
  180SLPC  C31120640   2.820   1.449  29.398  0.5966 -0.1271  0.2054
  180SLPC  H11X20641   2.906   1.379  29.398  1.4532  0.8684 -1.1086
  180SLPC  H11Y20642   2.814   1.510  29.491 -1.5826  0.7398 -0.4422
  180SLPC  C31220643   2.834   1.530  29.268 -0.8971 -0.1491  0.1625
  180SLPC  H12X20644   2.738   1.562  29.222 -0.2290  0.3815 -0.9071
  180SLPC  H12Y20645   2.884   1.464  29.193  1.4151  3.9832 -2.2915
  180SLPC  C31320646   2.924   1.658  29.267 -0.8304  0.5054 -0.1214
  180SLPC  H13X20647   2.932   1.678  29.158  0.8171 -1.9403 -0.5232
  180SLPC  H13Y20648   3.021   1.616  29.301 -1.6975 -1.2285  0.3159
  180SLPC  C31420649   2.872   1.778  29.338 -0.1825 -0.2394  0.3335
  180SLPC  H14X20650   2.808   1.752  29.425 -0.1083  0.3136  0.5567
  180SLPC  H14Y20651   2.824   1.849  29.268  0.4019 -1.7104 -1.6586
  180SLPC  C31520652   2.992   1.858  29.405  0.3966  0.1097  0.1193
  180SLPC  H15X20653   3.068   1.897  29.333  2.3492 -2.1742  0.8130
  180SLPC  H15Y20654   3.044   1.787  29.473  1.4165  0.0026 -0.7358
  180SLPC  C31620655   2.934   1.971  29.491  0.6054  0.1824 -0.1457
  180SLPC  H16X20656   2.876   1.917  29.570  0.4788 -1.2644 -1.1857
  180SLPC  H16Y20657   2.873   2.034  29.423  0.0693  1.9546  1.8818
  180SLPC  C31720658   3.033   2.064  29.552  0.0091 -0.6804 -0.2266
  180SLPC  H17X20659   3.090   2.102  29.465  0.6957  0.0683  0.5286
  180SLPC  H17Y20660   3.106   2.014  29.619  0.3557 -2.1549 -1.6581
  180SLPC  C31820661   2.976   2.191  29.612 -0.1768  0.0126  0.5377
  180SLPC  H18X20662   2.918   2.167  29.704 -0.7729  0.0976  0.1843
  180SLPC  H18Y20663   2.912   2.251  29.545  2.2239  1.6043 -0.4739
  180SLPC  H18Z20664   3.058   2.258  29.647  1.6461 -1.8935  0.1358
  181SLPC     N20665   1.973   0.123  30.733 -0.4515 -0.5731 -0.0981
  181SLPC   C1320666   2.048   0.174  30.851 -0.2010 -0.7311 -0.7072
  181SLPC  H13A20667   2.152   0.190  30.828 -0.1406  0.8167  0.4491
  181SLPC  H13B20668   1.993   0.255  30.899  1.0622  0.0568 -0.5451
  181SLPC  H13C20669   2.033   0.098  30.926 -1.9638  0.1962 -0.0554
  181SLPC   C1420670   1.827   0.110  30.762 -0.8064  0.8971 -0.0737
  181SLPC  H14A20671   1.769   0.200  30.745 -3.4305 -1.0540 -2.1931
  181SLPC  H14B20672   1.790   0.040  30.689  1.3664  0.7466 -1.1135
  181SLPC  H14C20673   1.810   0.082  30.865 -2.8500  2.8896  0.2173
  181SLPC   C1520674   2.031  -0.009  30.713 -0.3638 -0.0916  0.0832
  181SLPC  H15A20675   1.985  -0.058  30.628 -0.6805  0.8364 -0.2999
  181SLPC  H15B20676   2.138  -0.005  30.699 -0.4836 -0.8554 -1.1958
  181SLPC  H15C20677   2.018  -0.074  30.797 -0.3543 -0.2304 -0.0227
  181SLPC   C1220678   2.003   0.212  30.606  0.5706 -0.2031 -0.2895
  181SLPC  H12A20679   2.109   0.205  30.588  0.6914 -1.0628  0.6618
  181SLPC  H12B20680   1.977   0.314  30.633 -0.9160 -0.6491  0.0651
  181SLPC   C1120681   1.925   0.176  30.479 -0.3772  0.0892 -0.1485
  181SLPC  H11A20682   1.943   0.252  30.399  1.1101 -0.5329 -0.4388
  181SLPC  H11B20683   1.817   0.196  30.495  0.0738  2.7173  0.2012
  181SLPC     P20684   2.035   0.023  30.297  0.1877 -0.4338 -0.4002
  181SLPC   O1320685   2.161   0.102  30.301  0.1196 -0.1195  0.1609
  181SLPC   O1420686   2.046  -0.118  30.278 -0.0136 -0.3401 -0.5055
  181SLPC   O1220687   1.962   0.046  30.430 -0.1143 -0.1286  0.5772
  181SLPC   O1120688   1.933   0.085  30.193 -0.8170 -0.1229  0.4783
  181SLPC    C120689   1.966   0.190  30.103  0.1695 -0.5910 -0.4619
  181SLPC    HA20690   1.947   0.284  30.158  0.3383  1.0493 -3.0559
  181SLPC    HB20691   2.075   0.191  30.081  0.4281 -0.3838  0.7273
  181SLPC    C220692   1.891   0.201  29.965 -0.4362 -0.0398 -0.0245
  181SLPC    HS20693   1.931   0.292  29.916 -1.2440  0.9968  1.1965
  181SLPC   O2120694   1.745   0.221  29.969 -0.0524  0.2601 -0.0259
  181SLPC   C2120695   1.695   0.333  30.031 -0.2940  0.1027  0.8544
  181SLPC   O2220696   1.760   0.410  30.094 -0.0657 -0.3687 -0.5330
  181SLPC   C2220697   1.550   0.357  29.993 -0.1606 -0.2268 -0.2033
  181SLPC   H2R20698   1.521   0.288  29.912 -2.7233 -0.8258  1.1041
  181SLPC   H2S20699   1.491   0.331  30.084  2.9517  0.2775  2.1175
  181SLPC    C320700   1.928   0.071  29.876 -0.1697  0.3866  0.0255
  181SLPC    HX20701   1.872  -0.015  29.919 -2.4047  1.2261 -1.0449
  181SLPC    HY20702   2.039   0.075  29.874 -0.1856  2.3011  0.6258
  181SLPC   O3120703   1.879   0.100  29.747 -0.2858  0.0909 -0.0004
  181SLPC   C3120704   1.762   0.042  29.709  0.5298  0.3127  0.3482
  181SLPC   O3220705   1.689  -0.033  29.767 -0.0164  0.3573 -0.8729
  181SLPC   C3220706   1.740   0.085  29.567  0.2900 -0.0374 -0.6338
  181SLPC   H2X20707   1.658   0.028  29.519 -1.5339  2.8836 -1.2317
  181SLPC   H2Y20708   1.834   0.051  29.519  0.8174  0.1157  0.2518
  181SLPC   C2320709   1.534   0.506  29.957  0.6008  0.1451 -0.2425
  181SLPC   H3R20710   1.587   0.567  30.034 -1.6007  1.6990  0.1152
  181SLPC   H3S20711   1.431   0.547  29.958  0.1033 -1.0718 -0.3861
  181SLPC   C2420712   1.599   0.548  29.824 -0.2587  0.7648 -0.0581
  181SLPC   H4R20713   1.566   0.487  29.736  2.0408  0.8068 -1.0149
  181SLPC   H4S20714   1.710   0.544  29.833 -0.4317  0.7896  2.9271
  181SLPC   C2520715   1.555   0.683  29.787  0.2158 -0.9124  0.6355
  181SLPC   H5R20716   1.607   0.749  29.861  1.6439 -0.4412 -0.7421
  181SLPC   H5S20717   1.446   0.696  29.801  0.0422  0.3638 -1.4772
  181SLPC   C2620718   1.600   0.721  29.644  0.2396 -0.6768  0.1987
  181SLPC   H6R20719   1.531   0.669  29.574  1.0047 -2.0596  0.4403
  181SLPC   H6S20720   1.697   0.672  29.620 -0.7399 -1.9232 -1.4388
  181SLPC   C2720721   1.590   0.868  29.612 -0.4529 -0.0005 -0.2558
  181SLPC   H7R20722   1.660   0.909  29.688  0.4717 -0.6293 -0.7452
  181SLPC   H7S20723   1.488   0.904  29.636 -1.1109 -2.4324  0.8449
  181SLPC   C2820724   1.629   0.918  29.468  0.6781 -0.5515 -0.9072
  181SLPC   H8R20725   1.595   1.023  29.477  1.0602 -0.4874 -0.0494
  181SLPC   H8S20726   1.587   0.850  29.391 -2.4507 -1.8491  1.6741
  181SLPC   C2920727   1.780   0.932  29.451  0.5629  0.6332 -0.0355
  181SLPC   H9R20728   1.836   0.838  29.441  0.4764  0.5503  0.2551
  181SLPC  C21020729   1.859   1.044  29.472  0.2642 -0.7739 -0.9588
  181SLPC  H10R20730   1.968   1.028  29.466  0.8990  2.3742  0.1596
  181SLPC  C21120731   1.805   1.181  29.497  0.7473  0.4238 -0.0307
  181SLPC  H11R20732   1.897   1.240  29.518  0.7365  0.1258  0.9284
  181SLPC  H11S20733   1.740   1.191  29.586  2.4433 -1.3961  1.5272
  181SLPC  C21220734   1.738   1.247  29.385 -0.0879  0.4052  0.1364
  181SLPC  H12R20735   1.791   1.235  29.289  1.4928 -0.7364  1.1057
  181SLPC  C21320736   1.616   1.310  29.377  0.0881  1.1226 -0.2771
  181SLPC  H13R20737   1.577   1.345  29.280  0.2666 -1.1654 -1.2572
  181SLPC  C21420738   1.517   1.327  29.489 -0.0459  0.0382 -0.4066
  181SLPC  H14R20739   1.527   1.244  29.562  1.1032 -0.8848 -1.5848
  181SLPC  H14S20740   1.412   1.305  29.459 -1.1392  0.5459  2.5888
  181SLPC  C21520741   1.507   1.471  29.546 -0.9825 -0.4511  0.0050
  181SLPC  H15R20742   1.527   1.548  29.468  0.2676 -1.4664 -0.7032
  181SLPC  H15S20743   1.583   1.486  29.625  0.0664  0.5759 -1.1432
  181SLPC  C21620744   1.365   1.499  29.604 -0.1584  0.4820  0.7989
  181SLPC  H16R20745   1.346   1.425  29.685 -0.0084 -0.5091 -0.0515
  181SLPC  H16S20746   1.285   1.479  29.530 -0.0908  2.3205  0.1714
  181SLPC  C21720747   1.340   1.647  29.641 -0.2684  0.9687 -0.6360
  181SLPC  H17R20748   1.368   1.720  29.562 -0.1317  0.4053 -1.1139
  181SLPC  H17S20749   1.406   1.666  29.728 -1.2263 -1.6576  0.7761
  181SLPC  C21820750   1.203   1.668  29.697  0.2657  0.4001  0.3376
  181SLPC  H18R20751   1.165   1.772  29.692  0.8048  0.5504 -1.0176
  181SLPC  H18S20752   1.193   1.635  29.803 -0.7580 -1.6129 -0.3318
  181SLPC  H18T20753   1.131   1.598  29.650 -0.1571  0.3953  0.9744
  181SLPC   C3320754   1.708   0.232  29.555 -0.1056 -0.1860  0.1028
  181SLPC   H3X20755   1.788   0.286  29.610 -0.0926 -1.0178  0.9369
  181SLPC   H3Y20756   1.611   0.255  29.605 -0.4912 -0.7452 -0.3731
  181SLPC   C3420757   1.707   0.290  29.419 -0.5196  0.3776 -0.1933
  181SLPC   H4X20758   1.627   0.252  29.352  0.8637  0.6301 -2.0596
  181SLPC   H4Y20759   1.803   0.261  29.372  0.6074  1.4338  1.3717
  181SLPC   C3520760   1.676   0.446  29.427  0.2007 -0.0205  0.4806
  181SLPC   H5X20761   1.761   0.483  29.488  0.3316 -0.2186  0.4204
  181SLPC   H5Y20762   1.579   0.463  29.479  1.1537  1.2741  1.8802
  181SLPC   C3620763   1.669   0.517  29.296  0.2623 -0.1610  0.0877
  181SLPC   H6X20764   1.634   0.622  29.307  0.1627 -0.2534  0.6858
  181SLPC   H6Y20765   1.592   0.477  29.226  1.9035 -1.7945 -0.9054
  181SLPC   C3720766   1.805   0.508  29.232 -0.4588 -0.4908  0.3181
  181SLPC   H7X20767   1.835   0.407  29.197  1.5425  0.6223 -1.3901
  181SLPC   H7Y20768   1.883   0.532  29.308  0.4910 -0.2077 -0.7261
  181SLPC   C3820769   1.833   0.602  29.109  0.2078 -0.3370  0.0704
  181SLPC   H8X20770   1.749   0.599  29.036 -0.6086  0.1000  0.9735
  181SLPC   H8Y20771   1.907   0.551  29.044  0.4468  0.1613 -0.0521
  181SLPC   C3920772   1.901   0.733  29.150 -0.2204  0.2524 -0.4859
  181SLPC   H9X20773   2.010   0.732  29.171  0.2695 -0.5259 -2.7662
  181SLPC   H9Y20774   1.842   0.755  29.241 -1.7990 -1.5132 -1.0264
  181SLPC  C31020775   1.878   0.839  29.046  0.2304 -0.2407  0.3458
  181SLPC  H10X20776   1.774   0.853  29.008 -0.2013  0.1415  1.6292
  181SLPC  H10Y20777   1.939   0.810  28.957 -2.3272 -0.2779 -1.5148
  181SLPC  C31120778   1.905   0.992  29.092 -1.2892  0.3815 -0.2751
  181SLPC  H11X20779   2.009   1.003  29.128 -1.3874  0.2734  0.0469
  181SLPC  H11Y20780   1.839   1.020  29.178  0.7796  0.2793  1.4177
  181SLPC  C31220781   1.881   1.100  28.990 -0.5914 -0.3447  0.4920
  181SLPC  H12X20782   1.849   1.197  29.034 -1.7673 -1.1054  1.3645
  181SLPC  H12Y20783   1.793   1.066  28.931 -0.3175 -2.5311  1.2738
  181SLPC  C31320784   2.009   1.129  28.917 -0.2456 -0.6551  0.2970
  181SLPC  H13X20785   2.035   1.044  28.851 -0.2475  0.4630 -1.2047
  181SLPC  H13Y20786   2.097   1.146  28.981  0.2668 -0.2136 -0.5012
  181SLPC  C31420787   2.003   1.265  28.839 -0.6062 -0.6280 -0.0808
  181SLPC  H14X20788   2.102   1.301  28.805 -1.4228 -0.6905 -2.7370
  181SLPC  H14Y20789   1.959   1.340  28.907 -1.4657 -0.9000 -0.3229
  181SLPC  C31520790   1.921   1.256  28.708  0.0576 -0.4725 -0.0549
  181SLPC  H15X20791   1.825   1.200  28.717 -0.0033 -0.2812  0.5293
  181SLPC  H15Y20792   1.977   1.203  28.628 -0.0859  1.1688 -1.2945
  181SLPC  C31620793   1.862   1.398  28.668  0.1195  0.0810 -0.2594
  181SLPC  H16X20794   1.805   1.444  28.752  0.5383 -0.7275  0.4860
  181SLPC  H16Y20795   1.798   1.372  28.581 -0.8468  0.7210  0.2429
  181SLPC  C31720796   1.985   1.491  28.634  0.7268  0.6386  0.5240
  181SLPC  H17X20797   2.031   1.465  28.536  0.0020  0.2065  0.2884
  181SLPC  H17Y20798   2.062   1.487  28.714  0.4234 -0.5642  0.7703
  181SLPC  C31820799   1.937   1.633  28.608 -0.3807 -0.1973  0.0859
  181SLPC  H18X20800   1.857   1.651  28.684 -1.3741  2.1591 -1.3990
  181SLPC  H18Y20801   1.885   1.647  28.511 -1.3376  0.4747  0.6765
  181SLPC  H18Z20802   2.018   1.708  28.620 -0.8399  0.3522 -0.1665
  182SLPC     N20803   3.016   1.548  31.581  0.1496  0.1490  0.5324
  182SLPC   C1320804   2.871   1.575  31.559 -0.3996  0.4881 -0.5801
  182SLPC  H13A20805   2.809   1.551  31.644  0.7644 -1.9524 -0.3322
  182SLPC  H13B20806   2.851   1.679  31.540  0.5333  0.8652  0.3797
  182SLPC  H13C20807   2.827   1.525  31.474 -1.2417  0.4707 -0.1440
  182SLPC   C1420808   3.028   1.405  31.617 -1.1272  0.6217  0.0718
  182SLPC  H14A20809   2.984   1.387  31.714 -2.2169  0.5206 -0.4215
  182SLPC  H14B20810   2.987   1.333  31.547 -0.0235 -1.7563  1.7322
  182SLPC  H14C20811   3.133   1.381  31.625 -0.9663  1.2466 -0.1396
  182SLPC   C1520812   3.066   1.622  31.695 -0.2686  0.6659 -0.2959
  182SLPC  H15A20813   3.160   1.588  31.738  0.5173  1.9283 -0.9464
  182SLPC  H15B20814   3.080   1.727  31.675  2.0617  0.4993  0.1164
  182SLPC  H15C20815   2.991   1.618  31.772  0.5630  1.5971  0.5942
  182SLPC   C1220816   3.093   1.577  31.452  0.5215 -0.6702  0.7162
  182SLPC  H12A20817   3.041   1.651  31.395  0.4263 -0.4430  1.0924
  182SLPC  H12B20818   3.091   1.499  31.377  1.5888  0.7537 -0.8477
  182SLPC   C1120819   3.243   1.599  31.470 -0.1678  0.5324  0.2399
  182SLPC  H11A20820   3.271   1.693  31.523  3.3935 -0.4828  0.4266
  182SLPC  H11B20821   3.287   1.622  31.371 -0.3141  2.7350  0.6311
  182SLPC     P20822   3.467   1.506  31.547  0.2779 -0.0735  0.1665
  182SLPC   O1320823   3.508   1.648  31.565 -0.0612  1.3074 -0.3231
  182SLPC   O1420824   3.509   1.419  31.655  0.2888  0.0928 -0.6626
  182SLPC   O1220825   3.312   1.489  31.541 -0.1330 -0.1808 -0.0054
  182SLPC   O1120826   3.531   1.458  31.413 -0.0389 -0.2418 -0.4540
  182SLPC    C120827   3.531   1.322  31.369 -0.2854 -0.0698 -0.5692
  182SLPC    HA20828   3.633   1.278  31.368 -0.2975 -0.2837  1.8642
  182SLPC    HB20829   3.479   1.251  31.437  0.4367 -0.8289 -0.7926
  182SLPC    C220830   3.449   1.302  31.240 -0.6853  0.1809 -0.0394
  182SLPC    HS20831   3.495   1.218  31.184 -0.7561 -0.6568  1.1127
  182SLPC   O2120832   3.450   1.424  31.163 -0.4156 -0.5675 -0.2652
  182SLPC   C2120833   3.558   1.456  31.102 -0.7701 -0.2764  0.5636
  182SLPC   O2220834   3.646   1.376  31.072 -0.3450  0.0900 -0.5302
  182SLPC   C2220835   3.552   1.606  31.062  0.5942  0.6466  0.1191
  182SLPC   H2R20836   3.476   1.624  30.984  0.7516 -1.5046 -0.6158
  182SLPC   H2S20837   3.524   1.657  31.157 -2.0859 -1.9949  0.9010
  182SLPC    C320838   3.299   1.254  31.263 -0.7347 -0.1806  0.4357
  182SLPC    HX20839   3.250   1.343  31.308 -2.3119  0.7180 -2.7769
  182SLPC    HY20840   3.283   1.164  31.326  0.4643  0.2326  1.3665
  182SLPC   O3120841   3.226   1.239  31.136 -0.3877 -0.3779 -0.3153
  182SLPC   C3120842   3.119   1.307  31.116  0.0096 -0.1579  0.1598
  182SLPC   O3220843   3.082   1.399  31.186  0.0564 -0.2170  0.1392
  182SLPC   C3220844   3.058   1.269  30.982  0.0925  0.7460 -0.0234
  182SLPC   H2X20845   2.956   1.313  30.984  0.3069  1.6275 -2.9506
  182SLPC   H2Y20846   3.051   1.158  30.985 -1.7702  0.8441  1.9340
  182SLPC   C2320847   3.691   1.654  31.022 -0.0642 -0.3140 -0.5180
  182SLPC   H3R20848   3.730   1.603  30.931  1.3925  1.2550 -0.8169
  182SLPC   H3S20849   3.776   1.622  31.087 -0.0351  0.4934 -0.1444
  182SLPC   C2420850   3.690   1.811  31.012  0.2217  0.4764  0.6169
  182SLPC   H4R20851   3.664   1.863  31.107  0.2036 -2.0578  2.0920
  182SLPC   H4S20852   3.609   1.843  30.943 -0.3512  0.4078  1.2454
  182SLPC   C2520853   3.829   1.857  30.970  0.9435  0.8697  0.1072
  182SLPC   H5R20854   3.851   1.810  30.872  0.4825 -2.1422  1.3462
  182SLPC   H5S20855   3.912   1.824  31.037 -0.0700  1.0013  1.4867
  182SLPC   C2620856   3.836   2.009  30.945 -0.3695  0.4952 -0.2430
  182SLPC   H6R20857   3.823   2.063  31.041  0.7180 -1.7400  1.2307
  182SLPC   H6S20858   3.745   2.040  30.889  0.1383  0.3264 -1.1914
  182SLPC   C2720859   3.954   2.043  30.861 -0.5756  0.2109 -1.0104
  182SLPC   H7R20860   3.958   1.982  30.768  1.2439  0.6677 -1.2687
  182SLPC   H7S20861   4.040   2.012  30.924 -2.1976 -0.1404  1.1774
  182SLPC   C2820862   3.967   2.191  30.816  0.4534  0.5093 -0.3941
  182SLPC   H8R20863   4.063   2.210  30.763 -0.0304  0.2022 -1.4061
  182SLPC   H8S20864   3.961   2.243  30.914 -2.7671  1.6415 -1.0649
  182SLPC   C2920865   3.868   2.246  30.722  0.2189  0.5401  0.1338
  182SLPC   H9R20866   3.820   2.172  30.657  2.6010 -0.5200 -0.5343
  182SLPC  C21020867   3.853   2.380  30.695 -0.8170 -0.1260  0.0668
  182SLPC  H10R20868   3.774   2.406  30.624  0.5602 -2.2618 -2.4123
  182SLPC  C21120869   3.923   2.488  30.770 -0.0314  0.8763 -0.0514
  182SLPC  H11R20870   4.001   2.449  30.838 -0.3945 -0.8466 -0.5936
  182SLPC  H11S20871   3.849   2.539  30.836  0.8201  1.5232  0.4333
  182SLPC  C21220872   3.991   2.596  30.702 -0.1535  0.3849 -0.2281
  182SLPC  H12R20873   3.960   2.690  30.749 -0.2558 -0.3404  1.2455
  182SLPC  C21320874   4.087   2.599  30.607  0.1170 -0.1577 -0.3956
  182SLPC  H13R20875   4.130   2.696  30.577  3.8491 -0.7154  2.4527
  182SLPC  C21420876   4.141   2.480  30.532 -0.5038  1.0318  0.0885
  182SLPC  H14R20877   4.133   2.387  30.592 -0.2766  0.5822 -0.5618
  182SLPC  H14S20878   4.247   2.494  30.501  0.1337  0.9109  2.0576
  182SLPC  C21520879   4.076   2.441  30.400 -0.1261 -0.0423 -0.4973
  182SLPC  H15R20880   3.969   2.423  30.425 -1.0803  4.0228 -0.8888
  182SLPC  H15S20881   4.116   2.348  30.354  1.4039  0.0368  0.5668
  182SLPC  C21620882   4.092   2.544  30.289  0.2064 -0.2913  0.7707
  182SLPC  H16R20883   4.194   2.570  30.252  0.5535 -0.4792  1.5757
  182SLPC  H16S20884   4.056   2.642  30.329 -1.5765 -0.6098  0.0227
  182SLPC  C21720885   4.006   2.524  30.164  0.0087  0.2788  0.2330
  182SLPC  H17R20886   3.991   2.618  30.108  1.4666 -0.2201 -1.0854
  182SLPC  H17S20887   3.908   2.478  30.190  0.9872 -2.4524 -0.4755
  182SLPC  C21820888   4.077   2.431  30.056 -0.0398  0.2209 -0.5828
  182SLPC  H18R20889   4.174   2.472  30.023  1.9381 -1.2004  2.8640
  182SLPC  H18S20890   4.022   2.395  29.966  0.9483  1.3970 -1.6870
  182SLPC  H18T20891   4.103   2.338  30.111  0.7736  0.4731 -0.5340
  182SLPC   C3320892   3.160   1.304  30.864 -0.5981 -0.1871  0.0321
  182SLPC   H3X20893   3.102   1.275  30.773 -0.5635  2.0920 -0.7898
  182SLPC   H3Y20894   3.241   1.228  30.872 -1.8468 -1.5733  0.0289
  182SLPC   C3420895   3.187   1.459  30.857 -0.1550  0.0320 -0.4403
  182SLPC   H4X20896   3.224   1.498  30.954 -1.9394 -1.1889  0.7904
  182SLPC   H4Y20897   3.088   1.510  30.852  0.9766  2.3899 -0.4403
  182SLPC   C3520898   3.269   1.503  30.736 -0.1161 -0.6293  0.2207
  182SLPC   H5X20899   3.373   1.470  30.758  0.0796  0.4176  0.9464
  182SLPC   H5Y20900   3.279   1.614  30.731  0.2310 -0.7229 -2.4786
  182SLPC   C3620901   3.200   1.460  30.603 -0.2170 -0.5372  0.6013
  182SLPC   H6X20902   3.097   1.500  30.615 -0.6228 -1.2245 -0.5041
  182SLPC   H6Y20903   3.200   1.349  30.597  0.8333 -0.5138 -0.0587
  182SLPC   C3720904   3.274   1.514  30.477 -0.3615  0.5342  0.4673
  182SLPC   H7X20905   3.293   1.622  30.494  3.2320  0.6042 -2.5367
  182SLPC   H7Y20906   3.217   1.513  30.381 -1.5199 -0.4241  1.1325
  182SLPC   C3820907   3.409   1.454  30.456  0.2847 -0.7397 -0.4234
  182SLPC   H8X20908   3.408   1.343  30.449  2.8620 -0.8218 -0.5797
  182SLPC   H8Y20909   3.472   1.468  30.547 -0.4846  0.2511 -0.0221
  182SLPC   C3920910   3.480   1.522  30.340  1.3207 -0.2603  0.3173
  182SLPC   H9X20911   3.488   1.632  30.353  1.3210  0.5104 -4.4206
  182SLPC   H9Y20912   3.414   1.521  30.251  0.8446  1.9652  0.5876
  182SLPC  C31020913   3.607   1.461  30.286 -0.0350 -0.3455 -0.6731
  182SLPC  H10X20914   3.603   1.350  30.293  0.0610 -0.2784  0.8162
  182SLPC  H10Y20915   3.694   1.481  30.352 -0.8748  0.1610  0.3068
  182SLPC  C31120916   3.637   1.509  30.147  0.1503 -0.4085 -0.6992
  182SLPC  H11X20917   3.619   1.617  30.130 -0.0479 -0.0517  1.4990
  182SLPC  H11Y20918   3.560   1.475  30.074  1.5241 -1.2823 -1.7961
  182SLPC  C31220919   3.778   1.460  30.099  0.4601  0.1359 -0.1130
  182SLPC  H12X20920   3.795   1.353  30.123  0.2435  0.0723 -0.2304
  182SLPC  H12Y20921   3.849   1.519  30.160  1.0560  0.2272 -0.8800
  182SLPC  C31320922   3.807   1.496  29.954 -0.4018 -0.0462  0.4515
  182SLPC  H13X20923   3.714   1.499  29.892 -1.6402 -1.6841  2.1276
  182SLPC  H13Y20924   3.869   1.417  29.906 -2.4735 -0.2822 -2.0719
  182SLPC  C31420925   3.899   1.618  29.945  0.6749  0.3732 -0.2189
  182SLPC  H14X20926   3.985   1.597  30.012 -0.0321 -1.4871  0.1733
  182SLPC  H14Y20927   3.846   1.704  29.989  0.1605 -0.6174  1.1563
  182SLPC  C31520928   3.963   1.646  29.810  0.0747 -0.4658 -0.4900
  182SLPC  H15X20929   4.024   1.562  29.772  1.6319  0.4291 -0.0730
  182SLPC  H15Y20930   4.033   1.732  29.817 -0.8060  0.3828 -1.6722
  182SLPC  C31620931   3.871   1.695  29.695  0.5238 -0.1674 -0.4826
  182SLPC  H16X20932   3.809   1.783  29.725  0.5055  0.0613 -1.1851
  182SLPC  H16Y20933   3.807   1.615  29.652 -0.8039  1.5044 -1.7382
  182SLPC  C31720934   3.951   1.749  29.574 -0.0707 -0.0263 -0.0950
  182SLPC  H17X20935   4.021   1.668  29.541 -2.5783 -2.6954  0.7142
  182SLPC  H17Y20936   4.001   1.847  29.591 -0.5231  0.3338 -0.8210
  182SLPC  C31820937   3.857   1.782  29.459 -0.4890 -0.2370 -0.3096
  182SLPC  H18X20938   3.909   1.860  29.400 -1.3088  0.5662  0.0043
  182SLPC  H18Y20939   3.767   1.838  29.491  0.5511  0.2159  2.0327
  182SLPC  H18Z20940   3.820   1.694  29.402  3.0205 -2.3500  0.3860
  183SLPC     N20941   3.393   3.831  29.809  0.8408  0.2686  0.0671
  183SLPC   C1320942   3.366   3.834  29.953  0.4672 -1.2600  0.4332
  183SLPC  H13A20943   3.262   3.821  29.978 -0.0862 -0.4617 -1.3253
  183SLPC  H13B20944   3.428   3.764  30.007  0.6030 -0.1276  1.8347
  183SLPC  H13C20945   3.386   3.938  29.976  1.1434 -0.6930 -2.3726
  183SLPC   C1420946   3.530   3.867  29.791 -0.1962  0.6289  0.2802
  183SLPC  H14A20947   3.598   3.802  29.843 -0.6114 -0.2893 -0.3000
  183SLPC  H14B20948   3.563   3.855  29.688 -0.0025 -0.8972  0.4965
  183SLPC  H14C20949   3.544   3.969  29.824 -3.2442  0.6950  1.6633
  183SLPC   C1520950   3.304   3.932  29.728 -0.0350  0.6042  0.2801
  183SLPC  H15A20951   3.329   3.929  29.623 -2.9635  2.4075 -0.5967
  183SLPC  H15B20952   3.199   3.922  29.751 -0.1168 -1.3662 -0.6846
  183SLPC  H15C20953   3.331   4.026  29.774 -0.6428 -0.3531  2.7221
  183SLPC   C1220954   3.370   3.689  29.759 -0.2408 -0.0597 -0.7469
  183SLPC  H12A20955   3.376   3.690  29.651  0.2857  0.6361 -0.7243
  183SLPC  H12B20956   3.269   3.657  29.776  0.1428 -0.3734  1.0994
  183SLPC   C1120957   3.454   3.568  29.816 -0.2708 -0.2698  0.1146
  183SLPC  H11A20958   3.561   3.592  29.795 -0.0501  0.0258  1.5233
  183SLPC  H11B20959   3.422   3.482  29.753 -1.2966  0.3079 -0.1639
  183SLPC     P20960   3.286   3.485  30.004 -0.2123 -0.1728 -0.4853
  183SLPC   O1320961   3.290   3.477  30.153  0.6467  0.1293  1.3751
  183SLPC   O1420962   3.175   3.564  29.944 -0.1283  0.1478 -0.4748
  183SLPC   O1220963   3.428   3.546  29.954  0.0949  0.2722 -0.0251
  183SLPC   O1120964   3.286   3.341  29.943  0.0014 -0.3628  0.5071
  183SLPC    C120965   3.295   3.223  30.018 -0.1900 -0.4268 -0.4230
  183SLPC    HA20966   3.381   3.224  30.087  2.3428 -0.3854 -3.3627
  183SLPC    HB20967   3.206   3.208  30.084  1.9083 -0.3661  2.6048
  183SLPC    C220968   3.315   3.092  29.934  0.0859 -0.1585  0.5088
  183SLPC    HS20969   3.375   3.019  29.992 -0.1028  0.0550  0.9733
  183SLPC   O2120970   3.378   3.118  29.810  0.3768  0.0267  0.4976
  183SLPC   C2120971   3.509   3.138  29.823 -0.0840 -0.6904  0.5103
  183SLPC   O2220972   3.571   3.136  29.928  0.6538 -0.4068  0.4959
  183SLPC   C2220973   3.570   3.185  29.688  0.6826  0.1151  0.1855
  183SLPC   H2R20974   3.503   3.260  29.640  1.9361  0.7719 -0.5817
  183SLPC   H2S20975   3.666   3.230  29.719  0.9276 -0.4626  0.2874
  183SLPC    C320976   3.169   3.040  29.900 -0.1427  0.5935 -0.4001
  183SLPC    HX20977   3.141   3.127  29.836  5.0094  2.9473 -0.0204
  183SLPC    HY20978   3.107   3.047  29.992 -1.7657  0.9413 -1.4765
  183SLPC   O3120979   3.162   2.910  29.835 -0.1803  0.2838 -0.2965
  183SLPC   C3120980   3.113   2.904  29.714 -0.1868 -0.0859  0.2130
  183SLPC   O3220981   3.080   3.001  29.643 -0.4986  0.1880  0.2172
  183SLPC   C3220982   3.109   2.758  29.670 -0.0300  0.1880 -0.6848
  183SLPC   H2X20983   3.024   2.703  29.716  0.6827 -0.1268  0.2679
  183SLPC   H2Y20984   3.202   2.711  29.707 -1.2325 -1.4172  0.4470
  183SLPC   C2320985   3.591   3.072  29.592  0.4530 -0.6847  0.6098
  183SLPC   H3R20986   3.595   3.109  29.488  0.2021 -2.3665 -0.0254
  183SLPC   H3S20987   3.505   3.002  29.598  0.4746 -1.3013 -3.5067
  183SLPC   C2420988   3.720   2.991  29.619  0.3582 -0.2393 -0.2577
  183SLPC   H4R20989   3.698   2.942  29.717 -4.4613  2.8163  0.5733
  183SLPC   H4S20990   3.810   3.056  29.628  0.7735 -1.0783  3.1014
  183SLPC   C2520991   3.753   2.879  29.518 -0.1353  0.0189 -0.1174
  183SLPC   H5R20992   3.753   2.922  29.416 -0.7389 -2.1883 -1.1046
  183SLPC   H5S20993   3.673   2.802  29.524 -0.8429  0.6887 -0.7250
  183SLPC   C2620994   3.891   2.805  29.538 -0.0987  0.4514  0.2511
  183SLPC   H6R20995   3.902   2.770  29.643  2.4190 -1.8011 -0.6671
  183SLPC   H6S20996   3.976   2.869  29.507  1.7739 -2.0356 -0.0603
  183SLPC   C2720997   3.898   2.664  29.465 -0.4134  0.0650 -0.4423
  183SLPC   H7R20998   3.821   2.598  29.511  0.5745 -1.3829 -0.8087
  183SLPC   H7S20999   3.997   2.624  29.494 -0.8219 -1.6189 -1.2672
  183SLPC   C2821000   3.877   2.673  29.316 -0.1696 -0.1142 -0.2609
  183SLPC   H8R21001   3.788   2.734  29.292 -0.6768 -0.5380  0.5031
  183SLPC   H8S21002   3.849   2.569  29.287  0.7098 -0.4581  0.0648
  183SLPC   C2921003   3.996   2.722  29.243 -0.3233 -0.4516 -0.6444
  183SLPC   H9R21004   4.047   2.813  29.279 -2.1193  0.3949 -0.1150
  183SLPC  C21021005   4.052   2.645  29.152  0.4693 -0.7278 -0.7264
  183SLPC  H10R21006   4.136   2.687  29.094  0.2300 -0.7240 -1.0720
  183SLPC  C21121007   4.016   2.512  29.101 -0.0821  0.7127  0.0565
  183SLPC  H11R21008   4.057   2.501  28.999 -0.1370 -1.4139  0.2104
  183SLPC  H11S21009   3.905   2.504  29.094 -0.0024  0.7903 -1.6375
  183SLPC  C21221010   4.071   2.401  29.186  0.1334  0.9779 -0.9202
  183SLPC  H12R21011   4.085   2.422  29.293 -0.6501 -0.5747 -0.4830
  183SLPC  C21321012   4.100   2.274  29.141  0.2629 -0.2924 -0.3180
  183SLPC  H13R21013   4.132   2.200  29.217  1.1680 -0.8468 -1.2191
  183SLPC  C21421014   4.085   2.212  29.002  0.0479  0.5296 -0.1016
  183SLPC  H14R21015   4.101   2.287  28.921  0.7639  0.0448 -0.4248
  183SLPC  H14S21016   3.986   2.164  28.992  0.2952 -0.5777  2.2660
  183SLPC  C21521017   4.178   2.099  28.974  0.0746 -0.0645 -0.0145
  183SLPC  H15R21018   4.285   2.117  28.998 -0.0178  1.1208 -0.4410
  183SLPC  H15S21019   4.181   2.080  28.865  1.7824 -0.4971  0.0879
  183SLPC  C21621020   4.136   1.968  29.043  0.4626  0.0212 -0.2666
  183SLPC  H16R21021   4.027   1.966  29.060  0.4767  0.7657 -0.0228
  183SLPC  H16S21022   4.180   1.965  29.145 -0.2996 -0.6840  0.0451
  183SLPC  C21721023   4.188   1.844  28.966  0.0732 -0.6823  0.0806
  183SLPC  H17R21024   4.297   1.862  28.953 -0.3801  1.1556 -1.5975
  183SLPC  H17S21025   4.147   1.836  28.863  0.6076 -0.4571 -0.1558
  183SLPC  C21821026   4.164   1.722  29.047 -0.2734 -0.4867  0.8271
  183SLPC  H18R21027   4.206   1.635  28.992 -0.5528  0.1646 -0.4470
  183SLPC  H18S21028   4.055   1.705  29.061 -0.5496 -0.8442 -1.3778
  183SLPC  H18T21029   4.219   1.737  29.143  0.0555  3.9600  0.1536
  183SLPC   C3321030   3.101   2.742  29.517 -0.0069 -0.6118  0.2235
  183SLPC   H3X21031   3.160   2.651  29.495 -0.4413 -0.8982  0.2149
  183SLPC   H3Y21032   3.146   2.830  29.466  0.8051 -0.6143  0.9246
  183SLPC   C3421033   2.955   2.723  29.459  0.1683 -0.5497 -0.6377
  183SLPC   H4X21034   2.893   2.795  29.517 -2.9322 -1.6542 -2.3507
  183SLPC   H4Y21035   2.895   2.633  29.487 -0.8736  0.4519  0.4910
  183SLPC   C3521036   2.955   2.757  29.308  0.6454  0.1844  0.6461
  183SLPC   H5X21037   2.972   2.864  29.283  0.5276 -0.0910 -0.7306
  183SLPC   H5Y21038   2.851   2.748  29.269  0.3043  0.8793  1.3894
  183SLPC   C3621039   3.062   2.679  29.226  0.0887  0.5743 -0.3325
  183SLPC   H6X21040   3.169   2.701  29.245  0.9043 -1.6170 -1.9711
  183SLPC   H6Y21041   3.044   2.713  29.121 -0.3849  1.0510 -0.0971
  183SLPC   C3721042   3.036   2.525  29.231  1.0065 -0.5020  0.0391
  183SLPC   H7X21043   2.929   2.505  29.209  1.1361 -1.8545  0.5483
  183SLPC   H7Y21044   3.046   2.495  29.338  0.5999  1.6919  0.7516
  183SLPC   C3821045   3.127   2.448  29.138 -0.2526 -1.0833  0.0299
  183SLPC   H8X21046   3.227   2.491  29.161 -0.3109 -0.8474 -0.1602
  183SLPC   H8Y21047   3.107   2.487  29.036  0.2713  1.1024  0.7187
  183SLPC   C3921048   3.112   2.296  29.144  0.0372  0.1985  0.3446
  183SLPC   H9X21049   3.126   2.265  29.250 -1.8717  2.2290  1.2848
  183SLPC   H9Y21050   3.207   2.260  29.098 -1.7642 -3.9274 -0.5350
  183SLPC  C31021051   2.983   2.259  29.068  0.4030  0.0240 -0.3006
  183SLPC  H10X21052   2.964   2.316  28.974  0.0299  0.5436  0.0852
  183SLPC  H10Y21053   2.898   2.273  29.138 -0.7811 -0.3794 -1.5867
  183SLPC  C31121054   2.971   2.110  29.028 -0.0317 -0.3045  0.7828
  183SLPC  H11X21055   2.963   2.053  29.123 -0.6511  1.1807  1.6648
  183SLPC  H11Y21056   3.056   2.081  28.962  0.8216 -1.2803  2.2655
  183SLPC  C31221057   2.839   2.083  28.946 -0.1972 -0.3210  0.1563
  183SLPC  H12X21058   2.761   2.148  28.991  0.3830  1.2349 -1.0084
  183SLPC  H12Y21059   2.813   1.978  28.973 -1.3949  0.3064  1.5559
  183SLPC  C31321060   2.850   2.087  28.800 -0.8385 -0.5740  0.0231
  183SLPC  H13X21061   2.931   2.021  28.761  1.7628  2.3697  0.0959
  183SLPC  H13Y21062   2.872   2.189  28.764 -2.3769 -0.7411 -1.5204
  183SLPC  C31421063   2.715   2.055  28.740  1.2012  0.4180 -0.8277
  183SLPC  H14X21064   2.665   1.964  28.779  0.7418  1.0973  0.2371
  183SLPC  H14Y21065   2.735   2.034  28.633  3.3203 -0.7387 -0.2491
  183SLPC  C31521066   2.603   2.164  28.748  0.0731 -0.5548 -0.3196
  183SLPC  H15X21067   2.646   2.258  28.708  1.6488 -1.0274  0.2243
  183SLPC  H15Y21068   2.581   2.172  28.857  0.7545  0.4162 -0.2456
  183SLPC  C31621069   2.486   2.113  28.663  0.8457  0.1227  0.0130
  183SLPC  H16X21070   2.451   2.016  28.704 -0.2271  0.3774 -0.2534
  183SLPC  H16Y21071   2.522   2.098  28.559 -2.2371 -1.5825 -0.9457
  183SLPC  C31721072   2.357   2.205  28.679 -0.2452 -0.3878 -0.3653
  183SLPC  H17X21073   2.386   2.312  28.671 -2.8793  0.5978  1.6402
  183SLPC  H17Y21074   2.318   2.187  28.781  0.1235  2.8174  0.4526
  183SLPC  C31821075   2.239   2.175  28.587 -0.0118  0.2241  0.4830
  183SLPC  H18X21076   2.197   2.077  28.621  1.6513 -0.1191  1.7029
  183SLPC  H18Y21077   2.271   2.183  28.481  3.1362 -1.1813  1.1885
  183SLPC  H18Z21078   2.174   2.262  28.607  2.0386  1.9255  0.0439
  184SLPC     N21079   1.189   3.578  29.528  0.0958  0.2874  0.4413
  184SLPC   C1321080   1.166   3.523  29.652 -0.0867  0.3883 -0.4750
  184SLPC  H13A21081   1.117   3.427  29.658  0.1553  0.3578  2.1232
  184SLPC  H13B21082   1.259   3.524  29.706 -1.2356 -0.8455  1.6494
  184SLPC  H13C21083   1.098   3.586  29.707 -0.3803 -1.1815  1.0153
  184SLPC   C1421084   1.286   3.488  29.449  0.0489  0.6281 -0.8916
  184SLPC  H14A21085   1.239   3.391  29.440 -0.5783  0.8855 -0.4398
  184SLPC  H14B21086   1.311   3.535  29.356  0.3889  0.8868 -0.6724
  184SLPC  H14C21087   1.378   3.468  29.504 -2.5017 -2.0140  2.9625
  184SLPC   C1521088   1.247   3.713  29.546  0.1905 -0.1419 -0.1023
  184SLPC  H15A21089   1.175   3.778  29.593 -1.3952 -1.2564 -0.9225
  184SLPC  H15B21090   1.348   3.720  29.584  0.9197 -0.5000 -1.9031
  184SLPC  H15C21091   1.261   3.748  29.445  0.2499 -1.0996 -0.4396
  184SLPC   C1221092   1.060   3.589  29.444  0.9011  0.3071 -0.3638
  184SLPC  H12A21093   0.983   3.647  29.494  1.3421  0.5790  0.0068
  184SLPC  H12B21094   1.018   3.490  29.435  1.7145 -0.2666  1.5338
  184SLPC   C1121095   1.062   3.657  29.300  0.1157 -0.2901 -0.9356
  184SLPC  H11A21096   0.969   3.656  29.239 -1.3294 -1.0351  1.1502
  184SLPC  H11B21097   1.127   3.595  29.235 -2.0968 -2.4850 -1.2056
  184SLPC     P21098   0.994   3.910  29.333 -0.1980 -0.2179  0.2720
  184SLPC   O1321099   0.861   3.856  29.301 -0.0133  0.0820  0.4805
  184SLPC   O1421100   1.019   3.972  29.465 -0.2824  0.6180  0.1500
  184SLPC   O1221101   1.098   3.796  29.312  0.5444 -0.0737 -0.4252
  184SLPC   O1121102   1.003   4.022  29.216 -0.2385  0.6302  0.6355
  184SLPC    C121103   1.135   4.052  29.169  0.4694 -0.4204 -0.0904
  184SLPC    HA21104   1.217   4.013  29.233 -1.0912 -2.3725  0.8266
  184SLPC    HB21105   1.157   4.003  29.072 -1.0026 -1.8749  0.2685
  184SLPC    C221106   1.152   4.206  29.159 -0.7343  0.0059  0.1518
  184SLPC    HS21107   1.245   4.231  29.105 -1.2562  1.7407 -0.0073
  184SLPC   O2121108   1.135   4.263  29.287 -0.0053  0.3660  0.0075
  184SLPC   C2121109   1.242   4.261  29.374 -0.4426  0.1116  0.3708
  184SLPC   O2221110   1.350   4.222  29.338 -0.1200  0.3250 -0.3207
  184SLPC   C2221111   1.209   4.306  29.522 -0.6903 -0.3567  0.5493
  184SLPC   H2R21112   1.104   4.275  29.541 -1.0917  0.4795 -0.2829
  184SLPC   H2S21113   1.273   4.233  29.577  0.7094 -0.4379 -1.0895
  184SLPC    C321114   1.044   4.265  29.063  0.0689  0.5732  0.5684
  184SLPC    HX21115   0.946   4.247  29.111  0.2963 -0.1722  0.7536
  184SLPC    HY21116   1.048   4.214  28.965 -1.6744  2.1809 -0.4045
  184SLPC   O3121117   1.054   4.405  29.048 -0.6507 -0.5048 -0.3570
  184SLPC   C3121118   1.162   4.452  28.992  0.7477 -0.1041 -0.2790
  184SLPC   O3221119   1.250   4.386  28.931  0.5384 -0.7536 -0.5773
  184SLPC   C3221120   1.172   4.602  29.016  0.0023 -0.0076  0.0126
  184SLPC   H2X21121   1.084   4.635  29.076  1.8092 -1.6983  3.9080
  184SLPC   H2Y21122   1.177   4.651  28.916  3.0405  2.4626  1.2069
  184SLPC   C2321123   1.261   4.446  29.572  0.7281  0.6979 -0.3046
  184SLPC   H3R21124   1.370   4.443  29.551  0.9645 -0.9787  0.9518
  184SLPC   H3S21125   1.236   4.466  29.679 -0.0062  1.0550 -0.5345
  184SLPC   C2421126   1.191   4.567  29.497 -0.0386 -0.1660 -0.3599
  184SLPC   H4R21127   1.083   4.562  29.522  0.2277  1.6252  1.3634
  184SLPC   H4S21128   1.205   4.558  29.387  1.4489  3.6927 -0.6511
  184SLPC   C2521129   1.251   4.703  29.531  1.0353  0.2874 -0.3968
  184SLPC   H5R21130   1.354   4.714  29.491  0.6746  0.0952 -1.4146
  184SLPC   H5S21131   1.263   4.708  29.641 -0.2292 -0.4488 -0.2067
  184SLPC   C2621132   1.162   4.820  29.477 -0.7358 -0.9939 -0.3019
  184SLPC   H6R21133   1.073   4.808  29.542  0.7238 -0.6653  1.8560
  184SLPC   H6S21134   1.147   4.802  29.368  2.7259  0.4406 -1.1305
  184SLPC   C2721135   1.227   4.958  29.488  0.1115  0.3660  0.3703
  184SLPC   H7R21136   1.320   4.957  29.427  0.3616  0.8682  0.7383
  184SLPC   H7S21137   1.267   4.976  29.590  3.0559 -0.5319 -0.5200
  184SLPC   C2821138   1.129   5.078  29.456 -0.2905 -0.0442  0.8679
  184SLPC   H8R21139   1.169   5.170  29.505  0.2796  0.6831 -0.8511
  184SLPC   H8S21140   1.035   5.049  29.506  0.1773  0.9067  2.3814
  184SLPC   C2921141   1.113   5.120  29.313 -0.2369 -0.2730  0.3456
  184SLPC   H9R21142   1.086   5.038  29.245 -2.5112  0.2658  0.5305
  184SLPC  C21021143   1.112   5.244  29.261 -0.1984  0.0852 -0.0310
  184SLPC  H10R21144   1.108   5.258  29.152  0.7033 -2.6117 -0.4725
  184SLPC  C21121145   1.143   5.374  29.325  0.0235  0.8709 -0.0079
  184SLPC  H11R21146   1.201   5.335  29.412  0.3525 -1.9347 -1.3923
  184SLPC  H11S21147   1.050   5.419  29.365  0.0471 -0.6031  1.8278
  184SLPC  C21221148   1.220   5.477  29.252 -0.0682 -0.7872 -0.3989
  184SLPC  H12R21149   1.313   5.443  29.203  0.1103 -1.9847  0.7156
  184SLPC  C21321150   1.199   5.609  29.264  0.5424 -0.4274  0.2973
  184SLPC  H13R21151   1.254   5.676  29.197  1.2907 -1.9842 -0.7031
  184SLPC  C21421152   1.097   5.688  29.333  0.6343 -0.0131 -0.0643
  184SLPC  H14R21153   1.076   5.647  29.435 -0.8723 -0.4447 -0.5191
  184SLPC  H14S21154   0.996   5.688  29.286  0.8043  0.2165 -0.4334
  184SLPC  C21521155   1.129   5.836  29.353  0.2113 -0.0185  0.1168
  184SLPC  H15R21156   1.236   5.851  29.379 -0.0296  2.6433 -0.1452
  184SLPC  H15S21157   1.071   5.883  29.435 -0.1725  0.7633 -0.5772
  184SLPC  C21621158   1.105   5.918  29.219 -0.0718 -0.3865  0.0541
  184SLPC  H16R21159   0.997   5.910  29.196 -0.1811  1.7921 -0.3632
  184SLPC  H16S21160   1.166   5.886  29.132 -1.7751 -2.0082 -0.6187
  184SLPC  C21721161   1.125   6.065  29.251  0.0055  0.0478  0.1753
  184SLPC  H17R21162   1.229   6.086  29.287 -0.0184 -1.2721  1.1111
  184SLPC  H17S21163   1.053   6.084  29.334 -2.3117 -0.1033 -1.7148
  184SLPC  C21821164   1.102   6.165  29.140  0.4239 -0.7565  0.0931
  184SLPC  H18R21165   1.196   6.173  29.079  0.7527  1.9234  0.8209
  184SLPC  H18S21166   1.078   6.265  29.182 -1.7258 -0.2764 -2.0444
  184SLPC  H18T21167   1.017   6.139  29.074  0.4491  0.1913 -0.3290
  184SLPC   C3321168   1.301   4.651  29.078  0.6289 -0.5005  0.1041
  184SLPC   H3X21169   1.382   4.636  29.004  1.9182  0.9831  1.1455
  184SLPC   H3Y21170   1.324   4.590  29.169 -1.8730 -0.2055  1.0083
  184SLPC   C3421171   1.297   4.808  29.103  0.4159 -0.0621  0.1399
  184SLPC   H4X21172   1.321   4.816  29.211  0.5492  0.9206  0.0442
  184SLPC   H4Y21173   1.191   4.837  29.091 -0.0148 -1.5509  0.1189
  184SLPC   C3521174   1.401   4.893  29.025 -0.0902 -0.4186  0.0830
  184SLPC   H5X21175   1.391   4.882  28.915  1.9045 -0.1855 -0.1669
  184SLPC   H5Y21176   1.509   4.887  29.051  0.2442  1.1844 -0.8293
  184SLPC   C3621177   1.398   5.045  29.068 -0.3375  0.2156  0.2851
  184SLPC   H6X21178   1.425   5.048  29.176  1.8356  1.1229 -0.2221
  184SLPC   H6Y21179   1.291   5.072  29.072 -0.2937  0.3246  4.0270
  184SLPC   C3721180   1.493   5.145  28.995  0.1634  0.3367  0.8029
  184SLPC   H7X21181   1.479   5.140  28.884  3.7456  2.5325  0.1032
  184SLPC   H7Y21182   1.600   5.118  29.008  0.5004 -1.6028 -3.8202
  184SLPC   C3821183   1.458   5.283  29.038 -0.3827  0.4893  0.1920
  184SLPC   H8X21184   1.487   5.310  29.142  1.3042  0.2423 -0.1863
  184SLPC   H8Y21185   1.348   5.302  29.039 -0.4300  0.5708 -1.6928
  184SLPC   C3921186   1.515   5.386  28.945  0.8644 -0.2600  0.0572
  184SLPC   H9X21187   1.483   5.381  28.839  1.7794  2.6796 -0.4322
  184SLPC   H9Y21188   1.624   5.374  28.962  1.1255  1.4080 -0.3491
  184SLPC  C31021189   1.464   5.532  28.984  0.3256 -0.0882  0.3747
  184SLPC  H10X21190   1.459   5.539  29.094 -0.4189 -1.4795  0.4458
  184SLPC  H10Y21191   1.369   5.550  28.929 -0.3732 -0.0062  1.5722
  184SLPC  C31121192   1.566   5.642  28.928 -0.0298  1.1074 -0.6696
  184SLPC  H11X21193   1.581   5.625  28.819  1.8446  1.6574 -0.5380
  184SLPC  H11Y21194   1.668   5.622  28.969 -0.0097 -0.5966 -1.4564
  184SLPC  C31221195   1.531   5.786  28.963  0.6298  0.5491  0.7950
  184SLPC  H12X21196   1.436   5.827  28.922  0.8959 -0.0319 -0.4454
  184SLPC  H12Y21197   1.619   5.838  28.919  0.5102 -0.9577 -1.3876
  184SLPC  C31321198   1.541   5.828  29.108 -1.1375  0.1227 -0.2132
  184SLPC  H13X21199   1.633   5.781  29.148 -0.5874  0.1786 -1.3885
  184SLPC  H13Y21200   1.447   5.799  29.159 -1.6870  1.4144 -0.4395
  184SLPC  C31421201   1.541   5.987  29.109 -1.0501  0.3675 -1.0852
  184SLPC  H14X21202   1.458   6.027  29.046  0.8478  0.7801 -3.4596
  184SLPC  H14Y21203   1.630   6.026  29.055  1.3625 -1.5591  1.2036
  184SLPC  C31521204   1.534   6.054  29.251  0.0230  0.2487  0.1421
  184SLPC  H15X21205   1.431   6.019  29.271 -1.9453  2.8578 -4.0288
  184SLPC  H15Y21206   1.534   6.165  29.241  2.1334  0.0743 -3.7076
  184SLPC  C31621207   1.637   5.998  29.356  0.2134 -0.1270  0.3272
  184SLPC  H16X21208   1.733   6.027  29.307  0.8933 -2.7261 -0.0475
  184SLPC  H16Y21209   1.639   5.888  29.371  1.2120 -0.1894 -0.1759
  184SLPC  C31721210   1.637   6.058  29.496  0.3587 -0.5068 -0.7869
  184SLPC  H17X21211   1.563   6.000  29.557  0.1912 -1.2023 -1.6308
  184SLPC  H17Y21212   1.597   6.161  29.506 -0.9190 -0.8802 -1.7951
  184SLPC  C31821213   1.778   6.045  29.553  0.0082 -0.2346  0.1532
  184SLPC  H18X21214   1.831   5.950  29.533  0.1108  0.0867 -1.2236
  184SLPC  H18Y21215   1.772   6.059  29.663  0.1089 -3.9825  0.7735
  184SLPC  H18Z21216   1.838   6.119  29.497  0.0058 -1.2379 -1.2384
  185SLPC     N21217   0.434   1.739  17.684 -0.2453  0.1614  0.6927
  185SLPC   C1321218   0.579   1.758  17.671  0.4541  0.0236  0.1002
  185SLPC  H13A21219   0.627   1.727  17.763 -0.1150  3.2299  1.6035
  185SLPC  H13B21220   0.606   1.695  17.588 -1.4937 -0.6448 -0.0884
  185SLPC  H13C21221   0.606   1.857  17.638  2.0379 -0.3680  0.1703
  185SLPC   C1421222   0.397   1.596  17.703  0.8308 -0.0442 -0.0434
  185SLPC  H14A21223   0.290   1.587  17.709  0.9160 -0.9216  0.3300
  185SLPC  H14B21224   0.436   1.526  17.629  2.3140 -0.0747  0.7263
  185SLPC  H14C21225   0.440   1.555  17.793 -3.0857 -3.8083  0.4605
  185SLPC   C1521226   0.376   1.788  17.552 -0.2710  0.0611 -0.0149
  185SLPC  H15A21227   0.269   1.777  17.562 -0.8038  2.1125 -2.5051
  185SLPC  H15B21228   0.382   1.893  17.531 -1.8565 -0.0578 -1.2947
  185SLPC  H15C21229   0.411   1.717  17.478 -2.5984 -2.6793  1.2883
  185SLPC   C1221230   0.387   1.817  17.805 -0.2202  0.1377  0.5556
  185SLPC  H12A21231   0.435   1.777  17.893  1.9561  0.3516 -0.4751
  185SLPC  H12B21232   0.280   1.821  17.814 -0.5620  4.6284 -2.3361
  185SLPC   C1121233   0.414   1.971  17.809 -0.1990 -0.2203  0.1868
  185SLPC  H11A21234   0.522   1.988  17.828 -0.8386  2.3370  2.3383
  185SLPC  H11B21235   0.374   2.011  17.905  1.0909  0.6468  0.3881
  185SLPC     P21236   0.252   2.175  17.735  0.3692 -0.0222 -0.1849
  185SLPC   O1321237   0.221   2.243  17.607  0.6196 -0.4317 -0.2348
  185SLPC   O1421238   0.142   2.125  17.822 -0.5635 -0.0568 -0.5028
  185SLPC   O1221239   0.353   2.050  17.707  0.0713  0.7068 -0.0140
  185SLPC   O1121240   0.340   2.272  17.834 -0.0129  0.1170  0.4654
  185SLPC    C121241   0.455   2.324  17.755  0.4371 -0.9805 -0.3938
  185SLPC    HA21242   0.555   2.300  17.798  0.6917 -2.5368 -1.7568
  185SLPC    HB21243   0.479   2.280  17.655 -0.7414  0.2887 -1.2652
  185SLPC    C221244   0.458   2.477  17.742 -0.3748 -0.2310 -0.2922
  185SLPC    HS21245   0.545   2.499  17.677 -0.1454 -1.0881 -0.2970
  185SLPC   O2121246   0.462   2.539  17.876  0.7137  0.1621 -0.0471
  185SLPC   C2121247   0.567   2.519  17.942 -0.3082  0.4591  0.4385
  185SLPC   O2221248   0.660   2.455  17.903 -0.7114  0.1543  0.5047
  185SLPC   C2221249   0.555   2.589  18.079 -0.1226 -0.2957 -0.0874
  185SLPC   H2R21250   0.537   2.514  18.159 -1.2572  0.5151  0.4443
  185SLPC   H2S21251   0.654   2.634  18.103  1.0381 -2.5559 -0.3927
  185SLPC    C321252   0.335   2.524  17.663  0.6378 -1.0149  0.4479
  185SLPC    HX21253   0.248   2.494  17.725  0.2495  0.7942  0.8592
  185SLPC    HY21254   0.335   2.472  17.565 -2.7512  1.2945 -1.0042
  185SLPC   O3121255   0.340   2.663  17.630 -0.2930  0.0483 -0.4329
  185SLPC   C3121256   0.246   2.705  17.542 -0.3115 -0.0602  0.2860
  185SLPC   O3221257   0.158   2.628  17.504  0.0737  0.2009  0.4223
  185SLPC   C3221258   0.289   2.844  17.494 -0.8013 -0.1132 -0.2614
  185SLPC   H2X21259   0.320   2.838  17.388 -0.7989 -1.7883 -0.1947
  185SLPC   H2Y21260   0.377   2.877  17.554 -0.7097 -0.8339  0.0096
  185SLPC   C2321261   0.434   2.685  18.114  0.5949 -0.4143  1.1196
  185SLPC   H3R21262   0.341   2.627  18.094 -0.5735  1.9889 -1.1296
  185SLPC   H3S21263   0.418   2.753  18.028 -0.0266 -2.4444 -0.4809
  185SLPC   C2421264   0.448   2.752  18.248 -0.1852 -0.2334 -0.6195
  185SLPC   H4R21265   0.546   2.801  18.264  0.8847 -2.4667  0.0872
  185SLPC   H4S21266   0.427   2.675  18.325  1.3799 -0.2842 -0.2048
  185SLPC   C2521267   0.337   2.865  18.259 -0.7052  1.4259  0.2336
  185SLPC   H5R21268   0.236   2.829  18.229 -1.0905  1.6401  1.2530
  185SLPC   H5S21269   0.365   2.948  18.191  1.4422  0.8573  0.3483
  185SLPC   C2621270   0.325   2.934  18.389  0.0541 -0.7897  0.0877
  185SLPC   H6R21271   0.425   2.974  18.416 -0.6398  0.7441  0.5484
  185SLPC   H6S21272   0.285   2.865  18.466  1.1950 -1.7653 -0.1677
  185SLPC   C2721273   0.228   3.056  18.384 -0.2783 -0.2834  0.5416
  185SLPC   H7R21274   0.129   3.025  18.343  0.3847  1.5094 -2.7186
  185SLPC   H7S21275   0.262   3.138  18.318 -0.9514 -1.0802 -0.8551
  185SLPC   C2821276   0.178   3.100  18.520 -0.5804 -0.1124 -0.0148
  185SLPC   H8R21277   0.264   3.142  18.577 -0.7197 -0.7059  0.6615
  185SLPC   H8S21278   0.123   3.019  18.573 -2.7960  0.2351 -1.6587
  185SLPC   C2921279   0.075   3.206  18.518 -0.2511 -0.0524 -0.7317
  185SLPC   H9R21280   0.005   3.200  18.433 -0.1329 -0.8699 -0.7780
  185SLPC  C21021281   0.079   3.320  18.592  0.6270 -0.0380 -0.0681
  185SLPC  H10R21282  -0.014   3.378  18.590  0.1774 -0.6948 -2.9584
  185SLPC  C21121283   0.180   3.355  18.698  0.2524 -0.2658 -0.0019
  185SLPC  H11R21284   0.224   3.262  18.740 -0.0363 -0.2262  0.3993
  185SLPC  H11S21285   0.137   3.422  18.776 -1.3756  1.0936 -1.9538
  185SLPC  C21221286   0.296   3.437  18.631 -1.0488 -0.4807 -0.2852
  185SLPC  H12R21287   0.303   3.402  18.527 -0.9983  1.0016 -0.8085
  185SLPC  C21321288   0.372   3.534  18.683 -0.3175 -0.1888  0.5084
  185SLPC  H13R21289   0.450   3.584  18.623 -0.7967 -2.7405 -2.4904
  185SLPC  C21421290   0.342   3.605  18.813 -0.8728 -0.3491  0.5940
  185SLPC  H14R21291   0.235   3.602  18.839 -0.9147  0.7646  0.5776
  185SLPC  H14S21292   0.358   3.714  18.797 -1.4184 -0.3561 -0.0345
  185SLPC  C21521293   0.435   3.560  18.926  0.4120  0.6082  0.1875
  185SLPC  H15R21294   0.417   3.626  19.014 -2.2702 -1.6657  1.5009
  185SLPC  H15S21295   0.542   3.575  18.899  0.6174 -0.2197  0.5127
  185SLPC  C21621296   0.414   3.414  18.971 -0.9174 -0.2606  0.3245
  185SLPC  H16R21297   0.411   3.347  18.882 -0.0639 -1.9293  1.4919
  185SLPC  H16S21298   0.315   3.424  19.019 -0.9906  0.2357  0.0719
  185SLPC  C21721299   0.531   3.360  19.056  0.0145 -0.0278  0.5716
  185SLPC  H17R21300   0.546   3.427  19.143  0.6560  1.0397 -0.3341
  185SLPC  H17S21301   0.627   3.368  19.002 -0.7828  0.0126 -0.8861
  185SLPC  C21821302   0.511   3.211  19.091  0.5517 -0.0458 -0.2646
  185SLPC  H18R21303   0.410   3.194  19.133  0.9696 -0.2456  0.6923
  185SLPC  H18S21304   0.589   3.198  19.169  0.8684  0.8575 -0.4148
  185SLPC  H18T21305   0.512   3.154  18.996 -0.5843 -0.6372  0.0607
  185SLPC   C3321306   0.180   2.945  17.514  0.7089  0.3246  0.2579
  185SLPC   H3X21307   0.154   2.959  17.622 -0.5962 -0.9434  0.1442
  185SLPC   H3Y21308   0.088   2.907  17.464  0.5857  1.5739 -0.4996
  185SLPC   C3421309   0.216   3.081  17.438  0.4634  0.7020 -0.1556
  185SLPC   H4X21310   0.117   3.132  17.432 -0.2339  0.5329  5.1985
  185SLPC   H4Y21311   0.256   3.055  17.338  0.7167  0.9722 -0.1229
  185SLPC   C3521312   0.314   3.167  17.521  0.1495 -0.2900  0.1340
  185SLPC   H5X21313   0.421   3.142  17.504  0.3194  1.0586 -1.0131
  185SLPC   H5Y21314   0.285   3.164  17.628  1.8838  1.2669  0.7028
  185SLPC   C3621315   0.307   3.312  17.472 -0.4914  0.2941  0.0378
  185SLPC   H6X21316   0.317   3.310  17.362 -0.8855 -1.5083  0.0182
  185SLPC   H6Y21317   0.398   3.368  17.503  0.5125 -0.1030 -2.0465
  185SLPC   C3721318   0.179   3.379  17.517 -0.3640  0.0129  0.0458
  185SLPC   H7X21319   0.100   3.306  17.542 -1.5742  0.2336 -2.8547
  185SLPC   H7Y21320   0.157   3.450  17.435  1.1076 -0.0718 -0.4546
  185SLPC   C3821321   0.206   3.481  17.631 -0.1746  1.1103  0.6035
  185SLPC   H8X21322   0.262   3.567  17.589  0.4935  0.6975  0.6414
  185SLPC   H8Y21323   0.282   3.437  17.699 -0.2011 -0.8153 -0.5449
  185SLPC   C3921324   0.079   3.533  17.675 -0.7164 -0.8560 -0.6955
  185SLPC   H9X21325   0.014   3.447  17.703 -0.3809 -1.8367 -2.7208
  185SLPC   H9Y21326   0.026   3.586  17.593  0.9417 -0.3368 -1.4788
  185SLPC  C31021327   0.101   3.621  17.798  0.0965  0.3328  0.0003
  185SLPC  H10X21328   0.182   3.584  17.865 -0.1400 -0.5197 -0.1742
  185SLPC  H10Y21329   0.018   3.614  17.872 -0.8518  0.2062 -1.0592
  185SLPC  C31121330   0.127   3.770  17.755 -0.0855  0.2240  0.6976
  185SLPC  H11X21331   0.031   3.807  17.713  0.0539  1.1558  1.1819
  185SLPC  H11Y21332   0.200   3.777  17.671 -1.5322  0.9854 -0.5462
  185SLPC  C31221333   0.161   3.858  17.878  0.2682 -0.3828 -0.7482
  185SLPC  H12X21334   0.094   3.832  17.963  2.5964 -2.0527  0.6804
  185SLPC  H12Y21335   0.141   3.966  17.860  2.1201  0.0352 -0.4860
  185SLPC  C31321336   0.306   3.837  17.930  0.0109  0.2309 -0.1401
  185SLPC  H13X21337   0.369   3.830  17.839  0.9961 -0.3371  0.5735
  185SLPC  H13Y21338   0.318   3.742  17.986 -0.5362  1.0324  1.3861
  185SLPC  C31421339   0.360   3.940  18.036  0.1341  0.4631  0.5488
  185SLPC  H14X21340   0.276   3.943  18.109  0.6969 -1.3291  1.3172
  185SLPC  H14Y21341   0.395   4.034  17.989 -0.2101 -0.3827 -1.5284
  185SLPC  C31521342   0.473   3.886  18.130  0.4481  1.3352 -0.3074
  185SLPC  H15X21343   0.560   3.875  18.061 -0.7856  0.9122 -1.8505
  185SLPC  H15Y21344   0.460   3.786  18.177  0.1819  1.3798 -0.2848
  185SLPC  C31621345   0.505   3.992  18.239 -0.1062 -0.1724  0.3151
  185SLPC  H16X21346   0.417   3.990  18.307 -1.4437 -0.9766 -1.3852
  185SLPC  H16Y21347   0.521   4.088  18.187 -2.4554 -0.3130 -0.7950
  185SLPC  C31721348   0.630   3.949  18.315 -0.7105  0.0009  0.8820
  185SLPC  H17X21349   0.708   3.914  18.244 -0.1692  0.0409  1.4470
  185SLPC  H17Y21350   0.610   3.870  18.391 -1.0709 -1.4967 -0.7124
  185SLPC  C31821351   0.704   4.064  18.393 -0.7274 -0.2488 -0.3377
  185SLPC  H18X21352   0.778   4.022  18.465  0.1781  1.5668 -0.1512
  185SLPC  H18Y21353   0.636   4.117  18.462  1.7453 -0.6563  2.6497
  185SLPC  H18Z21354   0.750   4.133  18.319 -2.0431 -1.0438 -1.9536
  186SLPC     N21355   4.002   1.433  18.776  0.1085 -0.1792 -0.0417
  186SLPC   C1321356   3.984   1.579  18.816 -0.1744 -0.4841  0.5491
  186SLPC  H13A21357   4.057   1.608  18.889 -0.0648  2.5704 -0.6337
  186SLPC  H13B21358   4.013   1.637  18.730 -0.0636 -0.4569  0.6044
  186SLPC  H13C21359   3.882   1.599  18.845  0.4415  3.7178  0.3800
  186SLPC   C1421360   3.899   1.391  18.674 -1.0133 -0.5593 -0.2900
  186SLPC  H14A21361   3.902   1.445  18.580 -0.0932  1.2003  0.6994
  186SLPC  H14B21362   3.941   1.297  18.642  0.0004  0.5311 -2.4232
  186SLPC  H14C21363   3.800   1.382  18.717  0.1066  1.0049  2.9248
  186SLPC   C1521364   3.982   1.356  18.901  0.2388 -0.2067  0.7978
  186SLPC  H15A21365   4.068   1.374  18.964 -1.0484  1.5628  2.1459
  186SLPC  H15B21366   3.894   1.397  18.947 -0.1458  0.9193 -0.8465
  186SLPC  H15C21367   3.960   1.252  18.880  1.2388 -0.1170 -0.8856
  186SLPC   C1221368   4.142   1.423  18.720 -0.1339 -0.0678 -0.1904
  186SLPC  H12A21369   4.178   1.322  18.713  0.1551  0.0335 -0.2073
  186SLPC  H12B21370   4.211   1.466  18.791 -1.1559 -0.9356  1.3671
  186SLPC   C1121371   4.184   1.505  18.595 -0.3688  0.0474 -0.0527
  186SLPC  H11A21372   4.148   1.610  18.600  0.0994  0.2590 -0.9688
  186SLPC  H11B21373   4.144   1.461  18.501 -2.4712 -1.3411  1.3958
  186SLPC     P21374   4.408   1.634  18.634  0.0919 -0.1805 -0.0736
  186SLPC   O1321375   4.425   1.721  18.514  0.0897  0.3976 -0.0601
  186SLPC   O1421376   4.339   1.694  18.754  0.6353 -0.2721 -0.0098
  186SLPC   O1221377   4.329   1.505  18.594  0.0965 -0.5626 -0.0613
  186SLPC   O1121378   4.550   1.568  18.695  0.4981 -0.5147  0.5382
  186SLPC    C121379   4.610   1.455  18.636 -0.3398 -0.0717 -0.1473
  186SLPC    HA21380   4.581   1.460  18.529  1.1484 -2.5530 -0.7430
  186SLPC    HB21381   4.720   1.449  18.646 -0.5027 -2.3335  1.0750
  186SLPC    C221382   4.559   1.319  18.674 -0.8714 -0.0749 -0.3576
  186SLPC    HS21383   4.451   1.311  18.647 -0.7367 -2.7818 -0.3707
  186SLPC   O2121384   4.583   1.306  18.814 -0.5405 -0.5117 -0.7913
  186SLPC   C2121385   4.485   1.304  18.897 -0.8014  0.5205  0.1356
  186SLPC   O2221386   4.367   1.283  18.877  0.8062 -0.3576 -0.5318
  186SLPC   C2221387   4.545   1.321  19.037 -0.5899 -0.0597 -0.9731
  186SLPC   H2R21388   4.652   1.290  19.045  0.2528  2.6132 -0.8454
  186SLPC   H2S21389   4.536   1.429  19.060 -1.2914 -0.2501 -0.2885
  186SLPC    C321390   4.638   1.206  18.611  0.6314 -0.8501 -0.2488
  186SLPC    HX21391   4.742   1.223  18.648  0.7681  0.9618 -1.3692
  186SLPC    HY21392   4.643   1.210  18.501  0.1716 -1.2134 -0.2847
  186SLPC   O3121393   4.593   1.077  18.647  0.2824 -0.4246  0.0748
  186SLPC   C3121394   4.647   0.969  18.589  0.2721  0.3012  0.2185
  186SLPC   O3221395   4.738   0.965  18.511  0.0115 -0.5949 -0.6486
  186SLPC   C3221396   4.616   0.848  18.672 -0.3724  0.0399 -0.0470
  186SLPC   H2X21397   4.544   0.782  18.619  0.7177 -2.9065  1.8666
  186SLPC   H2Y21398   4.557   0.878  18.762  0.3651  0.0180  0.4584
  186SLPC   C2321399   4.473   1.234  19.144  0.5727  0.7206 -0.1422
  186SLPC   H3R21400   4.492   1.125  19.128 -0.3929 -0.1463  3.7038
  186SLPC   H3S21401   4.362   1.244  19.134  0.4458 -0.2404  0.2288
  186SLPC   C2421402   4.505   1.271  19.287  0.1870  0.3132 -0.2511
  186SLPC   H4R21403   4.480   1.376  19.314  4.2527  1.3564  0.1407
  186SLPC   H4S21404   4.615   1.265  19.307  0.2343  1.7220 -0.0021
  186SLPC   C2521405   4.449   1.176  19.397 -0.7287 -0.2306  0.4285
  186SLPC   H5R21406   4.338   1.169  19.394 -0.6021 -3.1397 -1.5771
  186SLPC   H5S21407   4.474   1.225  19.493 -0.4519 -0.7800  0.6370
  186SLPC   C2621408   4.497   1.031  19.373  0.6830  0.3301 -0.4549
  186SLPC   H6R21409   4.608   1.030  19.371  0.8008  3.7485 -1.4707
  186SLPC   H6S21410   4.446   0.977  19.291  0.5878 -0.7435  0.2853
  186SLPC   C2721411   4.453   0.953  19.498  0.0610  0.2144  0.2126
  186SLPC   H7R21412   4.343   0.968  19.498 -0.0097  0.1591 -2.1917
  186SLPC   H7S21413   4.502   0.997  19.587  2.3165 -3.3313  0.9271
  186SLPC   C2821414   4.483   0.807  19.495 -0.2719  0.4981 -0.5058
  186SLPC   H8R21415   4.590   0.810  19.469 -0.2069  1.3837 -0.1807
  186SLPC   H8S21416   4.419   0.763  19.416  0.8917  1.3183 -1.9568
  186SLPC   C2921417   4.461   0.737  19.629 -0.9076 -0.0190  0.9961
  186SLPC   H9R21418   4.553   0.727  19.688 -0.1962 -1.6036 -0.2956
  186SLPC  C21021419   4.343   0.691  19.674 -0.0896 -0.2874 -0.3583
  186SLPC  H10R21420   4.336   0.647  19.774  2.3386  0.1178  0.0438
  186SLPC  C21121421   4.217   0.699  19.594 -0.1066 -0.0204  0.6429
  186SLPC  H11R21422   4.214   0.601  19.542  1.8323  0.8199 -1.2384
  186SLPC  H11S21423   4.217   0.768  19.507  3.0394 -0.8269 -0.1357
  186SLPC  C21221424   4.090   0.725  19.674 -0.4661  0.1642  0.6236
  186SLPC  H12R21425   4.064   0.831  19.693  3.1836  1.3008 -0.0124
  186SLPC  C21321426   4.013   0.633  19.734  0.5352 -0.4280 -0.3703
  186SLPC  H13R21427   3.929   0.669  19.794  1.3562  0.9484 -0.0047
  186SLPC  C21421428   4.021   0.484  19.731  0.4825  0.1946  0.0578
  186SLPC  H14R21429   4.101   0.443  19.666 -0.4309 -2.7493  0.6451
  186SLPC  H14S21430   3.923   0.443  19.699 -0.0384  1.6669 -0.3195
  186SLPC  C21521431   4.038   0.436  19.875  0.4006  0.4206 -0.5986
  186SLPC  H15R21432   3.950   0.466  19.936  2.0796  2.4635  0.9736
  186SLPC  H15S21433   4.123   0.482  19.930  0.3360 -0.4069  0.2259
  186SLPC  C21621434   4.071   0.290  19.886 -0.2164  0.3270  0.2506
  186SLPC  H16R21435   4.156   0.261  19.820  0.8991  2.2174  0.7915
  186SLPC  H16S21436   3.987   0.236  19.836  1.3853 -0.4225 -1.8148
  186SLPC  C21721437   4.095   0.237  20.026  0.0032 -0.0994  0.2647
  186SLPC  H17R21438   3.998   0.261  20.075  0.0300 -0.0770  0.3062
  186SLPC  H17S21439   4.173   0.305  20.068  0.6843 -0.6226 -0.1438
  186SLPC  C21821440   4.142   0.094  20.044  0.2404  0.3068  0.8075
  186SLPC  H18R21441   4.241   0.065  20.003 -0.8873 -0.3571 -1.6530
  186SLPC  H18S21442   4.075   0.024  19.989 -1.0951  2.8220 -0.9962
  186SLPC  H18T21443   4.145   0.057  20.148  1.3086  0.0938  0.7140
  186SLPC   C3321444   4.740   0.768  18.716 -0.7892  0.5926  0.2053
  186SLPC   H3X21445   4.821   0.828  18.761  1.6528 -0.4018 -2.5150
  186SLPC   H3Y21446   4.781   0.733  18.619 -2.2319 -0.3020 -0.1141
  186SLPC   C3421447   4.693   0.641  18.792 -0.2206  0.5451 -0.1932
  186SLPC   H4X21448   4.782   0.579  18.816 -0.4035  0.1985 -0.4041
  186SLPC   H4Y21449   4.615   0.579  18.743 -0.8254 -1.3794  2.9237
  186SLPC   C3521450   4.628   0.679  18.925 -0.6966  0.1081  0.4647
  186SLPC   H5X21451   4.520   0.704  18.924 -1.2925 -1.9356  2.6792
  186SLPC   H5Y21452   4.678   0.774  18.954 -1.6096  0.5916  0.4819
  186SLPC   C3621453   4.653   0.575  19.048  0.0764 -0.5456  0.2458
  186SLPC   H6X21454   4.629   0.637  19.137  4.0485  0.9816  0.4560
  186SLPC   H6Y21455   4.759   0.545  19.058  0.6670  0.6893 -1.7250
  186SLPC   C3721456   4.562   0.451  19.047  0.0453  0.0148 -1.3691
  186SLPC   H7X21457   4.578   0.402  18.948 -0.5947 -2.3597 -0.3606
  186SLPC   H7Y21458   4.460   0.492  19.058 -0.2975 -1.2298  0.5821
  186SLPC   C3821459   4.575   0.366  19.176 -0.6686 -0.3727 -0.7888
  186SLPC   H8X21460   4.496   0.387  19.252  0.5167 -1.2315  0.7389
  186SLPC   H8Y21461   4.671   0.390  19.227 -1.3286 -0.1985  0.4150
  186SLPC   C3921462   4.573   0.212  19.153  0.3328  0.8070  0.2552
  186SLPC   H9X21463   4.666   0.190  19.096 -0.4533 -0.2727 -0.6496
  186SLPC   H9Y21464   4.484   0.181  19.094  0.3184  0.1135  0.6389
  186SLPC  C31021465   4.569   0.120  19.278  0.2824  0.1074  0.0252
  186SLPC  H10X21466   4.469   0.124  19.326  1.2149 -0.3529  2.1205
  186SLPC  H10Y21467   4.645   0.163  19.346  1.6378 -0.7818 -0.8818
  186SLPC  C31121468   4.613  -0.025  19.233 -0.6367 -0.4937 -0.0859
  186SLPC  H11X21469   4.724  -0.028  19.236 -0.6562 -1.1107  0.2209
  186SLPC  H11Y21470   4.582  -0.063  19.133  1.9523  0.1031 -1.2021
  186SLPC  C31221471   4.564  -0.127  19.344  0.0856 -0.1567 -0.3763
  186SLPC  H12X21472   4.453  -0.120  19.348  0.0039 -1.3107 -0.1892
  186SLPC  H12Y21473   4.608  -0.106  19.444 -1.6964 -2.4022  0.9801
  186SLPC  C31321474   4.594  -0.273  19.315 -0.5693  0.6255  0.0868
  186SLPC  H13X21475   4.705  -0.275  19.322 -0.5016 -0.7276 -1.0276
  186SLPC  H13Y21476   4.575  -0.311  19.212  0.2345  2.8835 -0.9481
  186SLPC  C31421477   4.525  -0.373  19.411  0.4115  0.5581  0.5856
  186SLPC  H14X21478   4.417  -0.370  19.385  0.2315 -2.7399  0.4716
  186SLPC  H14Y21479   4.534  -0.346  19.518  2.3224 -0.8465  0.8272
  186SLPC  C31521480   4.567  -0.523  19.394 -0.8709  0.3343  0.4991
  186SLPC  H15X21481   4.674  -0.516  19.367  0.1549 -0.6926  3.9212
  186SLPC  H15Y21482   4.512  -0.582  19.317 -2.7275  0.6116  1.5516
  186SLPC  C31621483   4.572  -0.607  19.515  0.0240 -0.3706 -0.2715
  186SLPC  H16X21484   4.646  -0.569  19.588 -0.5561  1.2855 -0.4984
  186SLPC  H16Y21485   4.595  -0.699  19.457 -1.2366 -0.9460  0.1263
  186SLPC  C31721486   4.439  -0.638  19.583  0.5437 -0.6962  0.1176
  186SLPC  H17X21487   4.449  -0.733  19.640  0.5786 -0.3384  0.7106
  186SLPC  H17Y21488   4.362  -0.644  19.503  1.1571 -1.9437 -0.4092
  186SLPC  C31821489   4.394  -0.529  19.676  0.4924  0.8406 -0.2989
  186SLPC  H18X21490   4.308  -0.555  19.741  0.8795  2.1498  0.7874
  186SLPC  H18Y21491   4.353  -0.442  19.621 -0.0659  0.8503  0.1206
  186SLPC  H18Z21492   4.471  -0.491  19.746 -0.4028 -1.6649  2.2122
  187SLPC     N21493   1.715   1.826  20.967 -0.8772 -0.0991  0.1491
  187SLPC   C1321494   1.778   1.747  20.855 -0.2554 -0.1201  0.8723
  187SLPC  H13A21495   1.736   1.649  20.841  3.4607 -1.9955  1.4846
  187SLPC  H13B21496   1.773   1.814  20.771 -0.6088 -0.2570  0.7831
  187SLPC  H13C21497   1.884   1.731  20.869 -0.5476 -1.9805  1.0842
  187SLPC   C1421498   1.746   1.755  21.096  0.3687  0.0183 -0.0928
  187SLPC  H14A21499   1.846   1.776  21.130  0.6523 -0.9730 -0.2756
  187SLPC  H14B21500   1.687   1.795  21.177 -1.1388 -0.4054 -0.9309
  187SLPC  H14C21501   1.741   1.648  21.080 -0.3224  0.2039 -1.2084
  187SLPC   C1521502   1.570   1.818  20.950  0.1654 -0.0063 -0.1669
  187SLPC  H15A21503   1.533   1.859  21.043 -0.8393 -1.1396 -0.0326
  187SLPC  H15B21504   1.535   1.875  20.865  0.5958 -0.7294 -0.8398
  187SLPC  H15C21505   1.552   1.712  20.944  1.3649 -0.3218  1.2039
  187SLPC   C1221506   1.761   1.971  20.971  0.6835  0.7121  0.2090
  187SLPC  H12A21507   1.760   2.025  20.878 -0.1552 -1.4583 -1.1286
  187SLPC  H12B21508   1.866   1.968  20.995  0.5770  0.4574  0.6806
  187SLPC   C1121509   1.692   2.071  21.074  0.0133  0.6359 -0.1128
  187SLPC  H11A21510   1.755   2.161  21.092  1.2853  0.5255 -3.2677
  187SLPC  H11B21511   1.687   2.020  21.172  2.8786 -1.2031 -0.8102
  187SLPC     P21512   1.559   2.186  20.898 -0.2252 -0.5089 -0.0732
  187SLPC   O1321513   1.622   2.128  20.778 -0.0832 -0.1463 -0.6545
  187SLPC   O1421514   1.421   2.226  20.892  0.4423  0.5717  0.3237
  187SLPC   O1221515   1.563   2.094  21.031 -0.2980  0.0888 -0.1759
  187SLPC   O1121516   1.645   2.312  20.929 -0.1497 -0.0055  0.3230
  187SLPC    C121517   1.608   2.405  21.030 -0.2329 -0.4700 -0.4003
  187SLPC    HA21518   1.555   2.363  21.118 -1.2950 -0.0821 -0.8436
  187SLPC    HB21519   1.701   2.449  21.072 -0.4553  0.5248 -0.9295
  187SLPC    C221520   1.523   2.526  20.970  0.3636  0.3193 -1.0564
  187SLPC    HS21521   1.424   2.480  20.947  0.1807  0.7126 -1.0576
  187SLPC   O2121522   1.598   2.588  20.868  0.3967 -0.5716  0.6653
  187SLPC   C2121523   1.529   2.640  20.760 -0.7112  0.8157  0.0254
  187SLPC   O2221524   1.410   2.643  20.746 -0.1908 -0.2218  0.1414
  187SLPC   C2221525   1.636   2.689  20.660 -0.1916  0.1348 -0.2696
  187SLPC   H2R21526   1.723   2.715  20.724 -1.6937 -2.0983  2.9656
  187SLPC   H2S21527   1.669   2.611  20.588  1.0522  1.1610 -0.8488
  187SLPC    C321528   1.503   2.627  21.084  0.2096 -0.3314 -0.0198
  187SLPC    HX21529   1.605   2.660  21.111  0.0455 -1.5687  2.3551
  187SLPC    HY21530   1.464   2.568  21.170 -1.1023  0.0739 -0.3145
  187SLPC   O3121531   1.423   2.738  21.048  0.1897  0.6133 -0.4908
  187SLPC   C3121532   1.293   2.712  21.063  0.1530 -0.3895  0.2939
  187SLPC   O3221533   1.249   2.605  21.087 -0.2455 -0.1422  0.0418
  187SLPC   C3221534   1.204   2.828  21.043  0.0524 -0.1148  0.0784
  187SLPC   H2X21535   1.099   2.792  21.043  0.2999 -0.9904 -2.1104
  187SLPC   H2Y21536   1.221   2.867  20.941  1.2877  0.4744  0.4898
  187SLPC   C2321537   1.579   2.808  20.580 -0.2430  0.2823 -0.5842
  187SLPC   H3R21538   1.501   2.762  20.516  0.0040 -3.0469  1.2762
  187SLPC   H3S21539   1.662   2.850  20.518 -0.3424  1.4988  0.0779
  187SLPC   C2421540   1.530   2.924  20.669 -0.6771  0.5746  0.0799
  187SLPC   H4R21541   1.454   2.886  20.740 -0.9520 -2.5019 -1.6664
  187SLPC   H4S21542   1.487   2.999  20.599 -0.4279  2.2783  1.6705
  187SLPC   C2521543   1.640   2.995  20.755  0.6396 -0.0556  0.2526
  187SLPC   H5R21544   1.685   2.925  20.829 -0.3134 -0.2449  0.6768
  187SLPC   H5S21545   1.579   3.058  20.823  0.5959  0.3387 -0.1464
  187SLPC   C2621546   1.735   3.072  20.673 -0.4555  0.2112 -0.6990
  187SLPC   H6R21547   1.780   3.016  20.588  3.1734 -0.1742  1.2642
  187SLPC   H6S21548   1.821   3.095  20.739 -2.2808 -1.4386  2.4666
  187SLPC   C2721549   1.676   3.206  20.611 -0.0706  0.4245 -0.6102
  187SLPC   H7R21550   1.657   3.281  20.691 -0.1575 -0.9830  0.7385
  187SLPC   H7S21551   1.581   3.190  20.556 -0.7418  0.3278  0.5337
  187SLPC   C2821552   1.766   3.266  20.501  0.0559  0.5752 -0.1233
  187SLPC   H8R21553   1.711   3.355  20.462  0.2888  1.0231  0.5542
  187SLPC   H8S21554   1.771   3.192  20.418 -0.7386  1.1339 -0.6970
  187SLPC   C2921555   1.908   3.302  20.536 -0.1443 -0.0931  0.5933
  187SLPC   H9R21556   1.975   3.224  20.577 -1.0155 -1.1036  0.1369
  187SLPC  C21021557   1.958   3.425  20.531 -0.2982  0.3336  0.4903
  187SLPC  H10R21558   2.044   3.435  20.598 -1.2285  0.4003  1.7099
  187SLPC  C21121559   1.907   3.550  20.468 -0.1541  0.1028 -0.2149
  187SLPC  H11R21560   1.901   3.633  20.541  0.5127 -0.9465  1.0884
  187SLPC  H11S21561   1.805   3.528  20.429 -0.9806  0.8443  1.4458
  187SLPC  C21221562   1.983   3.596  20.345 -0.0288 -0.1922 -0.5718
  187SLPC  H12R21563   2.056   3.675  20.369 -1.0487 -0.0155  2.4100
  187SLPC  C21321564   1.973   3.557  20.219 -0.3255 -0.1556  0.2070
  187SLPC  H13R21565   2.036   3.593  20.136 -0.3725 -0.7394 -0.0910
  187SLPC  C21421566   1.883   3.448  20.166  0.3724 -0.1866 -0.3211
  187SLPC  H14R21567   1.813   3.399  20.238 -0.8819  0.9881 -0.6900
  187SLPC  H14S21568   1.952   3.378  20.115 -0.3476 -0.4379 -0.9561
  187SLPC  C21521569   1.774   3.499  20.063  0.1674 -0.2427 -0.8214
  187SLPC  H15R21570   1.722   3.581  20.116 -2.4682 -2.1762 -0.2222
  187SLPC  H15S21571   1.700   3.420  20.038  1.2565 -1.3879 -0.5806
  187SLPC  C21621572   1.843   3.538  19.935 -0.4048 -0.0509 -0.4216
  187SLPC  H16R21573   1.898   3.447  19.902 -0.3512 -0.8472  1.6992
  187SLPC  H16S21574   1.925   3.612  19.943 -0.1279 -0.4361  0.3368
  187SLPC  C21721575   1.744   3.556  19.826  0.4200 -0.2114  0.0050
  187SLPC  H17R21576   1.793   3.619  19.748  3.1581 -2.3453 -0.1525
  187SLPC  H17S21577   1.657   3.614  19.865  0.0947 -0.6010 -0.1400
  187SLPC  C21821578   1.681   3.429  19.764 -0.0161  0.3147  0.5854
  187SLPC  H18R21579   1.616   3.443  19.675 -1.5000  1.9196  1.8514
  187SLPC  H18S21580   1.621   3.376  19.841  0.1000  0.9406  1.1181
  187SLPC  H18T21581   1.760   3.358  19.734 -0.0477  0.4094  0.2783
  187SLPC   C3321582   1.224   2.940  21.149  0.6644 -0.3052  0.6639
  187SLPC   H3X21583   1.131   2.999  21.143  0.7665 -0.2036  0.0210
  187SLPC   H3Y21584   1.307   3.011  21.129 -0.9908  1.6218  0.3282
  187SLPC   C3421585   1.232   2.885  21.295 -0.1217 -0.0306  0.3879
  187SLPC   H4X21586   1.316   2.813  21.303  0.1225  0.0324 -1.2154
  187SLPC   H4Y21587   1.147   2.820  21.321  1.2816 -2.0758  0.1179
  187SLPC   C3521588   1.273   2.990  21.396 -0.5859 -0.0582  0.0779
  187SLPC   H5X21589   1.370   3.033  21.362 -1.4496 -0.3635 -3.1458
  187SLPC   H5Y21590   1.285   2.947  21.497 -2.0979 -0.1866  0.2170
  187SLPC   C3621591   1.185   3.117  21.404  0.3230  0.7609 -0.3723
  187SLPC   H6X21592   1.172   3.172  21.308 -1.6372 -0.0265 -0.5976
  187SLPC   H6Y21593   1.246   3.182  21.471  1.4218 -0.8212  0.2269
  187SLPC   C3721594   1.047   3.081  21.468 -0.3695 -0.4617 -0.1969
  187SLPC   H7X21595   0.988   3.005  21.412  1.9537 -1.4879 -1.3671
  187SLPC   H7Y21596   1.053   3.037  21.570 -3.1791  2.1845  1.3084
  187SLPC   C3821597   0.971   3.216  21.486  0.0605  0.7859 -0.7689
  187SLPC   H8X21598   0.880   3.210  21.549  1.4389  0.6048  1.3043
  187SLPC   H8Y21599   0.943   3.243  21.382  0.3959 -0.3373 -1.1648
  187SLPC   C3921600   1.050   3.341  21.539  0.4567  0.6006 -0.0438
  187SLPC   H9X21601   0.980   3.428  21.536 -0.0567  0.2621  1.5531
  187SLPC   H9Y21602   1.129   3.369  21.466  0.3239 -1.2813 -0.9656
  187SLPC  C31021603   1.103   3.317  21.681 -0.2047  0.1358 -0.1174
  187SLPC  H10X21604   1.187   3.246  21.663  0.7332  1.6404 -1.9958
  187SLPC  H10Y21605   1.024   3.255  21.729 -0.1408  0.4216  0.3618
  187SLPC  C31121606   1.155   3.438  21.757  0.1353 -0.1172 -0.1129
  187SLPC  H11X21607   1.094   3.530  21.760  1.1137  0.5418  2.1398
  187SLPC  H11Y21608   1.251   3.466  21.707  1.3747  0.2011  2.2717
  187SLPC  C31221609   1.182   3.408  21.903  0.8140 -0.3451  1.1681
  187SLPC  H12X21610   1.231   3.310  21.920 -1.1038 -1.5116  0.2963
  187SLPC  H12Y21611   1.081   3.398  21.946 -1.3856  0.7469 -3.1372
  187SLPC  C31321612   1.279   3.506  21.972  0.2201 -0.1557  0.1651
  187SLPC  H13X21613   1.299   3.595  21.908  1.5826  1.4129  2.5779
  187SLPC  H13Y21614   1.377   3.461  21.998  0.1556 -0.7246 -0.5489
  187SLPC  C31421615   1.215   3.544  22.108 -0.6578 -0.1643  0.3662
  187SLPC  H14X21616   1.205   3.452  22.168  1.6728 -1.6660 -1.3918
  187SLPC  H14Y21617   1.113   3.585  22.092 -0.1297  0.7634 -0.8617
  187SLPC  C31521618   1.302   3.642  22.199 -0.0070 -0.3935 -0.6584
  187SLPC  H15X21619   1.247   3.659  22.294  2.3445 -0.5133  0.8120
  187SLPC  H15Y21620   1.301   3.745  22.156 -1.0120  0.2992  0.9210
  187SLPC  C31621621   1.451   3.608  22.223 -0.2642 -0.1511  0.8083
  187SLPC  H16X21622   1.493   3.683  22.293  2.1134 -0.0913 -0.5619
  187SLPC  H16Y21623   1.504   3.621  22.126  0.7340 -1.8067  1.0725
  187SLPC  C31721624   1.477   3.463  22.281  0.1586 -1.1316  0.2076
  187SLPC  H17X21625   1.445   3.388  22.205  1.3433 -1.9813  0.5172
  187SLPC  H17Y21626   1.414   3.456  22.372 -0.3546 -2.4099 -0.2195
  187SLPC  C31821627   1.626   3.440  22.311 -0.0279 -0.3615  0.7018
  187SLPC  H18X21628   1.670   3.449  22.209 -1.7759 -0.8530 -0.1147
  187SLPC  H18Y21629   1.650   3.338  22.348  0.1538 -2.0580 -3.5438
  187SLPC  H18Z21630   1.661   3.514  22.386  0.2680 -0.6156  0.8163
  188SLPC     N21631   0.844   0.325  15.344  0.1426  0.7042  0.0121
  188SLPC   C1321632   0.935   0.438  15.308 -0.4261 -0.1040  0.6978
  188SLPC  H13A21633   0.889   0.535  15.308  0.2624  0.2307  0.2668
  188SLPC  H13B21634   1.006   0.453  15.388 -1.7485 -0.5759  2.0129
  188SLPC  H13C21635   0.990   0.410  15.219  0.3606 -1.7938  1.6649
  188SLPC   C1421636   0.757   0.288  15.226  0.8004  0.3821 -0.0720
  188SLPC  H14A21637   0.673   0.230  15.261  0.2010  1.2684  0.0118
  188SLPC  H14B21638   0.705   0.378  15.196 -0.8580  0.5379  2.8371
  188SLPC  H14C21639   0.806   0.240  15.143 -1.2340  1.0900 -1.7906
  188SLPC   C1521640   0.761   0.377  15.460  0.2206  0.4591 -0.4895
  188SLPC  H15A21641   0.828   0.385  15.544  0.3313 -0.7120 -0.4425
  188SLPC  H15B21642   0.711   0.470  15.438 -0.9189 -0.3523 -1.4833
  188SLPC  H15C21643   0.678   0.310  15.479  1.9242 -1.3422  0.9996
  188SLPC   C1221644   0.921   0.197  15.380  0.0411 -0.4627  0.2775
  188SLPC  H12A21645   0.861   0.117  15.421 -0.5454  0.0014  0.3347
  188SLPC  H12B21646   0.991   0.224  15.458  1.4382 -1.3320 -0.6367
  188SLPC   C1121647   1.011   0.135  15.265 -0.3417  0.0924 -0.0217
  188SLPC  H11A21648   0.957   0.096  15.176  0.5102 -2.7985  0.6309
  188SLPC  H11B21649   1.055   0.041  15.306  0.8636  0.8778  0.5421
  188SLPC     P21650   1.257   0.216  15.287  0.0002  0.0688  0.0834
  188SLPC   O1321651   1.332   0.121  15.198 -0.0046 -0.2018 -0.2881
  188SLPC   O1421652   1.315   0.351  15.302  0.1581  0.1934  0.1313
  188SLPC   O1221653   1.113   0.229  15.229  0.6894 -0.3937  0.3219
  188SLPC   O1121654   1.230   0.153  15.431  1.0148 -0.4664  0.1044
  188SLPC    C121655   1.338   0.113  15.510 -0.3479  0.4267  0.8399
  188SLPC    HA21656   1.364   0.005  15.497  0.2086  0.6689 -0.1555
  188SLPC    HB21657   1.434   0.161  15.482  0.7463 -2.0125  0.1328
  188SLPC    C221658   1.320   0.140  15.661 -0.6245 -1.2946  0.5346
  188SLPC    HS21659   1.403   0.102  15.724  0.4686  2.2607  1.4397
  188SLPC   O2121660   1.194   0.084  15.706 -0.5475 -0.0904 -0.0677
  188SLPC   C2121661   1.197  -0.049  15.712  0.4140  0.4376 -0.2814
  188SLPC   O2221662   1.294  -0.119  15.699 -0.3611 -0.7243 -0.0851
  188SLPC   C2221663   1.061  -0.113  15.733  0.2394 -0.3219 -0.0020
  188SLPC   H2R21664   0.994  -0.035  15.777 -0.8929 -1.1280 -0.2619
  188SLPC   H2S21665   1.025  -0.142  15.632 -0.2781  2.0637 -0.5675
  188SLPC    C321666   1.320   0.295  15.691 -0.6128 -0.9967 -0.7958
  188SLPC    HX21667   1.221   0.342  15.672  0.7595  2.2040 -0.7900
  188SLPC    HY21668   1.404   0.329  15.626 -0.8311 -1.6311 -1.4299
  188SLPC   O3121669   1.365   0.331  15.826  0.3018 -0.1279  0.1932
  188SLPC   C3121670   1.279   0.360  15.919  0.3199  0.5728  0.0737
  188SLPC   O3221671   1.157   0.361  15.905 -0.8084  0.2468 -0.4842
  188SLPC   C3221672   1.345   0.379  16.050 -0.3464 -0.3139  0.8816
  188SLPC   H2X21673   1.451   0.348  16.036 -0.9863 -2.5996  0.7659
  188SLPC   H2Y21674   1.304   0.308  16.125 -1.8517 -0.8769 -0.4292
  188SLPC   C2321675   1.057  -0.232  15.827  0.0543 -0.2116 -1.0151
  188SLPC   H3R21676   1.153  -0.281  15.853 -0.4863 -0.1819  1.2977
  188SLPC   H3S21677   0.998  -0.311  15.776  0.8032 -0.9019 -0.8425
  188SLPC   C2421678   0.982  -0.195  15.958  0.1482  0.2740 -0.6144
  188SLPC   H4R21679   0.974  -0.270  16.039  1.0682  2.0243  1.1801
  188SLPC   H4S21680   0.876  -0.167  15.939 -0.4856  0.3775  2.5229
  188SLPC   C2521681   1.040  -0.073  16.038 -0.1637  0.0413  0.7699
  188SLPC   H5R21682   0.970   0.013  16.030 -2.0574 -1.2226  2.7089
  188SLPC   H5S21683   1.139  -0.041  15.999 -0.7691  1.4594  0.3440
  188SLPC   C2621684   1.063  -0.104  16.188 -0.4576  0.2245  0.0048
  188SLPC   H6R21685   1.111  -0.202  16.206  0.7723  0.6759 -0.6784
  188SLPC   H6S21686   0.960  -0.102  16.230 -0.2766 -2.8883  0.8511
  188SLPC   C2721687   1.156   0.011  16.245  0.2774 -0.3241  0.1320
  188SLPC   H7R21688   1.107   0.109  16.225  0.3649  0.4402  3.1536
  188SLPC   H7S21689   1.249   0.017  16.185  1.6460  1.1930  2.2623
  188SLPC   C2821690   1.192   0.003  16.393  0.4847  1.0640 -0.1641
  188SLPC   H8R21691   1.254  -0.087  16.410 -1.9628 -0.4570  1.3557
  188SLPC   H8S21692   1.104  -0.018  16.457  0.1232  0.5591 -0.8096
  188SLPC   C2921693   1.264   0.132  16.424 -0.2297  0.0602  0.1522
  188SLPC   H9R21694   1.315   0.182  16.340  1.2590 -0.2552  0.8330
  188SLPC  C21021695   1.300   0.187  16.538 -0.3876 -0.0302 -0.3774
  188SLPC  H10R21696   1.351   0.285  16.543 -0.0783 -0.2055 -0.0533
  188SLPC  C21121697   1.260   0.141  16.673 -0.4594  0.0892  0.3968
  188SLPC  H11R21698   1.153   0.111  16.671  0.0893 -2.6244  3.2089
  188SLPC  H11S21699   1.264   0.234  16.733  0.4747  0.3536 -0.0488
  188SLPC  C21221700   1.337   0.027  16.735  0.3433  0.6719  0.0727
  188SLPC  H12R21701   1.422  -0.007  16.674 -1.2703 -0.9325 -1.3780
  188SLPC  C21321702   1.305  -0.033  16.846 -0.4694  0.2821 -0.0137
  188SLPC  H13R21703   1.373  -0.112  16.882 -2.8626 -1.8446  0.1912
  188SLPC  C21421704   1.195  -0.005  16.950 -0.4286 -0.5805  0.7934
  188SLPC  H14R21705   1.204  -0.084  17.028  2.7191 -3.0571 -1.7343
  188SLPC  H14S21706   1.094  -0.030  16.911 -0.3152  0.4619 -0.2235
  188SLPC  C21521707   1.184   0.138  17.008 -0.3934 -0.0539 -0.5836
  188SLPC  H15R21708   1.102   0.189  16.953 -0.3168 -0.5775 -1.1993
  188SLPC  H15S21709   1.282   0.186  16.989  0.5098 -1.9737 -0.9853
  188SLPC  C21621710   1.157   0.156  17.158 -0.2403  0.3807  0.1958
  188SLPC  H16R21711   1.179   0.259  17.191  1.4793  0.1613 -0.1790
  188SLPC  H16S21712   1.241   0.110  17.214  0.2969  2.1902  0.9453
  188SLPC  C21721713   1.025   0.092  17.211 -0.3495 -0.1945  0.0416
  188SLPC  H17R21714   1.024   0.091  17.323 -0.0228 -0.7586  0.0482
  188SLPC  H17S21715   1.043  -0.014  17.182  1.1227 -1.2789  4.1539
  188SLPC  C21821716   0.888   0.149  17.166  0.7162 -0.4768 -0.1764
  188SLPC  H18R21717   0.806   0.086  17.206 -0.4213  1.7564  1.1495
  188SLPC  H18S21718   0.887   0.139  17.055 -2.6800 -1.1487 -0.1970
  188SLPC  H18T21719   0.873   0.248  17.214 -1.2512 -0.0106 -1.6388
  188SLPC   C3321720   1.328   0.519  16.125  0.2477  0.1418  0.4253
  188SLPC   H3X21721   1.224   0.533  16.160  0.4372 -1.3799  1.7340
  188SLPC   H3Y21722   1.342   0.603  16.054 -0.1336 -1.5402 -1.7356
  188SLPC   C3421723   1.412   0.536  16.253  0.2368 -0.0738 -0.8205
  188SLPC   H4X21724   1.404   0.444  16.315 -0.2632  2.6894  3.6413
  188SLPC   H4Y21725   1.359   0.612  16.314 -1.1603  0.4406 -2.5835
  188SLPC   C3521726   1.559   0.571  16.242 -0.1551 -0.4054 -0.4086
  188SLPC   H5X21727   1.561   0.670  16.191  1.0259  0.5316  1.3246
  188SLPC   H5Y21728   1.603   0.507  16.163 -1.2606  0.6400 -1.9197
  188SLPC   C3621729   1.647   0.577  16.364 -0.3748 -0.6218 -0.9032
  188SLPC   H6X21730   1.592   0.654  16.423  0.1540 -0.2926 -0.8367
  188SLPC   H6Y21731   1.748   0.618  16.343  0.0179 -0.9606  0.2509
  188SLPC   C3721732   1.647   0.443  16.444  0.1579 -0.3617 -0.1039
  188SLPC   H7X21733   1.673   0.375  16.360  1.1474 -0.5884  0.3767
  188SLPC   H7Y21734   1.546   0.422  16.486  0.8756 -0.6200  1.5543
  188SLPC   C3821735   1.753   0.436  16.546  0.0966 -1.3476 -0.0582
  188SLPC   H8X21736   1.714   0.492  16.634  1.1385  0.3642 -0.6415
  188SLPC   H8Y21737   1.845   0.483  16.504 -0.4815  4.2169  3.7706
  188SLPC   C3921738   1.798   0.293  16.580  0.0963  0.5526 -0.2708
  188SLPC   H9X21739   1.827   0.240  16.488  0.0077  0.8087 -0.4485
  188SLPC   H9Y21740   1.714   0.229  16.617  1.3620 -0.9613  0.0749
  188SLPC  C31021741   1.916   0.281  16.673  0.1239  0.4706  0.2612
  188SLPC  H10X21742   1.897   0.339  16.767  0.0829  1.1355 -0.1499
  188SLPC  H10Y21743   2.000   0.325  16.616  1.0506  0.9748  1.9355
  188SLPC  C31121744   1.939   0.130  16.712 -0.0499 -0.6459  0.1895
  188SLPC  H11X21745   1.943   0.078  16.614 -1.3464  0.3625 -0.4398
  188SLPC  H11Y21746   1.856   0.095  16.777  1.6464 -2.0002  1.6944
  188SLPC  C31221747   2.065   0.104  16.792 -0.1574  0.0162 -0.3750
  188SLPC  H12X21748   2.056   0.142  16.896  0.8209  0.7521 -0.5488
  188SLPC  H12Y21749   2.155   0.148  16.743 -0.1261 -0.6698 -0.9442
  188SLPC  C31321750   2.095  -0.045  16.808  0.9340 -0.6835  0.4333
  188SLPC  H13X21751   1.996  -0.084  16.841 -1.0027  2.8171 -0.7063
  188SLPC  H13Y21752   2.173  -0.057  16.887  0.7233 -0.5675  0.6613
  188SLPC  C31421753   2.151  -0.113  16.686 -0.3008  0.3496  0.0241
  188SLPC  H14X21754   2.086  -0.102  16.596 -0.8750  0.7601  0.4865
  188SLPC  H14Y21755   2.144  -0.222  16.709  0.3705  0.5830  1.4053
  188SLPC  C31521756   2.297  -0.075  16.657 -0.9483 -0.8158  0.0640
  188SLPC  H15X21757   2.356  -0.092  16.749  0.6316 -0.5465 -0.8572
  188SLPC  H15Y21758   2.306   0.032  16.630  0.3251 -0.4281  1.8541
  188SLPC  C31621759   2.356  -0.175  16.559 -0.0595  0.6492  0.7327
  188SLPC  H16X21760   2.304  -0.175  16.461  1.2592 -4.0527 -0.2314
  188SLPC  H16Y21761   2.339  -0.274  16.607 -0.9285  0.2789 -0.2833
  188SLPC  C31721762   2.507  -0.158  16.547  0.1910  0.2713  0.1470
  188SLPC  H17X21763   2.555  -0.198  16.638 -1.7113 -1.5773  0.4211
  188SLPC  H17Y21764   2.524  -0.048  16.551 -0.8431  0.4335  0.5791
  188SLPC  C31821765   2.551  -0.220  16.414 -0.0848  0.1564  0.1501
  188SLPC  H18X21766   2.539  -0.330  16.411 -1.4364  0.2115  1.9843
  188SLPC  H18Y21767   2.656  -0.199  16.383  0.5265 -3.6366 -0.7865
  188SLPC  H18Z21768   2.487  -0.174  16.337  0.7082  1.6916  0.3562
  189SLPC     N21769   0.875   2.316  16.415 -0.1927 -0.6825 -0.1053
  189SLPC   C1321770   0.863   2.458  16.369  0.5764 -0.3961 -0.3308
  189SLPC  H13A21771   0.846   2.474  16.264  3.7594  1.1035 -0.7392
  189SLPC  H13B21772   0.804   2.521  16.434 -0.5334 -3.1796  1.5786
  189SLPC  H13C21773   0.962   2.500  16.374 -0.1330  1.2305  0.8122
  189SLPC   C1421774   0.975   2.325  16.529  0.0069  0.4943  1.2153
  189SLPC  H14A21775   0.932   2.395  16.599 -0.9602 -0.1185  1.2607
  189SLPC  H14B21776   0.992   2.226  16.569  2.7176  1.3392  2.3832
  189SLPC  H14C21777   1.068   2.366  16.492 -0.1303  0.1677  0.4912
  189SLPC   C1521778   0.921   2.227  16.306  0.4872  0.0075 -0.2864
  189SLPC  H15A21779   1.017   2.263  16.271  0.0940  0.9642 -0.4169
  189SLPC  H15B21780   0.924   2.123  16.335 -1.7101 -0.1658 -0.4564
  189SLPC  H15C21781   0.852   2.227  16.222 -0.1170  1.4505  0.1767
  189SLPC   C1221782   0.745   2.269  16.480  0.4988 -0.0658 -0.1672
  189SLPC  H12A21783   0.662   2.290  16.413 -0.5474  1.1687  1.4351
  189SLPC  H12B21784   0.721   2.330  16.566  1.1675 -1.2433  0.8681
  189SLPC   C1121785   0.730   2.130  16.527 -0.0397  0.4275 -0.6841
  189SLPC  H11A21786   0.746   2.052  16.449 -2.7711 -1.0681  0.1382
  189SLPC  H11B21787   0.625   2.121  16.561  0.1791 -0.8309 -0.3032
  189SLPC     P21788   0.771   2.116  16.791 -0.1479  0.1051  0.0798
  189SLPC   O1321789   0.646   2.039  16.805 -0.5043 -0.5564 -0.5123
  189SLPC   O1421790   0.880   2.086  16.884 -0.2135  0.4824  0.5820
  189SLPC   O1221791   0.816   2.096  16.642 -0.4036  0.1362  0.1236
  189SLPC   O1121792   0.750   2.270  16.792 -0.2071 -0.2601 -0.5306
  189SLPC    C121793   0.633   2.342  16.838 -0.1666  0.3577  0.7210
  189SLPC    HA21794   0.542   2.308  16.783 -0.4347 -0.9804  1.9299
  189SLPC    HB21795   0.621   2.324  16.947  3.2072 -0.5034  1.0441
  189SLPC    C221796   0.646   2.495  16.814 -0.6959 -0.2824  0.4318
  189SLPC    HS21797   0.692   2.502  16.714  1.0468  0.4021  1.2442
  189SLPC   O2121798   0.735   2.557  16.913 -0.1730  0.0076  0.3106
  189SLPC   C2121799   0.778   2.688  16.895  0.2698  0.3277  0.4001
  189SLPC   O2221800   0.770   2.745  16.788 -0.0058  0.1032 -0.3252
  189SLPC   C2221801   0.828   2.754  17.032 -0.0930 -0.1668 -0.2216
  189SLPC   H2R21802   0.748   2.791  17.099 -0.8062 -2.8157  0.5268
  189SLPC   H2S21803   0.891   2.678  17.083  1.1056  0.6587 -0.4274
  189SLPC    C321804   0.505   2.557  16.812  0.1466  0.1785 -0.3104
  189SLPC    HX21805   0.435   2.491  16.756 -0.0851 -0.4498  0.6883
  189SLPC    HY21806   0.513   2.656  16.762 -0.9589  0.3232 -0.2248
  189SLPC   O3121807   0.459   2.590  16.947 -0.1601  0.3184  0.0192
  189SLPC   C3121808   0.369   2.498  16.992 -0.3217 -0.7337 -0.4097
  189SLPC   O3221809   0.355   2.384  16.955 -0.6228  0.9215 -0.2940
  189SLPC   C3221810   0.292   2.556  17.119  0.8811 -0.4933 -0.0421
  189SLPC   H2X21811   0.356   2.640  17.154  2.0034 -0.7340 -1.3937
  189SLPC   H2Y21812   0.283   2.465  17.181  0.2544  1.0470  2.2467
  189SLPC   C2321813   0.908   2.884  17.015  0.3136 -0.0061  0.0695
  189SLPC   H3R21814   0.851   2.947  16.943  0.6574  1.2246  0.8318
  189SLPC   H3S21815   1.007   2.863  16.969 -0.8320  0.1142 -2.6189
  189SLPC   C2421816   0.931   2.959  17.147 -0.0178 -0.4946 -1.0113
  189SLPC   H4R21817   0.839   3.012  17.178  0.5506  0.0267 -0.2110
  189SLPC   H4S21818   1.004   3.042  17.138 -2.6009  1.8880 -1.0695
  189SLPC   C2521819   0.992   2.875  17.267  0.7991 -0.0977 -0.2864
  189SLPC   H5R21820   1.076   2.814  17.228  0.1193 -1.3141  0.0817
  189SLPC   H5S21821   0.914   2.799  17.290 -0.6414  0.7692 -2.1019
  189SLPC   C2621822   1.038   2.965  17.381  0.3452 -0.2315 -0.3162
  189SLPC   H6R21823   0.953   3.019  17.426 -0.0431 -1.6257  0.6825
  189SLPC   H6S21824   1.100   3.036  17.322 -2.2698  1.6178 -0.9922
  189SLPC   C2721825   1.110   2.886  17.491 -0.0739  0.2457 -0.1894
  189SLPC   H7R21826   1.196   2.822  17.463 -0.7311 -0.1067 -1.4507
  189SLPC   H7S21827   1.026   2.833  17.541  0.3334 -0.2548 -0.0378
  189SLPC   C2821828   1.173   2.978  17.598  0.2905  0.2364  0.3104
  189SLPC   H8R21829   1.083   3.041  17.616  0.3704  0.4947 -0.1611
  189SLPC   H8S21830   1.259   3.034  17.555  0.2432  1.5576  1.8479
  189SLPC   C2921831   1.222   2.893  17.710 -0.0057  0.5492 -0.7846
  189SLPC   H9R21832   1.227   2.785  17.686  0.0679  0.7696 -1.8024
  189SLPC  C21021833   1.269   2.932  17.830  0.6707  0.0158 -0.1850
  189SLPC  H10R21834   1.305   2.854  17.899  0.2717  0.5915  0.6897
  189SLPC  C21121835   1.260   3.070  17.895 -0.0703  0.0128  0.0968
  189SLPC  H11R21836   1.154   3.103  17.903  0.9147  3.2442  1.2032
  189SLPC  H11S21837   1.304   3.151  17.832  1.5151 -0.0017  1.1289
  189SLPC  C21221838   1.322   3.057  18.031  0.4573  0.4859 -0.1350
  189SLPC  H12R21839   1.412   2.995  18.044 -1.5654 -1.9349  5.3482
  189SLPC  C21321840   1.267   3.089  18.146 -0.2080  0.5606  0.5625
  189SLPC  H13R21841   1.320   3.054  18.236  1.3161 -1.5423 -1.0397
  189SLPC  C21421842   1.135   3.166  18.157 -0.1889 -0.2028 -0.2365
  189SLPC  H14R21843   1.105   3.224  18.067  2.5397  3.4619  0.9380
  189SLPC  H14S21844   1.139   3.234  18.245 -1.2623 -0.0982 -0.2559
  189SLPC  C21521845   1.021   3.066  18.195 -0.1811 -0.2087 -0.2712
  189SLPC  H15R21846   1.004   2.982  18.124  1.5899 -0.0267 -0.9623
  189SLPC  H15S21847   0.925   3.121  18.199 -0.8439 -1.3587  0.1478
  189SLPC  C21621848   1.041   3.009  18.333  0.4556  0.2251  0.2236
  189SLPC  H16R21849   1.065   3.099  18.394  2.8748  0.9853 -1.6763
  189SLPC  H16S21850   1.130   2.943  18.343  1.9031  1.9495 -0.7445
  189SLPC  C21721851   0.921   2.931  18.392  0.0852  0.4071 -0.8240
  189SLPC  H17R21852   0.836   3.000  18.402  0.7340  0.9725  1.3049
  189SLPC  H17S21853   0.941   2.898  18.496 -0.7919  1.8552 -0.1813
  189SLPC  C21821854   0.878   2.811  18.304  0.0211  0.5625 -0.0268
  189SLPC  H18R21855   0.793   2.755  18.348 -0.2377  2.1656  1.6706
  189SLPC  H18S21856   0.965   2.744  18.286 -1.4967 -1.3482 -0.4981
  189SLPC  H18T21857   0.847   2.846  18.203  2.4708  2.2728 -0.2815
  189SLPC   C3321858   0.143   2.603  17.099 -0.0180  0.0925  0.3882
  189SLPC   H3X21859   0.087   2.612  17.194 -1.5369 -2.5768 -0.1510
  189SLPC   H3Y21860   0.081   2.522  17.056 -0.3212  0.9547 -0.8411
  189SLPC   C3421861   0.139   2.719  17.007  0.3758  0.0943 -1.0288
  189SLPC   H4X21862   0.150   2.685  16.901 -1.6471  1.9638 -1.9313
  189SLPC   H4Y21863   0.221   2.791  17.027  3.0450 -2.8017 -0.8098
  189SLPC   C3521864   0.003   2.799  17.016 -0.1983  0.0106 -0.1951
  189SLPC   H5X21865  -0.084   2.731  17.032 -0.2536  0.3816  1.2140
  189SLPC   H5Y21866  -0.004   2.854  16.920 -0.7724  2.1825  1.0378
  189SLPC   C3621867   0.010   2.906  17.125  0.1582  0.6904 -0.7761
  189SLPC   H6X21868   0.100   2.965  17.098  0.6926 -0.5569 -1.8777
  189SLPC   H6Y21869   0.029   2.854  17.222  3.3879 -0.4907 -1.8995
  189SLPC   C3721870  -0.118   2.994  17.134 -0.7992  0.8174  0.4999
  189SLPC   H7X21871  -0.199   2.946  17.192  0.1124 -0.4275  0.7860
  189SLPC   H7Y21872  -0.162   3.001  17.032  1.9587  0.4069 -0.8333
  189SLPC   C3821873  -0.082   3.128  17.196  0.1883  0.2380 -0.1553
  189SLPC   H8X21874  -0.015   3.187  17.130  1.2894 -0.8417 -0.0282
  189SLPC   H8Y21875  -0.049   3.116  17.301 -0.7071 -0.3844  0.0662
  189SLPC   C3921876  -0.209   3.210  17.204  0.5945 -0.4125 -0.4840
  189SLPC   H9X21877  -0.294   3.153  17.247 -0.4323  0.3966 -1.3426
  189SLPC   H9Y21878  -0.236   3.231  17.098  1.0034  1.1622 -0.2994
  189SLPC  C31021879  -0.180   3.340  17.289 -0.9156  0.4024 -0.5084
  189SLPC  H10X21880  -0.102   3.398  17.234 -0.8696 -0.1280 -1.0094
  189SLPC  H10Y21881  -0.144   3.310  17.390 -2.3337 -0.3119 -0.1893
  189SLPC  C31121882  -0.311   3.414  17.312 -0.7985 -0.1326 -0.0690
  189SLPC  H11X21883  -0.385   3.351  17.367  2.7464 -4.5201  0.2959
  189SLPC  H11Y21884  -0.353   3.447  17.215  1.6231 -1.5485 -1.6856
  189SLPC  C31221885  -0.297   3.553  17.390  0.6298  0.3280  0.5520
  189SLPC  H12X21886  -0.282   3.536  17.499  0.4352 -1.4532  0.3169
  189SLPC  H12Y21887  -0.398   3.599  17.385 -0.2970 -1.5398  1.4075
  189SLPC  C31321888  -0.179   3.641  17.338  0.1829 -0.6493 -1.0322
  189SLPC  H13X21889  -0.189   3.626  17.228 -0.1117 -1.3573 -0.9166
  189SLPC  H13Y21890  -0.086   3.599  17.381 -0.4956 -1.4293 -0.2813
  189SLPC  C31421891  -0.205   3.791  17.385 -0.3440  0.2374  0.3745
  189SLPC  H14X21892  -0.315   3.808  17.395 -0.0624  1.6327  1.4130
  189SLPC  H14Y21893  -0.171   3.858  17.304  0.7148 -1.2374 -0.4388
  189SLPC  C31521894  -0.135   3.829  17.518  0.2645 -0.2183  0.0770
  189SLPC  H15X21895  -0.032   3.866  17.499  0.4940 -1.3281 -0.9381
  189SLPC  H15Y21896  -0.141   3.738  17.582 -0.2540 -1.2671 -1.4134
  189SLPC  C31621897  -0.199   3.954  17.590  0.4251  0.0561 -0.0749
  189SLPC  H16X21898  -0.147   3.966  17.687 -0.6648  0.9175  0.4250
  189SLPC  H16Y21899  -0.307   3.930  17.604 -0.6917  1.3061 -4.6273
  189SLPC  C31721900  -0.195   4.078  17.503  0.3368 -0.3462  0.0565
  189SLPC  H17X21901  -0.231   4.064  17.399  3.0266  2.0307 -1.3256
  189SLPC  H17Y21902  -0.089   4.101  17.482  0.3688 -0.3230  0.2402
  189SLPC  C31821903  -0.274   4.194  17.561  0.4484  0.4864 -0.0544
  189SLPC  H18X21904  -0.214   4.241  17.641  0.8614  1.2662 -0.7990
  189SLPC  H18Y21905  -0.374   4.165  17.600  0.7482 -0.5054 -0.0115
  189SLPC  H18Z21906  -0.292   4.266  17.478  0.3981 -0.4568 -0.8857
  190SLPC     N21907   2.167   2.189  19.816  0.8515  0.0096 -0.4976
  190SLPC   C1321908   2.295   2.239  19.877 -0.3274  0.6615  0.9148
  190SLPC  H13A21909   2.350   2.166  19.934 -2.5089 -0.0842  2.1729
  190SLPC  H13B21910   2.359   2.279  19.799 -1.7014  0.2217 -0.4686
  190SLPC  H13C21911   2.274   2.332  19.927  0.3641 -0.1113  2.7377
  190SLPC   C1421912   2.137   2.293  19.718  0.0482  0.3719 -0.6594
  190SLPC  H14A21913   2.048   2.266  19.662  1.1990 -2.0824 -1.4184
  190SLPC  H14B21914   2.111   2.386  19.767  0.7921  0.2689 -0.0561
  190SLPC  H14C21915   2.214   2.299  19.642 -0.0042 -0.6022 -0.8040
  190SLPC   C1521916   2.065   2.192  19.931  0.4520  0.1061 -0.6131
  190SLPC  H15A21917   2.077   2.102  19.989 -0.4051  0.7481  0.5852
  190SLPC  H15B21918   2.081   2.283  19.986 -0.4712  1.3154 -2.2385
  190SLPC  H15C21919   1.963   2.178  19.898  1.1969 -2.4736 -2.0694
  190SLPC   C1221920   2.178   2.056  19.755  0.4612  0.4650  0.2846
  190SLPC  H12A21921   2.255   2.070  19.680  2.3354 -1.2395  1.7716
  190SLPC  H12B21922   2.082   2.036  19.710 -0.1610  0.3318  1.6303
  190SLPC   C1121923   2.206   1.929  19.837  0.6370  0.1148 -0.2701
  190SLPC  H11A21924   2.302   1.944  19.891  1.0500  0.5245 -1.1132
  190SLPC  H11B21925   2.209   1.842  19.769  0.2369 -0.0726 -0.0557
  190SLPC     P21926   1.956   1.859  19.884  0.0271  0.2703  0.1656
  190SLPC   O1321927   1.857   1.881  19.987 -0.0787 -0.0024 -0.0398
  190SLPC   O1421928   1.918   1.922  19.753  0.0547 -0.0369  0.9939
  190SLPC   O1221929   2.099   1.902  19.930 -0.7589  0.3531 -0.2395
  190SLPC   O1121930   1.970   1.697  19.853  0.0364 -0.2529  0.0058
  190SLPC    C121931   2.069   1.633  19.939 -0.4837 -0.0170  0.1618
  190SLPC    HA21932   2.168   1.640  19.889 -0.2294  1.3083  0.7901
  190SLPC    HB21933   2.059   1.667  20.045 -1.9661  1.2557 -0.3459
  190SLPC    C221934   2.031   1.483  19.938 -0.3925  0.2459  0.0957
  190SLPC    HS21935   2.111   1.431  19.995  0.8863  3.0979  1.0708
  190SLPC   O2121936   2.032   1.435  19.798 -0.1918  0.2919  0.2972
  190SLPC   C2121937   2.136   1.366  19.763  0.3495  0.1904  0.2830
  190SLPC   O2221938   2.241   1.344  19.824 -0.0143  0.6097 -0.2369
  190SLPC   C2221939   2.103   1.300  19.638 -0.0370  0.1485  0.0160
  190SLPC   H2R21940   2.004   1.331  19.599 -1.1104 -1.5927  1.2110
  190SLPC   H2S21941   2.193   1.329  19.580  0.6089 -1.4139  0.2121
  190SLPC    C321942   1.892   1.463  20.005 -0.4895 -0.3256  0.3503
  190SLPC    HX21943   1.824   1.526  19.944 -0.6985 -1.6203 -0.8299
  190SLPC    HY21944   1.900   1.500  20.109  0.1999  0.1195  0.1468
  190SLPC   O3121945   1.854   1.324  20.003  0.3430  0.0576 -0.2760
  190SLPC   C3121946   1.726   1.290  19.993  0.3761 -0.0093 -0.1986
  190SLPC   O3221947   1.629   1.362  19.969 -0.3284  0.2802 -0.2363
  190SLPC   C3221948   1.728   1.140  19.992  0.1550  0.0548  0.0706
  190SLPC   H2X21949   1.832   1.102  20.000  0.2399  0.2495 -0.0857
  190SLPC   H2Y21950   1.685   1.100  19.897  0.2618  2.4888 -1.0664
  190SLPC   C2321951   2.116   1.147  19.664  0.4878 -0.5549  0.0939
  190SLPC   H3R21952   2.212   1.121  19.714  1.4024  1.3882 -0.5703
  190SLPC   H3S21953   2.125   1.101  19.563 -0.1959 -0.6416  0.0671
  190SLPC   C2421954   1.994   1.078  19.723  0.1277  0.5966 -0.1333
  190SLPC   H4R21955   1.982   1.099  19.831  2.1963 -0.7223  0.4148
  190SLPC   H4S21956   2.006   0.967  19.725 -0.4634  0.4882  3.3397
  190SLPC   C2521957   1.851   1.113  19.671 -0.1840 -0.8399 -0.0721
  190SLPC   H5R21958   1.827   1.217  19.701 -1.2817 -0.9023 -0.6845
  190SLPC   H5S21959   1.768   1.059  19.723 -1.4722  1.0774 -0.0276
  190SLPC   C2621960   1.842   1.099  19.520  0.3603  0.7516  0.1993
  190SLPC   H6R21961   1.874   0.999  19.484 -2.0884 -0.1545  0.3502
  190SLPC   H6S21962   1.916   1.173  19.481  1.5297  0.2133  1.3252
  190SLPC   C2721963   1.701   1.128  19.464 -0.5927 -0.5695  0.2495
  190SLPC   H7R21964   1.660   1.220  19.510  0.7985 -0.4151  1.2628
  190SLPC   H7S21965   1.644   1.041  19.503  0.0560 -0.8552  0.5916
  190SLPC   C2821966   1.698   1.134  19.311 -0.0267  0.6202  0.4001
  190SLPC   H8R21967   1.729   1.039  19.261 -1.5416 -0.8088  2.0733
  190SLPC   H8S21968   1.771   1.216  19.289  1.9729 -0.4126  2.6584
  190SLPC   C2921969   1.560   1.170  19.280 -0.5540 -0.0877  0.6516
  190SLPC   H9R21970   1.523   1.260  19.331 -2.7164 -0.9761  0.7442
  190SLPC  C21021971   1.474   1.091  19.219  0.1902 -0.0565  0.0644
  190SLPC  H10R21972   1.369   1.122  19.209  0.1480 -0.7597 -2.0949
  190SLPC  C21121973   1.512   0.955  19.164 -0.3841 -0.1610  0.0732
  190SLPC  H11R21974   1.428   0.883  19.171 -1.5076  0.9212 -1.5664
  190SLPC  H11S21975   1.570   0.906  19.245 -0.9606 -1.2720 -0.1733
  190SLPC  C21221976   1.587   0.945  19.036 -0.0039 -0.0822 -0.4670
  190SLPC  H12R21977   1.695   0.967  19.042  0.1811 -1.2611  1.0714
  190SLPC  C21321978   1.538   0.930  18.912 -0.1534 -0.4432 -0.7015
  190SLPC  H13R21979   1.601   0.917  18.822 -0.2229 -0.8748 -0.6894
  190SLPC  C21421980   1.399   0.901  18.876  0.4210  0.9752  0.0838
  190SLPC  H14R21981   1.368   0.959  18.786  1.8626  0.0326 -1.0715
  190SLPC  H14S21982   1.332   0.944  18.953 -1.3258  0.8684 -1.3028
  190SLPC  C21521983   1.367   0.749  18.844  0.2338 -0.2744  0.3862
  190SLPC  H15R21984   1.419   0.726  18.748  2.1859  0.9725  1.0967
  190SLPC  H15S21985   1.259   0.725  18.831  0.6498 -2.7794  1.0613
  190SLPC  C21621986   1.425   0.640  18.945  0.3210  0.0856 -0.4829
  190SLPC  H16R21987   1.369   0.637  19.041  0.3978  1.0223 -0.3946
  190SLPC  H16S21988   1.534   0.655  18.959  0.1408 -0.9992  3.1406
  190SLPC  C21721989   1.424   0.501  18.880  0.4541  0.0725  0.7310
  190SLPC  H17R21990   1.507   0.503  18.806 -0.9634  0.8411 -0.9231
  190SLPC  H17S21991   1.338   0.495  18.809 -1.1303  0.3897  2.5287
  190SLPC  C21821992   1.421   0.383  18.975 -0.3777  0.1419 -0.1883
  190SLPC  H18R21993   1.455   0.294  18.919 -0.8425 -0.5184  0.5669
  190SLPC  H18S21994   1.318   0.374  19.016 -0.7179 -0.8789 -1.2146
  190SLPC  H18T21995   1.484   0.409  19.063  0.0458 -0.3329 -0.3487
  190SLPC   C3321996   1.647   1.094  20.120 -0.1982  0.5690  0.3493
  190SLPC   H3X21997   1.537   1.113  20.123 -0.5440 -1.1471 -0.1373
  190SLPC   H3Y21998   1.686   1.142  20.212 -0.7511  0.4617  0.6449
  190SLPC   C3421999   1.682   0.946  20.147 -0.8187  0.0302 -0.4087
  190SLPC   H4X22000   1.786   0.946  20.187 -1.4929 -0.3934  1.4364
  190SLPC   H4Y22001   1.672   0.895  20.049  1.8081 -0.2655 -0.6001
  190SLPC   C3522002   1.601   0.898  20.264 -0.1062  0.1946  0.6088
  190SLPC   H5X22003   1.495   0.919  20.238  0.3363  1.9491  0.0376
  190SLPC   H5Y22004   1.638   0.961  20.348 -0.4121 -0.9342  1.6168
  190SLPC   C3622005   1.626   0.757  20.304 -0.3094  0.1763  0.1591
  190SLPC   H6X22006   1.728   0.750  20.347  1.5170  0.5183 -3.6770
  190SLPC   H6Y22007   1.629   0.697  20.211 -1.5501  1.2901 -0.6242
  190SLPC   C3722008   1.519   0.698  20.399  0.2607 -0.4948  0.6831
  190SLPC   H7X22009   1.421   0.714  20.348  0.4068  1.4166  0.9309
  190SLPC   H7Y22010   1.521   0.764  20.489  0.2564  1.6386 -0.8159
  190SLPC   C3822011   1.533   0.551  20.440 -0.0789 -0.3493 -0.8215
  190SLPC   H8X22012   1.489   0.525  20.539  3.0875 -2.1516  0.2726
  190SLPC   H8Y22013   1.642   0.532  20.454  0.0840  0.6254 -0.6906
  190SLPC   C3922014   1.459   0.461  20.340 -0.1110  0.2715 -0.2139
  190SLPC   H9X22015   1.488   0.483  20.236  0.9371  1.5364  0.3249
  190SLPC   H9Y22016   1.351   0.483  20.328 -0.2669 -1.1506 -1.7852
  190SLPC  C31022017   1.489   0.312  20.361  0.0288  0.0592 -0.5755
  190SLPC  H10X22018   1.598   0.294  20.347  0.4085  2.0037 -0.4035
  190SLPC  H10Y22019   1.431   0.262  20.281  1.5950 -0.3066 -1.5110
  190SLPC  C31122020   1.448   0.246  20.495  0.1760  0.0456  0.1974
  190SLPC  H11X22021   1.339   0.264  20.509  0.1065 -0.3151  0.1048
  190SLPC  H11Y22022   1.505   0.294  20.578 -0.2103  0.6196  0.1442
  190SLPC  C31222023   1.489   0.094  20.487 -0.4409  0.3306 -0.1376
  190SLPC  H12X22024   1.598   0.096  20.467  0.0727 -2.3303  1.8428
  190SLPC  H12Y22025   1.427   0.049  20.407 -1.3873  1.3363 -0.0005
  190SLPC  C31322026   1.478   0.025  20.631  0.7124  0.0278 -0.4761
  190SLPC  H13X22027   1.373   0.023  20.667  1.2194  3.0438  1.5155
  190SLPC  H13Y22028   1.538   0.075  20.709 -1.1222  0.6967  0.5546
  190SLPC  C31422029   1.527  -0.120  20.619 -0.4651  0.5015 -0.5435
  190SLPC  H14X22030   1.612  -0.124  20.547  0.4689  0.9629  0.5129
  190SLPC  H14Y22031   1.446  -0.179  20.570  0.3782  0.8930 -2.5467
  190SLPC  C31522032   1.562  -0.181  20.761  0.4151 -0.0939 -0.6038
  190SLPC  H15X22033   1.471  -0.169  20.824 -0.7968  0.2652 -2.3352
  190SLPC  H15Y22034   1.644  -0.127  20.812  0.4422 -2.9283  2.7259
  190SLPC  C31622035   1.580  -0.334  20.762 -0.0761  0.1311  0.2621
  190SLPC  H16X22036   1.636  -0.367  20.672 -1.5324 -1.5121 -0.1087
  190SLPC  H16Y22037   1.476  -0.373  20.754 -0.4983  1.3962 -0.7975
  190SLPC  C31722038   1.636  -0.401  20.887 -0.4708 -0.5058 -0.5122
  190SLPC  H17X22039   1.572  -0.375  20.974  0.7985  1.1317 -0.0083
  190SLPC  H17Y22040   1.742  -0.370  20.898 -0.6360  0.2739 -1.0179
  190SLPC  C31822041   1.641  -0.554  20.880  0.5663 -0.5723  0.4525
  190SLPC  H18X22042   1.695  -0.601  20.964  1.5849  1.2279  0.8451
  190SLPC  H18Y22043   1.693  -0.571  20.783 -0.0294 -0.0297  0.0249
  190SLPC  H18Z22044   1.538  -0.596  20.876  0.1429 -0.6300  5.4443
  191SLPC     N22045   3.602   1.557  16.526  0.5972 -0.5057  0.7383
  191SLPC   C1322046   3.653   1.677  16.603 -0.4404 -0.1965 -0.5682
  191SLPC  H13A22047   3.760   1.664  16.608 -0.6930 -2.1261  0.9132
  191SLPC  H13B22048   3.629   1.774  16.561  0.9673  0.8371  0.8626
  191SLPC  H13C22049   3.601   1.666  16.697 -1.5370  1.0995 -0.9814
  191SLPC   C1422050   3.635   1.572  16.373 -0.4001  0.0679 -0.0523
  191SLPC  H14A22051   3.580   1.656  16.333 -2.2436 -0.1637  1.8286
  191SLPC  H14B22052   3.741   1.592  16.363  0.0664 -1.7583  0.7977
  191SLPC  H14C22053   3.601   1.479  16.329 -1.5177  0.5298 -0.2020
  191SLPC   C1522054   3.457   1.551  16.542  0.3683  0.1656  0.4746
  191SLPC  H15A22055   3.407   1.480  16.477 -1.5051  1.5620  0.2969
  191SLPC  H15B22056   3.437   1.520  16.643  0.3338 -0.7583  0.1924
  191SLPC  H15C22057   3.404   1.641  16.514 -2.3827 -1.9496 -1.7722
  191SLPC   C1222058   3.665   1.437  16.583  0.6295  0.7479 -0.0233
  191SLPC  H12A22059   3.772   1.441  16.595  0.5976  1.6687 -0.0002
  191SLPC  H12B22060   3.638   1.353  16.521 -0.0036  1.5465 -0.8475
  191SLPC   C1122061   3.627   1.383  16.730 -0.5102  0.1652 -0.2553
  191SLPC  H11A22062   3.642   1.473  16.793  0.1390 -0.1312  0.0267
  191SLPC  H11B22063   3.704   1.314  16.772  0.0398  1.5995  1.2230
  191SLPC     P22064   3.469   1.180  16.684 -0.1989 -0.4246  0.3476
  191SLPC   O1322065   3.340   1.132  16.727 -0.1120  0.1461  0.3641
  191SLPC   O1422066   3.509   1.179  16.545  0.2989 -0.0947  0.1421
  191SLPC   O1222067   3.491   1.334  16.737  0.4331  0.4314 -0.5405
  191SLPC   O1122068   3.580   1.095  16.765  0.2747 -0.2344 -0.1240
  191SLPC    C122069   3.564   1.086  16.904  0.3377  0.1230  1.1046
  191SLPC    HA22070   3.528   1.181  16.949  0.4006  0.3625  0.6549
  191SLPC    HB22071   3.499   0.998  16.927 -0.5106  0.8534  1.5755
  191SLPC    C222072   3.701   1.066  16.970 -0.1137  0.4516  0.1739
  191SLPC    HS22073   3.769   1.152  16.949 -1.2827  1.1698 -0.8531
  191SLPC   O2122074   3.756   0.942  16.922  0.2574 -0.1445 -0.3119
  191SLPC   C2122075   3.884   0.931  16.940 -0.1290  0.2544 -0.0730
  191SLPC   O2222076   3.961   1.016  16.980  0.4805 -0.4888  0.4433
  191SLPC   C2222077   3.927   0.792  16.906  0.2391  0.0721  0.3695
  191SLPC   H2R22078   3.921   0.783  16.796  0.0817  1.1555  0.2826
  191SLPC   H2S22079   4.036   0.792  16.931  0.3687  1.6907 -0.1149
  191SLPC    C322080   3.693   1.052  17.118 -0.2420 -0.7133 -0.1874
  191SLPC    HX22081   3.668   1.155  17.150 -1.5179 -0.7447 -1.0465
  191SLPC    HY22082   3.786   1.021  17.172  0.3253  0.6662 -0.3421
  191SLPC   O3122083   3.592   0.957  17.165 -1.0768 -0.0728 -0.5175
  191SLPC   C3122084   3.576   0.936  17.297 -0.5684  0.1656  0.1485
  191SLPC   O3222085   3.637   0.991  17.385  0.0292  0.3741  0.1044
  191SLPC   C3222086   3.457   0.840  17.320 -0.2547 -0.3145 -1.0007
  191SLPC   H2X22087   3.493   0.740  17.289  1.0202  0.0106 -0.6569
  191SLPC   H2Y22088   3.370   0.865  17.256 -1.3094  0.0652  0.5118
  191SLPC   C2322089   3.844   0.679  16.972  0.0813  0.0409  0.2358
  191SLPC   H3R22090   3.879   0.587  16.921  0.6249 -0.1853  0.9976
  191SLPC   H3S22091   3.738   0.690  16.939  0.7611  2.4938 -1.4349
  191SLPC   C2422092   3.866   0.666  17.120  0.4877  0.0744 -0.7367
  191SLPC   H4R22093   3.859   0.769  17.161 -2.4740 -0.4360  0.2816
  191SLPC   H4S22094   3.965   0.623  17.145  0.6735  0.8771 -0.0590
  191SLPC   C2522095   3.752   0.593  17.199  0.0499 -0.0807  0.0685
  191SLPC   H5R22096   3.752   0.483  17.184 -0.3873 -0.3596  1.8294
  191SLPC   H5S22097   3.654   0.637  17.172 -0.1345  0.5430  1.6289
  191SLPC   C2622098   3.776   0.604  17.348  0.2338 -0.0582  0.5786
  191SLPC   H6R22099   3.782   0.713  17.370  2.9856 -0.5169  2.6967
  191SLPC   H6S22100   3.878   0.565  17.371  0.9775  2.5078  2.0806
  191SLPC   C2722101   3.682   0.523  17.435 -0.7586 -0.2116  0.3823
  191SLPC   H7R22102   3.716   0.418  17.438  1.1676  0.3401 -0.3798
  191SLPC   H7S22103   3.583   0.534  17.387  0.0930 -1.3002 -1.7488
  191SLPC   C2822104   3.705   0.564  17.581 -0.6117  0.8830  0.3590
  191SLPC   H8R22105   3.745   0.667  17.582 -0.7960  1.0042  3.1731
  191SLPC   H8S22106   3.791   0.506  17.622 -0.3925 -0.1353 -1.4409
  191SLPC   C2922107   3.589   0.555  17.673 -0.0449 -0.3599 -0.2947
  191SLPC   H9R22108   3.519   0.641  17.669 -0.9204 -1.0559 -0.1993
  191SLPC  C21022109   3.585   0.474  17.778 -0.6986  0.0841  0.1991
  191SLPC  H10R22110   3.506   0.495  17.852 -0.5367 -0.8107  0.6416
  191SLPC  C21122111   3.685   0.368  17.819  0.0163 -0.3696  0.0744
  191SLPC  H11R22112   3.764   0.423  17.875 -1.2700  1.4230  0.2102
  191SLPC  H11S22113   3.727   0.320  17.728  0.2258 -0.0805  0.0171
  191SLPC  C21222114   3.631   0.267  17.914  0.1819  0.0261  0.1308
  191SLPC  H12R22115   3.672   0.281  18.015  2.5782 -1.8485 -0.4840
  191SLPC  C21322116   3.569   0.154  17.887  0.4967  0.1447  0.2249
  191SLPC  H13R22117   3.547   0.091  17.975 -1.6200  0.8811  0.2832
  191SLPC  C21422118   3.533   0.106  17.751 -0.0627 -0.4593 -0.0384
  191SLPC  H14R22119   3.550  -0.003  17.738 -1.5096 -0.4370 -3.0908
  191SLPC  H14S22120   3.586   0.160  17.669 -0.5055  0.7515  0.4563
  191SLPC  C21522121   3.383   0.143  17.735 -0.0461 -0.7143  0.5725
  191SLPC  H15R22122   3.382   0.253  17.723  2.7583 -0.8085 -1.6655
  191SLPC  H15S22123   3.322   0.111  17.822  0.8755  3.7817  3.1951
  191SLPC  C21622124   3.327   0.091  17.603  0.2844  0.2078 -0.0807
  191SLPC  H16R22125   3.372  -0.007  17.574  1.6146  0.6825  0.3224
  191SLPC  H16S22126   3.373   0.152  17.522  0.0564 -0.3213 -0.6169
  191SLPC  C21722127   3.172   0.093  17.592 -0.0240  0.2858  0.1073
  191SLPC  H17R22128   3.139   0.054  17.493  0.7317  0.9539 -0.4219
  191SLPC  H17S22129   3.139   0.197  17.614 -2.4788 -0.3536 -0.2761
  191SLPC  C21822130   3.096   0.012  17.700 -0.1928 -0.2025 -0.2048
  191SLPC  H18R22131   3.121  -0.096  17.708 -0.7418 -0.2228  1.4833
  191SLPC  H18S22132   2.989   0.029  17.680  0.1795  0.4128 -1.8517
  191SLPC  H18T22133   3.120   0.064  17.795 -1.8685  1.4604 -0.6450
  191SLPC   C3322134   3.430   0.849  17.474 -0.2600 -0.5813  0.2629
  191SLPC   H3X22135   3.390   0.948  17.502  1.2736  0.7748 -2.0797
  191SLPC   H3Y22136   3.521   0.838  17.537  0.6069  0.7712 -0.7176
  191SLPC   C3422137   3.322   0.746  17.513  0.1036  0.5897  0.0226
  191SLPC   H4X22138   3.361   0.643  17.499  0.0085  0.7982 -1.9524
  191SLPC   H4Y22139   3.236   0.747  17.444  1.5516 -1.9928 -1.9878
  191SLPC   C3522140   3.266   0.779  17.655  0.0318 -1.0174 -0.4288
  191SLPC   H5X22141   3.231   0.884  17.656 -0.6010 -1.2220  0.8679
  191SLPC   H5Y22142   3.349   0.776  17.729 -0.9173  1.9528  0.8959
  191SLPC   C3622143   3.142   0.703  17.701 -0.1229  0.5953  0.3823
  191SLPC   H6X22144   3.057   0.735  17.637  1.4205  1.7105 -1.2154
  191SLPC   H6Y22145   3.110   0.741  17.800 -2.3717 -3.1001  1.2895
  191SLPC   C3722146   3.162   0.548  17.709 -0.0591 -0.2379  0.2781
  191SLPC   H7X22147   3.258   0.527  17.761 -0.6022 -1.6864  0.7376
  191SLPC   H7Y22148   3.151   0.524  17.601  0.0574 -0.6293  0.3528
  191SLPC   C3822149   3.038   0.500  17.793  0.2521 -0.5780  0.4609
  191SLPC   H8X22150   2.944   0.547  17.758  0.8329  1.4040  1.4038
  191SLPC   H8Y22151   3.054   0.538  17.896 -2.0425 -0.5222  0.8331
  191SLPC   C3922152   3.022   0.349  17.783  0.1806 -0.0582  0.0372
  191SLPC   H9X22153   3.118   0.298  17.808 -1.0440 -2.7452 -0.3195
  191SLPC   H9Y22154   2.991   0.321  17.680  0.5185  1.3679 -0.4706
  191SLPC  C31022155   2.919   0.283  17.880 -0.0241 -0.0439  0.0081
  191SLPC  H10X22156   2.931   0.175  17.856 -2.3509 -0.1086 -1.1155
  191SLPC  H10Y22157   2.818   0.322  17.855 -0.0334  0.8374  1.3234
  191SLPC  C31122158   2.951   0.307  18.032  0.4334  0.2363 -0.3521
  191SLPC  H11X22159   2.851   0.295  18.078  1.1342  0.9165  1.4346
  191SLPC  H11Y22160   2.981   0.413  18.048 -2.4269  1.0092  0.3683
  191SLPC  C31222161   3.053   0.212  18.096 -0.2334  0.1750  0.2724
  191SLPC  H12X22162   3.142   0.219  18.030 -1.5991 -0.8943 -1.8144
  191SLPC  H12Y22163   3.003   0.114  18.080  0.1157  0.0207  0.1053
  191SLPC  C31322164   3.090   0.239  18.240  0.6408  0.2154  0.9515
  191SLPC  H13X22165   3.125   0.343  18.252  0.4391  0.5494 -0.9606
  191SLPC  H13Y22166   3.182   0.180  18.260  1.6950  1.1754 -0.8449
  191SLPC  C31422167   2.973   0.209  18.332  0.1803 -0.1299 -0.5489
  191SLPC  H14X22168   2.956   0.100  18.333  0.2816 -0.2128  2.7613
  191SLPC  H14Y22169   2.884   0.266  18.298 -0.8905 -0.2152  1.9321
  191SLPC  C31522170   3.004   0.251  18.474  0.3711  0.0725 -0.3337
  191SLPC  H15X22171   3.012   0.361  18.470  2.5540 -0.0628 -1.2264
  191SLPC  H15Y22172   3.095   0.202  18.516  0.0051  0.2084  0.6311
  191SLPC  C31622173   2.886   0.234  18.572  0.3798  0.2338  0.6205
  191SLPC  H16X22174   2.827   0.143  18.548  2.1088 -0.9215  0.5270
  191SLPC  H16Y22175   2.823   0.325  18.571  2.0795  1.4592  0.7295
  191SLPC  C31722176   2.937   0.200  18.713  0.3135 -0.3589 -0.3816
  191SLPC  H17X22177   2.863   0.236  18.787 -0.5199 -0.2662 -1.2533
  191SLPC  H17Y22178   3.024   0.264  18.740 -0.3933  0.0928  0.8500
  191SLPC  C31822179   2.975   0.054  18.733 -0.1889  1.0805 -0.0076
  191SLPC  H18X22180   2.888  -0.014  18.745 -1.1329  2.3540  0.5847
  191SLPC  H18Y22181   3.036   0.046  18.825  0.2983  0.0880 -0.4039
  191SLPC  H18Z22182   3.030   0.026  18.640 -0.2077 -3.3213  1.0890
  192SLPC     N22183   0.015   1.693  21.701  0.8102  0.2511 -0.0438
  192SLPC   C1322184   0.144   1.654  21.758 -0.6627 -0.0646  0.6973
  192SLPC  H13A22185   0.208   1.601  21.689  1.0037 -1.2597  3.0142
  192SLPC  H13B22186   0.191   1.742  21.798 -1.9024  0.2420  1.5361
  192SLPC  H13C22187   0.135   1.584  21.840 -0.2214 -0.4824  0.4015
  192SLPC   C1422188  -0.033   1.590  21.608 -0.1315  0.2561  0.3935
  192SLPC  H14A22189  -0.124   1.618  21.558  1.1178  1.2164 -1.4653
  192SLPC  H14B22190   0.025   1.574  21.519  0.3504 -0.9799  0.9134
  192SLPC  H14C22191  -0.044   1.498  21.663  0.8746  0.5406  1.1105
  192SLPC   C1522192   0.039   1.820  21.610  0.7257 -0.2324 -0.8164
  192SLPC  H15A22193   0.094   1.797  21.520  1.9470  0.0365 -0.1674
  192SLPC  H15B22194  -0.060   1.852  21.581  1.5463  2.4237 -0.9850
  192SLPC  H15C22195   0.088   1.895  21.671 -0.1558 -1.5365  1.6571
  192SLPC   C1222196  -0.097   1.724  21.807  0.0417  0.7296  0.6317
  192SLPC  H12A22197  -0.121   1.632  21.858  2.8569 -0.2251  0.3956
  192SLPC  H12B22198  -0.192   1.747  21.760 -0.0420 -1.6930 -0.5389
  192SLPC   C1122199  -0.060   1.828  21.916  0.3245  0.1012  0.0942
  192SLPC  H11A22200   0.023   1.785  21.975 -1.0292 -1.5686  0.8656
  192SLPC  H11B22201  -0.138   1.837  21.995  0.0665 -0.5881 -0.0830
  192SLPC     P22202  -0.137   2.049  21.803 -0.1747 -0.5077 -0.3187
  192SLPC   O1322203  -0.076   2.145  21.712 -0.5523 -0.2220  0.6041
  192SLPC   O1422204  -0.254   1.974  21.745  0.2835 -0.7608 -0.4108
  192SLPC   O1222205  -0.029   1.951  21.857  0.3706 -0.4668 -0.4715
  192SLPC   O1122206  -0.179   2.130  21.928 -0.0146 -0.7642 -0.0911
  192SLPC    C122207  -0.091   2.150  22.040 -0.2346  0.5660 -0.5139
  192SLPC    HA22208  -0.138   2.197  22.129  1.0152  0.6293  0.1326
  192SLPC    HB22209  -0.051   2.051  22.072 -3.0560 -0.3363  0.5562
  192SLPC    C222210   0.038   2.238  22.020  0.6222 -0.5456 -0.2453
  192SLPC    HS22211   0.096   2.194  21.936 -0.6712 -0.3047 -1.3102
  192SLPC   O2122212   0.101   2.247  22.144  0.1501  0.3253 -0.6650
  192SLPC   C2122213   0.199   2.161  22.164  0.0125 -0.2607  0.0163
  192SLPC   O2222214   0.236   2.074  22.095 -0.1481  0.0220  0.5027
  192SLPC   C2222215   0.269   2.191  22.299  0.5795  0.5973  0.2145
  192SLPC   H2R22216   0.313   2.293  22.290 -1.3672  1.5179  0.7963
  192SLPC   H2S22217   0.188   2.193  22.374  0.5530  0.9121  0.1784
  192SLPC    C322218   0.009   2.382  21.974  0.5330 -0.1179  0.1054
  192SLPC    HX22219  -0.040   2.434  22.060  2.0604  2.7683 -0.6108
  192SLPC    HY22220  -0.062   2.395  21.890  0.2159 -3.1484 -0.1716
  192SLPC   O3122221   0.129   2.466  21.959 -0.1737 -0.0507  0.2534
  192SLPC   C3122222   0.181   2.478  21.836  0.0834  0.2122 -0.7424
  192SLPC   O3222223   0.154   2.403  21.742  0.1511 -0.1390  0.0629
  192SLPC   C3222224   0.268   2.599  21.843 -0.0909 -0.4893 -0.0406
  192SLPC   H2X22225   0.333   2.608  21.753  1.7064  0.6830  1.2966
  192SLPC   H2Y22226   0.341   2.586  21.926  0.0258 -0.2242 -0.0991
  192SLPC   C2322227   0.378   2.087  22.337  0.6506 -0.6533 -0.2770
  192SLPC   H3R22228   0.460   2.079  22.263  1.7813 -2.5446  1.0721
  192SLPC   H3S22229   0.321   1.993  22.351 -2.9417  1.7035  2.9464
  192SLPC   C2422230   0.452   2.117  22.464  0.6823  0.1476  0.1312
  192SLPC   H4R22231   0.395   2.175  22.541 -1.8712  1.8486 -2.7651
  192SLPC   H4S22232   0.540   2.182  22.445 -1.3675  2.7645 -1.1043
  192SLPC   C2522233   0.498   1.985  22.521  0.1114 -0.2795 -0.1905
  192SLPC   H5R22234   0.558   1.939  22.440 -1.2946 -1.2000 -0.7503
  192SLPC   H5S22235   0.406   1.928  22.545 -0.2920  0.8012  0.9455
  192SLPC   C2622236   0.575   1.999  22.650 -0.4270  0.6094 -0.4001
  192SLPC   H6R22237   0.667   2.061  22.645  0.4094 -0.4597  1.0302
  192SLPC   H6S22238   0.611   1.898  22.679  0.2602  0.6967 -0.9214
  192SLPC   C2722239   0.493   2.045  22.770  0.7790 -0.2499  0.4927
  192SLPC   H7R22240   0.398   1.988  22.776  0.0463  0.7939 -0.5914
  192SLPC   H7S22241   0.460   2.151  22.763 -0.2113 -0.6353 -1.3296
  192SLPC   C2822242   0.572   2.030  22.905  0.3022 -0.2118  0.1603
  192SLPC   H8R22243   0.681   2.028  22.883  0.3482 -0.5305  0.4118
  192SLPC   H8S22244   0.549   1.929  22.946 -2.4405  0.3231  0.1095
  192SLPC   C2922245   0.540   2.128  23.022 -0.4795  0.1922  0.0267
  192SLPC   H9R22246   0.432   2.150  23.024 -0.7568 -0.1151 -3.8030
  192SLPC  C21022247   0.618   2.170  23.126 -0.4655 -0.3815 -0.0646
  192SLPC  H10R22248   0.587   2.256  23.188  1.2330  0.5642 -0.4732
  192SLPC  C21122249   0.762   2.128  23.140 -0.5226  0.4385  0.2237
  192SLPC  H11R22250   0.835   2.192  23.088 -0.4536  0.1489 -0.0408
  192SLPC  H11S22251   0.763   2.024  23.101 -0.6799  0.4233  0.2602
  192SLPC  C21222252   0.797   2.121  23.286 -0.8160 -0.3507  0.1446
  192SLPC  H12R22253   0.772   2.021  23.324 -0.8366 -1.4966 -2.5836
  192SLPC  C21322254   0.868   2.209  23.362  0.5761 -0.6199 -0.5747
  192SLPC  H13R22255   0.880   2.174  23.465 -2.6259  0.3704  0.2507
  192SLPC  C21422256   0.925   2.345  23.313 -0.4920 -0.5983 -0.5486
  192SLPC  H14R22257   0.936   2.357  23.204 -3.4307  0.2557 -0.8489
  192SLPC  H14S22258   1.022   2.363  23.364 -1.7215 -0.4487  1.9143
  192SLPC  C21522259   0.844   2.470  23.359 -0.3654  0.0653  0.1163
  192SLPC  H15R22260   0.737   2.454  23.331 -0.3901 -0.4926  0.5169
  192SLPC  H15S22261   0.880   2.566  23.315 -0.9084  1.0347  1.6960
  192SLPC  C21622262   0.835   2.493  23.509  0.7611  0.1299 -0.4398
  192SLPC  H16R22263   0.929   2.542  23.542 -1.0229  2.7941  1.0380
  192SLPC  H16S22264   0.833   2.397  23.566 -0.2126  0.5448  0.2405
  192SLPC  C21722265   0.725   2.585  23.553  0.1296 -0.5812  0.0363
  192SLPC  H17R22266   0.713   2.666  23.477  0.6778  0.7506  1.3173
  192SLPC  H17S22267   0.632   2.527  23.540 -0.9018  1.5859 -3.8020
  192SLPC  C21822268   0.742   2.645  23.696  0.0555 -0.1514 -0.4060
  192SLPC  H18R22269   0.758   2.565  23.772  1.1992 -0.1391 -0.6082
  192SLPC  H18S22270   0.665   2.716  23.731 -0.8221  0.1045 -2.6906
  192SLPC  H18T22271   0.840   2.697  23.699 -0.5871  1.0833 -0.4658
  192SLPC   C3322272   0.197   2.737  21.871 -0.3018  0.0526 -0.1626
  192SLPC   H3X22273   0.272   2.819  21.877  0.3091 -0.4705 -0.5261
  192SLPC   H3Y22274   0.144   2.725  21.968 -0.4755 -0.5288 -0.3282
  192SLPC   C3422275   0.091   2.774  21.765  0.3369 -0.0429  0.2286
  192SLPC   H4X22276   0.018   2.692  21.746  0.6702 -0.1763 -0.4933
  192SLPC   H4Y22277   0.148   2.792  21.672  2.1930 -0.2345  1.2815
  192SLPC   C3522278   0.012   2.903  21.810  0.1087 -0.0347  0.7976
  192SLPC   H5X22279  -0.030   2.899  21.913 -3.9345 -1.1682 -0.7203
  192SLPC   H5Y22280  -0.085   2.905  21.755  1.4654  2.0270 -1.7430
  192SLPC   C3622281   0.086   3.032  21.781  0.0643 -0.3096  0.1632
  192SLPC   H6X22282   0.014   3.099  21.730  2.3763  0.4043 -2.4505
  192SLPC   H6Y22283   0.154   3.006  21.696 -1.4719 -0.2625 -1.1258
  192SLPC   C3722284   0.150   3.095  21.905  0.6046 -0.6997 -0.2776
  192SLPC   H7X22285   0.186   3.026  21.984  4.7548  0.2013 -1.1704
  192SLPC   H7Y22286   0.057   3.146  21.939  0.7932  0.5584 -1.5444
  192SLPC   C3822287   0.245   3.207  21.879  0.0150 -0.7320  0.3854
  192SLPC   H8X22288   0.341   3.167  21.841  0.8687  1.8745 -0.3909
  192SLPC   H8Y22289   0.268   3.268  21.969 -0.2350 -1.5623  1.0269
  192SLPC   C3922290   0.215   3.299  21.759 -0.1779  0.1089 -0.4585
  192SLPC   H9X22291   0.122   3.353  21.790  1.5152  2.1168  1.3941
  192SLPC   H9Y22292   0.212   3.235  21.668 -2.1301  0.2770 -0.5552
  192SLPC  C31022293   0.324   3.413  21.740 -0.3067  0.3851  0.2456
  192SLPC  H10X22294   0.421   3.365  21.714 -1.9493 -2.5477 -1.0076
  192SLPC  H10Y22295   0.328   3.449  21.845  0.5990 -1.1306  0.7625
  192SLPC  C31122296   0.268   3.527  21.652 -0.1486 -0.0178 -0.6706
  192SLPC  H11X22297   0.343   3.609  21.651  2.8724 -2.4885  1.9183
  192SLPC  H11Y22298   0.173   3.572  21.688  0.5426  0.9174  0.0439
  192SLPC  C31222299   0.257   3.485  21.503  0.4866  0.3221 -0.5219
  192SLPC  H12X22300   0.174   3.412  21.493 -0.7754  1.6731 -0.2567
  192SLPC  H12Y22301   0.347   3.436  21.461  1.6111  3.0575 -1.5325
  192SLPC  C31322302   0.216   3.593  21.399  0.0076  0.4791 -0.1067
  192SLPC  H13X22303   0.122   3.637  21.439 -0.8888 -0.9266 -0.5873
  192SLPC  H13Y22304   0.179   3.552  21.303 -1.7423  0.4185  0.5524
  192SLPC  C31422305   0.323   3.701  21.357  0.8469 -0.8990  0.8071
  192SLPC  H14X22306   0.393   3.636  21.300  1.6826  1.9923 -1.6847
  192SLPC  H14Y22307   0.373   3.746  21.446  1.4584  2.5461 -1.1287
  192SLPC  C31522308   0.267   3.819  21.273  0.0735 -0.1182  0.3836
  192SLPC  H15X22309   0.223   3.780  21.178  1.9939 -0.6968 -0.2991
  192SLPC  H15Y22310   0.351   3.885  21.242  0.8971 -1.1490  0.3797
  192SLPC  C31622311   0.159   3.893  21.345 -0.4010 -0.2722  0.5152
  192SLPC  H16X22312   0.074   3.822  21.349  0.0146 -0.7212  2.2389
  192SLPC  H16Y22313   0.127   3.983  21.289 -1.6941 -1.0110  0.0229
  192SLPC  C31722314   0.191   3.941  21.489  0.4434  0.1928  0.0522
  192SLPC  H17X22315   0.260   4.028  21.477  0.4254  0.2244  0.1775
  192SLPC  H17Y22316   0.238   3.860  21.549  0.1730  0.1079  0.1468
  192SLPC  C31822317   0.071   3.998  21.574 -0.6629  0.0133 -0.0031
  192SLPC  H18X22318   0.102   3.981  21.679 -0.5115  0.7391  0.0767
  192SLPC  H18Y22319  -0.022   3.941  21.553  0.8220 -2.9092  0.8112
  192SLPC  H18Z22320   0.048   4.104  21.551 -0.7383  0.1918  0.8751
  193SOD    SOD22321   2.759   0.253  10.549 -0.1102 -0.0263  0.3705
  194SOD    SOD22322   2.318   1.848  31.509  0.0018 -0.2275  0.3252
  195SOD    SOD22323   0.266   3.301   7.254 -0.2057  0.5124 -0.3444
  196SOD    SOD22324   0.862   2.926   9.037  0.1613 -0.2709  0.2511
  197SOD    SOD22325   3.510   3.670  38.581 -0.4450  0.1749  0.2790
  198SOD    SOD22326   0.136   3.813  29.213 -0.3023 -0.3519 -0.1992
  199SOD    SOD22327   1.495   1.647   9.332 -0.2032  0.2669 -0.3642
  200SOD    SOD22328   3.562   1.691  21.758  0.2384 -0.1198 -0.0443
  201SOD    SOD22329   3.500   2.444  15.592  0.6330  0.1374  0.1404
  202SOD    SOD22330   0.008   3.542  25.481 -0.0685  0.3828 -0.2183
  203SOD    SOD22331   4.002   3.118   0.919  0.0476  0.0433 -0.1551
  204SOD    SOD22332   0.027   0.772  38.456 -0.1352 -0.1136 -0.3292
  205SOD    SOD22333   2.264   0.154  36.989 -0.0117 -0.2241  0.0713
  206SOD    SOD22334   0.834   1.778  44.589 -0.4718  0.1504 -0.0739
  207SOD    SOD22335   1.253   2.071  40.726 -0.2539 -0.3070  0.6031
  208SOD    SOD22336   2.087   1.783  45.951  0.1783 -0.0806 -0.0173
  209SOD    SOD22337   0.041   1.106  41.859  0.4660 -0.3070  0.4586
  210SOD    SOD22338   1.829   0.877  11.090 -0.1290  0.1066  0.4525
  211SOD    SOD22339   2.524   1.802  39.511  0.0680 -0.0973  0.1239
  212SOD    SOD22340   3.194   2.232  20.027 -0.1248  0.2690 -0.6033
  213SOD    SOD22341   0.267   0.597  35.466 -0.1666 -0.0875  0.1761
  214SOD    SOD22342   2.260   1.349  21.446 -0.2087  0.1362  0.2302
  215SOD    SOD22343   0.225   3.381   4.940 -0.3193  0.6037  0.0728
  216SOD    SOD22344   2.303   3.158   6.034  0.1500 -0.5678 -0.0868
  217SOD    SOD22345   2.316   3.704  27.772 -0.0920 -0.5690 -0.4047
  218SOD    SOD22346   0.620   2.532  40.059 -0.1188  0.0682  0.2993
  219SOD    SOD22347   0.175   1.834  20.670 -0.5579  0.1526  0.1246
  220SOD    SOD22348   3.330   1.600  13.908  0.2030  0.3912  0.1222
  221SOD    SOD22349   2.797   3.756  26.253  0.0249  0.0849  0.0609
  222SOD    SOD22350   2.090   3.006  43.164 -0.3685 -0.0265  0.3639
  223SOD    SOD22351   1.132   3.569  46.617 -0.1776 -0.3716 -0.5607
  224SOD    SOD22352   0.763   3.156  32.123  0.0123 -0.5169 -0.2560
  225SOD    SOD22353   0.252   2.237  21.065  0.3283 -0.1020 -0.4313
  226SOD    SOD22354   0.236   2.358  35.890 -0.6142 -0.5531 -0.4748
  227SOD    SOD22355   0.414   1.966  37.108  0.1779  0.6237  0.3625
  228SOD    SOD22356   3.625   1.848  33.781  0.1258  0.0508  0.3300
  229SOD    SOD22357   0.407   0.323  26.613 -0.5721  0.2589 -0.0183
  230SOD    SOD22358   2.235   0.837   1.974 -0.3197  0.2134  0.4116
  231SOD    SOD22359   3.158   3.525  47.521  0.1346 -0.4629 -0.5951
  232SOD    SOD22360   1.362   0.993  14.457 -0.4435  0.6529 -0.0419
  233SOD    SOD22361   3.005   2.399   2.651  0.1650  0.0674 -0.9675
  234SOD    SOD22362   0.796   1.820   1.979 -0.0988  0.2807 -0.2150
  235SOD    SOD22363   1.357   0.506  34.585 -0.1900 -0.1363  0.0535
  236SOD    SOD22364   0.774   0.206  11.976  0.1096  0.0817 -0.2549
  237SOD    SOD22365   1.102   3.312  25.526  0.2714  0.3956 -0.1562
  238SOD    SOD22366   0.928   0.058  24.500 -0.0805 -0.2152 -0.1080
  239SOD    SOD22367   2.594   1.072   6.784  0.3155 -0.2391  0.8552
  240SOD    SOD22368   2.191   1.801  18.845  0.2383 -0.1376  0.0653
  241SOD    SOD22369   1.370   3.419  13.525  0.2770 -0.1186  0.1035
  242SOD    SOD22370   0.535   0.642  24.897  0.0699 -0.3629 -0.6618
  243SOD    SOD22371   1.770   2.678  44.856 -0.4559  0.1139  0.0371
  244SOD    SOD22372   2.439   2.843   7.787 -0.5026  0.1124  0.1270
  245SOD    SOD22373   1.579   3.443  42.834 -0.1440  0.2336  0.7080
  246SOD    SOD22374   3.625   1.443  44.644 -0.1611  0.3804 -0.0117
  247SOD    SOD22375   3.336   1.720   5.788 -0.0360 -0.3526 -0.2652
  248SOD    SOD22376   2.275   0.839  11.540 -0.3539  0.2173 -0.0122
  249SOD    SOD22377   2.956   2.002  17.052  0.4329 -0.1055  0.1935
  250SOD    SOD22378   0.967   1.978   3.912 -0.0160  0.2097  0.0251
  251SOD    SOD22379   1.482   0.889  11.842  0.2757  0.2714 -0.4736
  252SOD    SOD22380   3.896   3.242  39.801 -0.4918  0.5875 -0.0899
  253SOD    SOD22381   0.454   0.232   9.354 -0.0660 -0.1921 -0.0978
  254SOD    SOD22382   0.330   3.690  25.987  0.1847  0.1451  0.1983
  255SOD    SOD22383   3.051   0.567  34.035 -0.0157  0.3496  0.3352
  256SOD    SOD22384   3.605   3.724  14.961 -0.0313  0.1587 -0.2061
  257SOD    SOD22385   0.044   4.105  27.754 -0.3389  0.1730  0.4554
  258SOD    SOD22386   1.490   0.989   3.778 -0.1636 -0.4489 -0.3438
  259SOD    SOD22387   4.060   1.751  18.208 -0.0629  0.0637 -0.2232
  260SOD    SOD22388   1.377   2.050  38.277 -0.0798  0.6400 -0.1561
  261SOD    SOD22389   3.081   2.522  42.616 -0.0583 -0.3269 -0.1442
  262SOD    SOD22390   1.026   0.836  44.934 -0.0300  0.6950 -0.2448
  263SOD    SOD22391   3.423   3.754  30.450  1.1479  0.0663 -0.1903
  264SOD    SOD22392   4.037   3.763  13.654  0.2100  0.3911 -0.3129
  265SOD    SOD22393   1.402   3.012  37.669  0.1196  0.0161 -0.4980
  266CLA    CLA22394   3.796   0.947   3.834  0.7556  0.1807 -0.2515
  267CLA    CLA22395   2.439   2.139  16.958 -0.6414 -0.0811 -0.2913
  268CLA    CLA22396   0.888   1.691  31.759  0.4497  0.1317  0.1340
  269CLA    CLA22397   0.583   0.406  35.993 -0.4128  0.1228 -0.2123
  270CLA    CLA22398   2.375   3.295  11.665 -0.6057 -0.3264  0.3563
  271CLA    CLA22399   3.479   1.865  39.685 -0.0274 -0.4499  0.0965
  272CLA    CLA22400   0.573   0.288  11.839 -0.2449 -0.0538  0.2292
  273CLA    CLA22401   0.408   2.227  33.221  0.1712  0.0770  0.0040
  274CLA    CLA22402   1.719   3.998  37.775  0.0765  0.0863 -0.1607
  275CLA    CLA22403   1.167   2.339   1.022  0.0617 -0.6189  0.3788
  276CLA    CLA22404   0.950   3.214  41.013  0.1004  0.1582  0.2896
  277CLA    CLA22405   0.432   3.505  43.272  0.0478  0.1960 -0.0701
  278CLA    CLA22406   3.247   3.152  42.100 -0.0975 -0.3736 -0.4340
  279CLA    CLA22407   1.947   3.278   8.201  0.0616 -0.1295 -0.1006
  280CLA    CLA22408   2.443   2.993   4.289 -0.4404 -0.2942  0.0379
  281CLA    CLA22409   1.683   1.708  45.667  0.0231  0.0499 -0.3416
  282CLA    CLA22410   2.089   3.746  38.314 -0.2145 -0.6158 -0.3956
  283CLA    CLA22411   3.415   1.498   3.438 -0.0235  0.2145 -0.1425
  284CLA    CLA22412   1.358   1.721   3.964  0.3023 -0.4097  0.5697
  285CLA    CLA22413   1.918   3.481  34.910 -0.1199  0.1038 -0.5412
  286CLA    CLA22414   2.745   0.237  45.998 -0.2890 -0.1041  0.1058
  287CLA    CLA22415   1.280   2.746  42.967 -0.0820  0.0756 -0.0119
  288CLA    CLA22416   2.205   3.053   5.525  0.2822  0.0236  0.4776
  289CLA    CLA22417   3.204   3.628  38.023  0.0911  0.2288 -0.0820
  290CLA    CLA22418   1.178   3.138  44.650  0.0651  0.0726 -0.3582
  291CLA    CLA22419   2.265   1.673   9.069  0.1520  0.2676 -0.2986
  292CLA    CLA22420   2.578   0.958  39.379  0.2015  0.2296 -0.2478
  293CLA    CLA22421   1.028   0.821  12.950  0.2958 -0.2514 -0.6257
  294CLA    CLA22422   2.650   3.751  29.329  0.4451 -0.2819 -0.1683
  295CLA    CLA22423   2.351   3.480   9.370  0.1961  0.0010  0.1171
  296CLA    CLA22424   2.508   1.425   6.512 -0.2411 -0.1645 -0.1751
  297CLA    CLA22425   0.503   2.493  40.522  0.2141 -0.0045 -0.2433
  298CLA    CLA22426   1.710   0.346  34.916  0.1325 -0.3266 -0.3567
  299CLA    CLA22427   0.898   1.342  47.274  0.2362 -0.8582 -0.0648
  300CLA    CLA22428   3.566   1.964  44.111 -0.1745 -0.1857 -0.3955
  301CLA    CLA22429   1.151   3.266  10.990 -0.3247 -0.2493 -0.0584
  302CLA    CLA22430   1.123   2.080   8.073 -0.2743  0.1823 -0.3895
  303CLA    CLA22431   1.059   2.355   2.429  0.5912 -0.0365  0.0336
  304CLA    CLA22432   3.802   0.144  46.587 -0.2152  0.9063  0.0962
  305CLA    CLA22433   1.712   1.135  11.503 -0.3201  0.1435 -0.0780
  306CLA    CLA22434   0.077   1.421  44.676 -0.0119 -0.1426 -0.0647
  307CLA    CLA22435   1.288   3.645   5.331  0.0689 -0.0656  0.1095
  308CLA    CLA22436   3.872   1.451  40.514  0.3246 -0.2704 -0.6426
  309CLA    CLA22437   1.687   0.598  12.217  0.1631  0.2564 -0.3168
  310CLA    CLA22438   2.354   0.982   0.079 -0.2342  0.1911 -0.0153
  311CLA    CLA22439   0.474   2.173   0.893  0.3386 -0.0430  0.2747
  312CLA    CLA22440   0.287   0.328   9.849 -0.5955  0.1655  0.0311
  313CLA    CLA22441   0.813   2.939  37.640  0.0019 -0.0385  0.1017
  314CLA    CLA22442   3.571   2.022   9.813  0.4143 -0.2703  0.0930
  315CLA    CLA22443   1.200   2.591  35.573  0.3738  0.0013 -0.2695
  316CLA    CLA22444   1.006   3.734  14.244  0.5527 -0.7436 -0.3136
  317CLA    CLA22445   3.263   0.635  33.394  0.1252  0.0503  0.0380
  318CLA    CLA22446   1.714   0.820  37.178  0.2767  0.7763  0.0779
  319TIP3   OH222447   1.939   2.822  43.162  0.4327  0.3927 -0.4633
  319TIP3    H122448   1.887   2.815  43.241  2.8032  0.1289  1.1795
  319TIP3    H222449   1.885   2.784  43.093 -1.6667  0.5735  1.0109
  320TIP3   OH222450   0.591   0.106  39.058  0.0062 -0.4576 -0.3501
  320TIP3    H122451   0.652   0.141  39.123  0.4388 -0.4431 -0.7643
  320TIP3    H222452   0.532   0.178  39.038  2.0403  0.6758 -2.6162
  321TIP3   OH222453   1.007   1.896   1.940 -0.6068  0.4053 -0.6587
  321TIP3    H122454   1.064   1.940   1.877  0.9667 -1.3035 -0.4903
  321TIP3    H222455   1.058   1.822   1.972 -2.5823 -0.6578  0.2282
  322TIP3   OH222456   3.734   2.115   5.427  0.2705 -0.2160 -0.6132
  322TIP3    H122457   3.663   2.052   5.414  0.1294  0.0290 -1.0345
  322TIP3    H222458   3.790   2.074   5.493  0.1901 -0.7928 -0.8952
  323TIP3   OH222459   0.012   2.683   6.015 -0.6026 -0.4857  0.3992
  323TIP3    H122460   0.032   2.590   6.009 -0.5760 -0.3970 -2.3417
  323TIP3    H222461   0.070   2.716   6.084  1.6591 -1.9899 -0.6467
  324TIP3   OH222462   3.719   0.897   5.812  0.2499  0.4535  0.2460
  324TIP3    H122463   3.781   0.953   5.766 -0.0788 -0.9759 -2.1157
  324TIP3    H222464   3.633   0.936   5.795  0.2797  1.1514  1.5795
  325TIP3   OH222465   1.554   4.024  37.064 -0.2983  0.2231  0.1190
  325TIP3    H122466   1.575   4.048  37.155 -1.2875  1.1536  0.1187
  325TIP3    H222467   1.565   3.929  37.062  0.7850  0.3091  0.9257
  326TIP3   OH222468   0.041   0.674   8.273  0.5296  0.5545  0.0457
  326TIP3    H122469   0.057   0.708   8.185  0.9246  1.6077  0.5111
  326TIP3    H222470  -0.055   0.669   8.280  0.4953 -0.6158 -0.8208
  327TIP3   OH222471   3.018   2.865   7.535  0.6374 -0.1920  0.1077
  327TIP3    H122472   2.996   2.772   7.524  0.1378 -0.1966  1.0212
  327TIP3    H222473   3.113   2.866   7.542  0.5733 -0.7877  1.3033
  328TIP3   OH222474   3.135   0.052  24.764 -0.4404 -0.4611  0.1378
  328TIP3    H122475   3.149   0.100  24.846 -3.8585  1.1454 -0.0672
  328TIP3    H222476   3.167   0.111  24.696 -0.4399 -0.4491  0.1482
  329TIP3   OH222477   0.193   1.935  19.206 -0.2902  0.2896 -0.0125
  329TIP3    H122478   0.274   1.910  19.160  0.4814  1.0818  0.8612
  329TIP3    H222479   0.170   2.020  19.168  1.0845  1.5853  1.8804
  330TIP3   OH222480   3.481   3.208  13.973  0.7092 -0.1450  0.1127
  330TIP3    H122481   3.410   3.257  14.015 -0.9363 -0.1224 -2.4394
  330TIP3    H222482   3.518   3.270  13.910  1.1143 -1.0203 -0.5341
  331TIP3   OH222483   3.788   2.671  47.031 -0.2378 -0.2761 -0.3404
  331TIP3    H122484   3.805   2.618  47.108  0.7581  0.2081 -0.2149
  331TIP3    H222485   3.752   2.753  47.066 -1.9464 -0.9037 -0.5399
  332TIP3   OH222486   1.985   0.671  44.128  0.1240 -0.0696  0.8224
  332TIP3    H122487   2.041   0.689  44.203 -0.8785  0.0876  1.5573
  332TIP3    H222488   1.909   0.729  44.140  0.1581  0.3001 -0.5638
  333TIP3   OH222489   0.809   1.178  35.616  0.1252  0.1731 -0.0858
  333TIP3    H122490   0.826   1.173  35.710 -1.3378 -0.9087  0.1685
  333TIP3    H222491   0.750   1.104  35.599 -0.5937  1.0485 -1.6324
  334TIP3   OH222492   2.626   3.834  12.770  0.3200 -0.0489  0.2216
  334TIP3    H122493   2.604   3.810  12.680  3.3071  0.6177 -0.7829
  334TIP3    H222494   2.663   3.922  12.764 -1.8585  1.1916  2.5607
  335TIP3   OH222495   2.567   3.679   6.485  0.5144  0.1195 -0.6009
  335TIP3    H122496   2.557   3.594   6.526 -1.0042  0.9229  0.8120
  335TIP3    H222497   2.499   3.733   6.525  1.0795  1.8448 -1.8577
  336TIP3   OH222498   2.925   0.103   3.206 -0.0922  0.5970  0.2427
  336TIP3    H122499   3.003   0.159   3.198  0.3862  0.1608  1.5635
  336TIP3    H222500   2.923   0.078   3.299 -0.3199 -1.5009 -0.2654
  337TIP3   OH222501   3.214   1.984  13.099  0.7210 -0.3753 -0.0053
  337TIP3    H122502   3.309   1.986  13.114  0.3557 -0.7314  2.6434
  337TIP3    H222503   3.179   2.050  13.158 -0.6618  0.5312 -1.7318
  338TIP3   OH222504   2.163   1.173   6.520  0.2769  0.0130 -0.4253
  338TIP3    H122505   2.121   1.191   6.435  0.9887  1.8653 -0.4194
  338TIP3    H222506   2.239   1.231   6.522 -0.7627  1.4224  2.2752
  339TIP3   OH222507   2.053   1.910   2.096  0.3919  0.0072  0.0070
  339TIP3    H122508   1.984   1.970   2.068  0.4389  0.1873  0.2740
  339TIP3    H222509   2.021   1.873   2.178  0.2699 -0.4905 -0.2604
  340TIP3   OH222510   3.189   2.493   0.569  0.8533 -0.5290  0.3793
  340TIP3    H122511   3.194   2.524   0.659 -0.5341 -0.4215  0.4389
  340TIP3    H222512   3.219   2.567   0.516  4.6173 -1.5319  0.8052
  341TIP3   OH222513   0.359   0.372  14.057 -0.8329  0.2962 -0.1100
  341TIP3    H122514   0.291   0.380  14.124  0.8842 -0.0349  1.7796
  341TIP3    H222515   0.374   0.278  14.050 -1.3094  0.2922 -1.3470
  342TIP3   OH222516   3.004   0.926  36.172 -0.5183  0.6959  0.5483
  342TIP3    H122517   3.064   0.853  36.158 -0.1803  1.1115 -0.2341
  342TIP3    H222518   3.028   0.961  36.257 -0.4142  0.1482  0.7468
  343TIP3   OH222519   0.283   3.601  14.528 -0.1675  0.1482  0.0612
  343TIP3    H122520   0.370   3.640  14.536 -0.6706  1.5676 -0.8187
  343TIP3    H222521   0.269   3.593  14.434 -0.7046 -0.7748  0.2069
  344TIP3   OH222522   0.617   2.497  39.586 -0.4525 -0.2410 -0.2782
  344TIP3    H122523   0.656   2.553  39.518 -0.8351  0.9231  0.4394
  344TIP3    H222524   0.563   2.435  39.537  0.4885 -0.4149 -1.1310
  345TIP3   OH222525   0.461   2.214  20.081 -0.1253  0.0619 -0.0164
  345TIP3    H122526   0.462   2.308  20.096 -2.5692  0.2135 -0.3204
  345TIP3    H222527   0.373   2.197  20.046  0.3528 -2.2931 -0.2217
  346TIP3   OH222528   3.230   4.090  11.429 -0.5931 -0.5627  0.1070
  346TIP3    H122529   3.314   4.089  11.476 -0.8036 -0.8730  0.4857
  346TIP3    H222530   3.164   4.075  11.497 -0.8429 -1.9856 -0.4129
  347TIP3   OH222531   0.657   1.047   6.292  0.1001 -0.1449  0.4007
  347TIP3    H122532   0.721   1.020   6.358 -1.6306 -0.6045  1.9602
  347TIP3    H222533   0.616   1.125   6.329 -2.4653 -1.6754  1.0002
  348TIP3   OH222534   1.882   2.054   3.456  0.2041 -0.1468  0.3409
  348TIP3    H122535   1.893   2.088   3.545  0.4998 -0.1402  0.3024
  348TIP3    H222536   1.818   2.112   3.415 -1.6292 -1.4387  1.2504
  349TIP3   OH222537   1.332   3.239  33.576 -0.0780  0.4813 -0.2563
  349TIP3    H122538   1.350   3.273  33.489  2.7420  0.2157  0.1425
  349TIP3    H222539   1.302   3.149  33.562  1.1648  0.1560 -0.9477
  350TIP3   OH222540   3.610   0.176  40.867 -0.6155 -0.1109  0.7894
  350TIP3    H122541   3.705   0.181  40.880 -0.3119 -0.9719 -0.8462
  350TIP3    H222542   3.590   0.246  40.805 -0.6159 -1.4613 -0.8023
  351TIP3   OH222543   1.185   0.605  42.145  0.1138 -0.1351 -0.4682
  351TIP3    H122544   1.108   0.608  42.088  0.0562  0.0811 -0.3820
  351TIP3    H222545   1.255   0.644  42.093  0.3374 -0.9625 -0.8024
  352TIP3   OH222546   3.303   0.779   5.296  0.0195  0.2142 -0.2623
  352TIP3    H122547   3.262   0.864   5.279 -0.8499 -0.4104 -1.3396
  352TIP3    H222548   3.397   0.797   5.291 -0.1575  1.0993 -0.5414
  353TIP3   OH222549   0.053   1.225  41.670 -0.2661 -0.4067 -0.0281
  353TIP3    H122550   0.087   1.311  41.692 -3.7939  1.1431  0.1370
  353TIP3    H222551   0.088   1.207  41.583  3.2538 -0.4892  1.2779
  354TIP3   OH222552   1.801   1.153  42.612  0.2109  0.1441 -0.3660
  354TIP3    H122553   1.723   1.186  42.656  0.7986  0.7017  0.2805
  354TIP3    H222554   1.828   1.224  42.553  0.3552  0.0379 -0.4311
  355TIP3   OH222555   2.726   1.161  32.088 -0.2359  0.3137 -0.2374
  355TIP3    H122556   2.781   1.127  32.159  1.0580 -1.0106 -1.7847
  355TIP3    H222557   2.639   1.123  32.105  0.2207 -0.5386  0.2912
  356TIP3   OH222558   2.041   2.112  36.693  0.3804 -0.1694  0.3941
  356TIP3    H122559   2.028   2.056  36.617 -0.0547  0.3778  0.0561
  356TIP3    H222560   1.955   2.151  36.710  0.9034  1.2646 -0.0726
  357TIP3   OH222561   2.937   0.850  36.653 -0.2705  0.1516 -0.6477
  357TIP3    H122562   2.976   0.816  36.573 -0.1049  0.2928 -0.6272
  357TIP3    H222563   2.902   0.773  36.698  0.7099 -0.0797 -0.2689
  358TIP3   OH222564   2.507   2.639  34.279 -0.2119  0.3801  0.7133
  358TIP3    H122565   2.439   2.707  34.275  0.8395  1.3918 -1.5788
  358TIP3    H222566   2.459   2.557  34.286 -1.6888  1.0852 -0.6302
  359TIP3   OH222567   0.728   2.352  45.748  0.0797  0.4450 -0.0290
  359TIP3    H122568   0.649   2.327  45.797 -1.6117  1.8163 -1.8705
  359TIP3    H222569   0.751   2.273  45.699 -0.3849  0.1383  0.2324
  360TIP3   OH222570   2.978   0.679  39.626  0.1857  0.0165  0.5240
  360TIP3    H122571   2.921   0.605  39.642  0.9397 -1.0252 -1.2759
  360TIP3    H222572   2.989   0.721  39.711 -0.4571 -1.7849  1.5237
  361TIP3   OH222573   3.718   2.923   6.730  0.4475  0.0250  0.1559
  361TIP3    H122574   3.770   2.997   6.760 -1.2543  1.1984  0.3576
  361TIP3    H222575   3.701   2.872   6.809 -1.7978  1.6777  0.8259
  362TIP3   OH222576   2.394   2.202  10.420 -0.4874  0.4676  0.2929
  362TIP3    H122577   2.436   2.131  10.372 -0.4454  0.3849  0.4510
  362TIP3    H222578   2.459   2.229  10.485 -1.0089 -0.2542  1.1299
  363TIP3   OH222579   2.999   3.291  14.230 -0.3464  0.2650 -0.0120
  363TIP3    H122580   3.063   3.246  14.285  1.7174  0.9050 -1.7881
  363TIP3    H222581   2.938   3.222  14.203  1.3742 -1.0107 -0.7650
  364TIP3   OH222582   0.965   1.590  31.436  0.3226  0.6479 -0.1921
  364TIP3    H122583   0.958   1.612  31.529  0.3461 -0.1772  0.0132
  364TIP3    H222584   0.915   1.659  31.391 -1.5395 -0.1132  0.5926
  365TIP3   OH222585   3.908   3.650   8.390 -0.1031 -0.3332 -0.0370
  365TIP3    H122586   3.889   3.732   8.435 -0.1869  0.6367 -1.7332
  365TIP3    H222587   3.825   3.626   8.347 -0.3529 -1.8425  1.1668
  366TIP3   OH222588   1.440   3.656  42.220 -0.6784  0.5036 -0.0057
  366TIP3    H122589   1.432   3.706  42.301 -0.4511  0.8973 -0.2222
  366TIP3    H222590   1.518   3.692  42.177 -0.2642 -0.3145  0.0324
  367TIP3   OH222591   4.063   3.695   9.792  0.0035 -0.3019 -0.1461
  367TIP3    H122592   4.039   3.603   9.788  1.5161 -0.7387 -0.0430
  367TIP3    H222593   4.133   3.698   9.858 -0.0547  0.9188 -0.1228
  368TIP3   OH222594   1.024   1.009  44.793 -0.2378  0.1501 -0.0800
  368TIP3    H122595   1.098   1.069  44.785 -0.7720  1.0505  1.3210
  368TIP3    H222596   0.998   0.991  44.702  1.3512  0.2177 -0.5736
  369TIP3   OH222597   1.794   0.749   9.166  0.4807 -0.1302  0.0917
  369TIP3    H122598   1.705   0.773   9.140  0.2503 -1.1864 -0.1038
  369TIP3    H222599   1.811   0.803   9.244 -0.6628 -0.5525  0.6637
  370TIP3   OH222600   3.609   2.820   0.405 -0.4855  0.1983 -0.2263
  370TIP3    H122601   3.609   2.744   0.347 -1.6308 -2.5291  3.0037
  370TIP3    H222602   3.701   2.845   0.413 -0.1053 -0.7594 -1.4653
  371TIP3   OH222603   3.048   1.783  34.312  0.0003 -0.0428  0.0859
  371TIP3    H122604   3.088   1.775  34.226 -0.5916 -3.0502 -0.0168
  371TIP3    H222605   2.959   1.814  34.294  0.7389  2.1714 -0.0565
  372TIP3   OH222606   1.696   3.408   1.229 -0.2380  0.0339 -0.3141
  372TIP3    H122607   1.602   3.387   1.223 -0.1826  0.1532 -2.0601
  372TIP3    H222608   1.700   3.502   1.210  0.3573 -0.2716 -1.7712
  373TIP3   OH222609   0.772   0.877   7.218 -0.1584 -0.2191 -0.4857
  373TIP3    H122610   0.816   0.952   7.260  2.7826 -1.0056 -1.8465
  373TIP3    H222611   0.679   0.891   7.235  0.2666  3.5316 -0.3381
  374TIP3   OH222612   1.805   0.894  11.323 -0.1108  0.1795  0.1053
  374TIP3    H122613   1.786   0.974  11.372 -0.5058 -0.1064  0.4202
  374TIP3    H222614   1.739   0.831  11.352 -0.7249  0.1677 -1.2027
  375TIP3   OH222615   0.387   3.750   4.031  1.1449 -0.4535 -0.5413
  375TIP3    H122616   0.389   3.804   4.110  0.5813  0.0866 -0.8832
  375TIP3    H222617   0.324   3.680   4.050 -0.4257  0.7291 -1.1439
  376TIP3   OH222618   0.830   1.958  14.554  0.4040  0.6605 -0.1681
  376TIP3    H122619   0.832   1.937  14.647  0.1066  1.5651  0.0568
  376TIP3    H222620   0.922   1.965  14.529  0.4875  0.2499  0.0140
  377TIP3   OH222621   1.843   3.867  46.195  0.5489 -0.1016 -0.1249
  377TIP3    H122622   1.763   3.814  46.192  0.9776 -0.7288 -1.4935
  377TIP3    H222623   1.815   3.955  46.170  0.1813 -0.1586  0.0796
  378TIP3   OH222624   2.770   2.981  11.201 -0.1334  0.5209  0.1265
  378TIP3    H122625   2.678   2.992  11.177  0.2549  0.5165 -1.5072
  378TIP3    H222626   2.776   3.012  11.291 -1.7958  0.2008  0.3716
  379TIP3   OH222627   1.959   1.676   8.938  0.0160  0.0876 -0.3974
  379TIP3    H122628   1.957   1.752   8.880 -2.0154  1.3378  1.2040
  379TIP3    H222629   2.051   1.668   8.964  0.1566  2.5915  0.0891
  380TIP3   OH222630   3.236   0.461  32.383  0.1131 -0.2136  0.0139
  380TIP3    H122631   3.248   0.382  32.331  1.7871  0.1520 -0.2208
  380TIP3    H222632   3.285   0.529  32.336 -1.5760  1.0799  0.0119
  381TIP3   OH222633   1.049   0.119  34.395  0.6576  0.4310  0.3514
  381TIP3    H122634   1.068   0.060  34.468  0.5621 -0.6516 -0.4865
  381TIP3    H222635   0.961   0.152  34.412  0.6538  0.2166  0.7448
  382TIP3   OH222636   1.547   3.085  12.370  0.4375  0.4144  0.4869
  382TIP3    H122637   1.641   3.099  12.372  0.8033 -1.3890 -1.1087
  382TIP3    H222638   1.518   3.132  12.292  0.6091 -1.6892 -0.9369
  383TIP3   OH222639   1.555   0.227   9.191  0.3986  0.0203 -0.4328
  383TIP3    H122640   1.556   0.192   9.102 -0.7096  1.4502 -1.0541
  383TIP3    H222641   1.470   0.200   9.226 -0.3336  1.7019 -0.8097
  384TIP3   OH222642   1.273   0.687  13.157  0.1395  0.6022 -0.2453
  384TIP3    H122643   1.334   0.623  13.120 -1.6205 -1.5723  0.3918
  384TIP3    H222644   1.216   0.710  13.083 -0.7133 -0.4632  0.0522
  385TIP3   OH222645   1.228   2.274   0.308  0.1910 -0.1665  0.5190
  385TIP3    H122646   1.202   2.361   0.275  2.5580  0.5026  0.2599
  385TIP3    H222647   1.266   2.292   0.394  1.8906 -0.7438 -0.0861
  386TIP3   OH222648   2.563   4.044   3.692 -0.1812  0.5987 -0.1399
  386TIP3    H122649   2.558   4.031   3.787  1.0009 -1.6523 -0.3327
  386TIP3    H222650   2.569   3.956   3.655  0.8885  1.4625 -2.2197
  387TIP3   OH222651   0.329   2.375  31.457 -0.3035  0.7291 -0.1133
  387TIP3    H122652   0.379   2.457  31.454 -0.4580  0.7865 -2.5370
  387TIP3    H222653   0.242   2.402  31.487  0.3147  1.0262  1.5278
  388TIP3   OH222654   3.236   2.171   4.705  0.2080  0.1662 -0.3395
  388TIP3    H122655   3.236   2.089   4.753  2.2895  0.3698  0.0777
  388TIP3    H222656   3.194   2.150   4.622 -2.1258 -0.5362  0.9140
  389TIP3   OH222657   1.145   3.075  12.344  0.6898  0.5829 -0.9323
  389TIP3    H122658   1.155   2.995  12.292  0.9901  0.4532 -0.6777
  389TIP3    H222659   1.211   3.067  12.413  0.9607  1.2219 -1.1182
  390TIP3   OH222660   3.254   2.892  34.811 -0.5470 -0.0106  0.1403
  390TIP3    H122661   3.346   2.917  34.812 -0.4567 -0.2898 -0.4793
  390TIP3    H222662   3.244   2.834  34.886 -0.8603  2.1290  1.8612
  391TIP3   OH222663   1.119   3.402  31.735  0.0252  0.0672 -0.1965
  391TIP3    H122664   1.183   3.407  31.665  1.3575 -2.2321  0.7509
  391TIP3    H222665   1.154   3.459  31.804  0.7778 -0.6905  0.0704
  392TIP3   OH222666   3.468   1.349   6.807  0.8331 -0.2075  0.5940
  392TIP3    H122667   3.415   1.316   6.735 -0.3029  0.6295  1.0214
  392TIP3    H222668   3.486   1.272   6.860 -0.1726 -0.4765  0.5678
  393TIP3   OH222669   2.019   1.216   6.270 -0.3355  0.2131  0.2599
  393TIP3    H122670   2.065   1.295   6.243  0.1299 -0.7054 -1.8159
  393TIP3    H222671   1.990   1.175   6.188 -1.4009 -1.2789  1.3177
  394TIP3   OH222672   2.562   1.868  36.342 -0.4785  0.2315 -0.1306
  394TIP3    H122673   2.541   1.857  36.249 -0.8086  1.9959 -0.3007
  394TIP3    H222674   2.631   1.803  36.359  1.5503  1.6557 -2.2946
  395TIP3   OH222675   4.062   2.411   4.174  1.1072  0.1889 -0.0404
  395TIP3    H122676   4.120   2.441   4.244  0.5414  0.0637  0.4992
  395TIP3    H222677   4.079   2.470   4.101  1.2021  0.7805  0.4470
  396TIP3   OH222678   0.391   3.757   0.439 -0.3226 -0.0182  0.0873
  396TIP3    H122679   0.477   3.764   0.481 -0.6426  0.6217  0.6656
  396TIP3    H222680   0.391   3.829   0.375 -0.0661 -0.6151 -0.5880
  397TIP3   OH222681   1.658   3.687  41.084 -0.2375 -0.3656  0.2484
  397TIP3    H122682   1.649   3.591  41.088 -1.4551 -0.2274  2.1788
  397TIP3    H222683   1.588   3.719  41.141 -0.8659  1.7519 -1.5786
  398TIP3   OH222684   1.695   3.439  27.233  0.1482 -0.1173  0.5425
  398TIP3    H122685   1.612   3.417  27.191  0.4855 -0.5591  0.0970
  398TIP3    H222686   1.760   3.384  27.188  0.4858 -0.7576  1.7636
  399TIP3   OH222687   1.959   3.430   6.193 -0.1344  0.0049 -0.0092
  399TIP3    H122688   1.930   3.493   6.127  1.4731  0.8448  0.0503
  399TIP3    H222689   1.995   3.483   6.264 -1.4798 -0.8986  1.4122
  400TIP3   OH222690   2.682   2.492  14.962 -0.6260  0.1475 -0.5674
  400TIP3    H122691   2.689   2.538  15.046  3.1060  2.2102 -1.7594
  400TIP3    H222692   2.718   2.405  14.979  0.0234  0.5210  0.0103
  401TIP3   OH222693   3.547   3.681   2.084  0.0952 -0.0402 -0.2066
  401TIP3    H122694   3.482   3.611   2.087 -1.0948  1.0223 -0.1518
  401TIP3    H222695   3.607   3.655   2.015  0.1536 -1.4951  0.3513
  402TIP3   OH222696   1.619   2.284  17.119  0.4460  0.1171 -0.4146
  402TIP3    H122697   1.664   2.298  17.035  0.6101  0.3998 -0.2823
  402TIP3    H222698   1.629   2.368  17.165 -1.1516  0.5640 -0.8220
  403TIP3   OH222699   2.292   2.152  16.321 -0.2493 -0.0155  0.3840
  403TIP3    H122700   2.365   2.167  16.382  0.0636 -1.2650  0.3436
  403TIP3    H222701   2.218   2.198  16.360  0.7168  1.9584  0.0355
  404TIP3   OH222702   0.240   1.982  42.978 -0.1757  0.0147 -0.5289
  404TIP3    H122703   0.219   1.889  42.972 -1.0754  0.1447  0.2404
  404TIP3    H222704   0.305   1.987  43.048 -1.8684  0.1691  1.1127
  405TIP3   OH222705   3.124   3.752  44.768 -0.1744 -0.4774 -0.0225
  405TIP3    H122706   3.046   3.700  44.749 -0.2421  0.2070 -1.8382
  405TIP3    H222707   3.090   3.840  44.784  0.0812 -0.6052  1.3671
  406TIP3   OH222708   0.776   1.643   2.937 -0.2805 -0.0894  0.1571
  406TIP3    H122709   0.839   1.573   2.921  1.5342  1.1507  1.4316
  406TIP3    H222710   0.814   1.720   2.893 -0.8910  0.6901  0.9566
  407TIP3   OH222711   0.868   2.244  17.952 -0.7330  0.3438 -0.1581
  407TIP3    H122712   0.879   2.208  17.864  0.2214 -0.0008  0.0807
  407TIP3    H222713   0.816   2.323  17.939 -0.7610  0.2027 -1.0123
  408TIP3   OH222714   3.673   3.402  45.072  0.1934  0.1803 -0.5740
  408TIP3    H122715   3.671   3.379  45.165  1.5862  0.1326 -0.5315
  408TIP3    H222716   3.760   3.440  45.058 -1.1870  3.4389 -1.1349
  409TIP3   OH222717   2.891   1.122  40.302 -0.1694  0.0839  0.3836
  409TIP3    H122718   2.832   1.073  40.359  0.3911 -1.4717 -0.3201
  409TIP3    H222719   2.964   1.147  40.358 -1.1515  1.5019  1.1146
  410TIP3   OH222720   0.634   2.129  44.888  0.0625 -0.3133 -0.3203
  410TIP3    H122721   0.620   2.120  44.983  0.2504 -0.6871 -0.3244
  410TIP3    H222722   0.668   2.217  44.877 -0.6322 -0.0142 -0.1187
  411TIP3   OH222723   0.816   3.407  26.286  0.0064  0.8828 -0.3757
  411TIP3    H122724   0.754   3.480  26.286 -0.0613  0.8294  0.2105
  411TIP3    H222725   0.893   3.441  26.332  0.0608  0.6562 -0.2998
  412TIP3   OH222726   0.984   0.174  33.581  0.1324 -0.0980  0.3342
  412TIP3    H122727   0.950   0.256  33.617  0.4196 -0.9880  2.8593
  412TIP3    H222728   1.073   0.166  33.617  2.3713  1.0048 -4.1875
  413TIP3   OH222729   0.494   0.951  47.370 -0.2365  0.2821 -0.3481
  413TIP3    H122730   0.530   1.036  47.395 -1.3315  0.5156  0.5110
  413TIP3    H222731   0.451   0.919  47.449 -1.7058 -0.0744 -1.2374
  414TIP3   OH222732   2.361   2.174  21.248  0.1534  0.0222  0.1041
  414TIP3    H122733   2.420   2.244  21.275  2.1957 -1.9670  1.1026
  414TIP3    H222734   2.278   2.219  21.229  1.6397  2.8159 -0.3777
  415TIP3   OH222735   1.089   0.068  25.259  0.3311  0.5058  0.0839
  415TIP3    H122736   1.157   0.122  25.218 -0.1244  0.4294 -0.8043
  415TIP3    H222737   1.008   0.116  25.243  0.0069 -0.0987 -0.1066
  416TIP3   OH222738   2.562   3.055  38.018  0.1443 -0.3804  0.8902
  416TIP3    H122739   2.628   2.986  38.005  2.0389  0.9795  2.6992
  416TIP3    H222740   2.606   3.136  37.992 -2.4704  0.1643 -2.4938
  417TIP3   OH222741   0.633   2.178  18.336 -0.2640 -0.1858 -0.2645
  417TIP3    H122742   0.639   2.271  18.358 -0.1806 -0.3864  0.6035
  417TIP3    H222743   0.585   2.139  18.410 -0.4904 -0.7985 -0.7219
  418TIP3   OH222744   0.587   1.081  44.391  0.5342 -0.3070 -0.0169
  418TIP3    H122745   0.676   1.102  44.362  0.0420 -0.3619 -1.7014
  418TIP3    H222746   0.575   0.990  44.365  0.2267 -0.5211  0.8570
  419TIP3   OH222747   0.033   1.789   8.807 -0.0220 -0.1902 -0.1106
  419TIP3    H122748   0.041   1.823   8.718  0.1918  0.2136  0.0608
  419TIP3    H222749   0.122   1.769   8.834  0.0033  0.4370  0.2973
  420TIP3   OH222750   2.230   1.961  46.020 -0.0656  0.5200 -0.4079
  420TIP3    H122751   2.226   2.028  45.952  1.7274  0.4564 -0.6107
  420TIP3    H222752   2.176   1.996  46.091 -1.1804  1.0183 -1.4711
  421TIP3   OH222753   3.122   0.304  47.529 -0.1901  0.1905  0.5005
  421TIP3    H122754   3.164   0.218  47.517  0.0166  0.2451  0.8069
  421TIP3    H222755   3.164   0.339  47.608 -1.3541 -0.0866  1.2695
  422TIP3   OH222756   2.587   1.097  37.287 -0.4574  0.0560 -0.0719
  422TIP3    H122757   2.518   1.163  37.296 -0.0475  0.4955 -0.1000
  422TIP3    H222758   2.650   1.136  37.225 -0.4907 -0.5998 -0.5252
  423TIP3   OH222759   2.490   1.230  44.936 -0.7082 -0.0647  0.3983
  423TIP3    H122760   2.561   1.294  44.927 -0.8526  0.1522  0.7582
  423TIP3    H222761   2.517   1.176  45.010 -0.3642 -0.7172 -0.2004
  424TIP3   OH222762   2.048   0.927   3.904  0.2119  0.0722 -0.0797
  424TIP3    H122763   2.008   1.006   3.866 -0.3021 -0.2730 -0.2655
  424TIP3    H222764   2.123   0.909   3.847 -0.2608 -0.1530 -0.6441
  425TIP3   OH222765   3.994   0.746  37.755  0.1221 -0.1539 -0.3186
  425TIP3    H122766   3.967   0.838  37.750  0.0748 -0.1871 -0.7419
  425TIP3    H222767   4.016   0.723  37.664 -1.2691 -0.9804 -0.4809
  426TIP3   OH222768   0.323   1.331  42.792 -0.3025  0.6157  0.0923
  426TIP3    H122769   0.386   1.264  42.765 -0.3613  0.7697 -0.4385
  426TIP3    H222770   0.241   1.305  42.750 -0.5708  0.4741  0.6956
  427TIP3   OH222771   0.842   3.483  31.746  0.1101  0.1891 -0.2132
  427TIP3    H122772   0.811   3.492  31.656 -0.9320 -0.2492  0.0882
  427TIP3    H222773   0.926   3.437  31.739 -0.0031  0.0905 -0.9513
  428TIP3   OH222774   3.500   3.866  34.598  0.1368  0.1061  0.4135
  428TIP3    H122775   3.485   3.802  34.528  1.1928  1.1721 -0.8356
  428TIP3    H222776   3.413   3.896  34.624 -0.2673 -0.4229 -0.3256
  429TIP3   OH222777   3.478   1.286  45.625 -0.6356 -0.1070  0.3660
  429TIP3    H122778   3.422   1.292  45.702 -0.1442 -2.3543  0.9600
  429TIP3    H222779   3.418   1.263  45.554 -0.9789  1.2511  0.1871
  430TIP3   OH222780   0.733   2.573   9.197  0.5427  0.0131 -0.0185
  430TIP3    H122781   0.698   2.489   9.167 -0.7752  0.1262  1.1113
  430TIP3    H222782   0.736   2.565   9.292  3.1456  0.2295 -0.0233
  431TIP3   OH222783   1.228   0.160   7.683 -0.2200  0.1849 -0.3280
  431TIP3    H122784   1.191   0.146   7.596  0.7545  1.7572 -1.0428
  431TIP3    H222785   1.317   0.190   7.666 -0.1308  0.8716  1.2011
  432TIP3   OH222786   2.323   3.344  38.208  0.0718 -0.0778 -0.4864
  432TIP3    H122787   2.271   3.265  38.197  0.4629 -0.5244  0.7630
  432TIP3    H222788   2.263   3.416  38.188 -1.1656 -0.5693  1.2614
  433TIP3   OH222789   1.728   2.231  41.873  0.0890 -0.0377  0.2644
  433TIP3    H122790   1.716   2.215  41.967 -0.7223 -0.8671  0.0374
  433TIP3    H222791   1.684   2.314  41.857  0.0652  0.0125  0.5824
  434TIP3   OH222792   0.817   1.094  43.175  0.0099 -0.2423 -0.1208
  434TIP3    H122793   0.863   1.054  43.101 -1.4067 -1.1415 -0.5432
  434TIP3    H222794   0.844   1.043  43.251 -2.1125 -2.3773 -0.7134
  435TIP3   OH222795   1.951   2.190   1.723  0.1604 -0.2423  0.1013
  435TIP3    H122796   1.941   2.229   1.810  0.7940 -1.5401  0.7851
  435TIP3    H222797   2.006   2.113   1.738 -1.5264 -1.7659 -1.0651
  436TIP3   OH222798   4.087   3.148  35.136 -0.5962  0.0525 -0.1401
  436TIP3    H122799   4.079   3.243  35.138 -0.6262  0.0673 -0.7734
  436TIP3    H222800   3.998   3.115  35.154 -0.5187  0.1326  0.4182
  437TIP3   OH222801   1.064   0.206  35.430 -0.5156 -0.1797 -0.1372
  437TIP3    H122802   1.060   0.206  35.526 -0.9221  1.0506 -0.1345
  437TIP3    H222803   1.099   0.120  35.407 -0.5997 -0.5626  1.1076
  438TIP3   OH222804   3.549   0.893  10.894 -0.3576 -0.4549 -0.4435
  438TIP3    H122805   3.467   0.874  10.939 -0.2413 -0.3899 -0.2036
  438TIP3    H222806   3.594   0.808  10.890 -0.3509 -0.4534 -0.4020
  439TIP3   OH222807   2.513   2.499  19.468 -0.2794  0.3418 -0.0954
  439TIP3    H122808   2.563   2.424  19.499  0.8321  0.9425 -0.4060
  439TIP3    H222809   2.472   2.534  19.547 -0.8681 -0.6247  0.0389
  440TIP3   OH222810   3.821   0.188   1.513  0.2109 -0.5483 -0.6103
  440TIP3    H122811   3.886   0.146   1.569  2.6526  2.1314 -1.1924
  440TIP3    H222812   3.792   0.265   1.563  0.4479  0.4174 -1.8973
  441TIP3   OH222813   0.345   2.554  33.626 -0.1603  0.0543 -0.2532
  441TIP3    H122814   0.275   2.572  33.564 -0.8928 -1.9359 -0.0615
  441TIP3    H222815   0.316   2.477  33.675  1.3713  0.2466  1.0617
  442TIP3   OH222816   2.495   0.000  28.649  0.0347 -0.2501  0.4502
  442TIP3    H122817   2.584  -0.022  28.673  0.3150  0.9069  0.5655
  442TIP3    H222818   2.475  -0.055  28.574  0.3316 -1.5273  1.2806
  443TIP3   OH222819   3.238   1.116  34.628  0.1172 -0.2762  0.6529
  443TIP3    H122820   3.332   1.121  34.646  0.1307 -1.8455  1.1945
  443TIP3    H222821   3.207   1.206  34.634  1.1703 -0.0048  2.7808
  444TIP3   OH222822   2.611   2.645  34.004 -1.0177  0.4608  0.5077
  444TIP3    H122823   2.666   2.723  33.998 -1.3669  0.6621 -0.2867
  444TIP3    H222824   2.588   2.638  34.096  1.2108 -0.2538  1.0938
  445TIP3   OH222825   3.211   0.382  37.157  0.1759  0.6841 -0.0852
  445TIP3    H122826   3.149   0.447  37.188  1.4411  1.5551  0.7390
  445TIP3    H222827   3.296   0.414  37.187  1.1074 -0.1429 -1.6762
  446TIP3   OH222828   2.713   0.389  32.275 -0.3441 -0.1332 -0.1849
  446TIP3    H122829   2.655   0.460  32.246  1.5612  0.8054 -1.9153
  446TIP3    H222830   2.801   0.426  32.268  0.6054 -2.1081  0.6387
  447TIP3   OH222831   0.944   0.293  44.575  0.3198 -0.1394 -0.8405
  447TIP3    H122832   0.985   0.368  44.617  1.2755 -0.1199 -1.7792
  447TIP3    H222833   0.850   0.311  44.580  0.4289  0.1793  0.6539
  448TIP3   OH222834   0.078   3.270  27.641 -0.0306  0.0823 -0.0564
  448TIP3    H122835  -0.014   3.288  27.622 -1.0967 -2.8988  1.6355
  448TIP3    H222836   0.090   3.298  27.732  0.2061 -1.1845  0.3142
  449TIP3   OH222837   2.407   1.242   7.047 -0.0076  0.0968  0.2768
  449TIP3    H122838   2.464   1.221   6.973  1.5913  2.4651  0.7191
  449TIP3    H222839   2.346   1.307   7.013 -0.9718 -0.7244  0.4058
  450TIP3   OH222840   2.882   2.934  33.637 -0.1658 -0.2669 -0.5686
  450TIP3    H122841   2.970   2.944  33.600 -0.5502 -3.2783 -2.6006
  450TIP3    H222842   2.828   2.998  33.591 -0.2163 -2.5924 -4.0489
  451TIP3   OH222843   2.977   1.691  43.496  0.0559 -0.8477 -0.4080
  451TIP3    H122844   2.977   1.728  43.584  1.1344  1.3696 -1.2754
  451TIP3    H222845   2.886   1.665  43.481 -0.4078 -0.0336  0.8702
  452TIP3   OH222846   0.346   1.538  10.027 -0.0094 -0.1550  0.1676
  452TIP3    H122847   0.295   1.585   9.961 -0.0892  1.5725  1.3762
  452TIP3    H222848   0.292   1.462  10.049 -0.6475  0.0295 -0.7024
  453TIP3   OH222849   2.230   3.672   1.108 -0.3529  0.0932 -0.2186
  453TIP3    H122850   2.300   3.619   1.070  0.1855 -0.3364  1.3156
  453TIP3    H222851   2.228   3.751   1.054 -0.2142 -0.8540 -1.6697
  454TIP3   OH222852   2.626   3.356   8.226 -0.1902  0.4698  0.0686
  454TIP3    H122853   2.702   3.382   8.277  0.4809 -0.1009 -0.6151
  454TIP3    H222854   2.623   3.418   8.153 -0.0912  0.1909 -0.1729
  455TIP3   OH222855   3.398   2.217  20.130 -0.4378  0.2162 -0.4346
  455TIP3    H122856   3.433   2.170  20.206  0.6086 -0.0214 -1.0496
  455TIP3    H222857   3.473   2.261  20.092 -0.6756 -0.6956 -2.0683
  456TIP3   OH222858   3.497   0.065  40.441  0.3007  0.1167 -0.1949
  456TIP3    H122859   3.506   0.140  40.500  2.6875 -1.7014  1.9612
  456TIP3    H222860   3.404   0.045  40.444  0.0370  1.2807  1.4509
  457TIP3   OH222861   3.474   1.455  47.309 -0.3910 -0.0685  0.4993
  457TIP3    H122862   3.477   1.362  47.287 -2.6593  0.1753 -1.2294
  457TIP3    H222863   3.395   1.465  47.362  0.3625  0.7541  1.5137
  458TIP3   OH222864   3.130   3.328  40.561 -0.1115 -0.3175 -0.7292
  458TIP3    H122865   3.201   3.362  40.615  0.1051 -1.2376 -0.4261
  458TIP3    H222866   3.089   3.260  40.614 -1.5855  0.5645 -0.6603
  459TIP3   OH222867   0.922   1.847  16.523  0.0158  0.4632  0.6616
  459TIP3    H122868   0.858   1.914  16.547 -0.2316  1.1522 -1.6471
  459TIP3    H222869   1.005   1.896  16.517  0.2026  0.1659  0.8249
  460TIP3   OH222870   0.328   1.693   2.468  0.6267 -0.2544  0.7403
  460TIP3    H122871   0.346   1.708   2.375 -3.6484 -0.0931 -0.2991
  460TIP3    H222872   0.324   1.598   2.477 -0.7941 -0.2727  0.2179
  461TIP3   OH222873   0.991   2.734  32.179  0.3846 -0.0365 -0.4261
  461TIP3    H122874   1.053   2.763  32.112  1.2658 -1.9724 -0.5148
  461TIP3    H222875   1.046   2.705  32.252 -0.4444 -0.8256 -0.0940
  462TIP3   OH222876   0.926   3.246  12.405 -0.4972 -0.0822 -0.5468
  462TIP3    H122877   0.877   3.193  12.468 -0.7573  1.0013  0.1985
  462TIP3    H222878   1.006   3.197  12.389 -0.6643 -0.6283  0.2459
  463TIP3   OH222879   0.859   0.516  35.338  0.2274  0.0048  0.3939
  463TIP3    H122880   0.878   0.566  35.258  0.6464 -1.0980 -0.2195
  463TIP3    H222881   0.943   0.512  35.384 -0.0629  0.8285  1.0163
  464TIP3   OH222882   1.009   1.639  44.542 -0.1538  0.0685 -0.1137
  464TIP3    H122883   1.023   1.556  44.588 -1.3986  0.0025  0.1694
  464TIP3    H222884   1.066   1.633  44.465  0.0968 -0.8671  0.1343
  465TIP3   OH222885   0.213   1.971   7.017  0.7042 -0.0149  0.1485
  465TIP3    H122886   0.124   1.999   6.998  0.5541 -0.9284 -0.5720
  465TIP3    H222887   0.209   1.935   7.106  0.4756  0.4464  0.3241
  466TIP3   OH222888   0.474   0.541  24.694 -0.2284 -0.0023  0.2809
  466TIP3    H122889   0.536   0.492  24.639 -1.3189  0.3588 -1.3298
  466TIP3    H222890   0.394   0.544  24.643 -0.5083  2.6455  0.7338
  467TIP3   OH222891   1.342   4.087  47.540 -0.2311 -0.0255 -0.9079
  467TIP3    H122892   1.265   4.043  47.576 -1.2523  2.4448  0.1625
  467TIP3    H222893   1.312   4.124  47.457 -0.3197  1.1756 -0.3591
  468TIP3   OH222894   2.422   2.173   6.762 -0.1238 -0.2204 -0.3373
  468TIP3    H122895   2.492   2.139   6.818  0.1174  0.5306 -0.1638
  468TIP3    H222896   2.453   2.259   6.735  0.5271 -1.2171 -3.0373
  469TIP3   OH222897   3.139   2.746  10.568  0.2675  0.2766  0.6244
  469TIP3    H122898   3.081   2.817  10.593 -2.8936 -2.1943  1.0099
  469TIP3    H222899   3.103   2.713  10.486  1.8159 -0.6704  0.2814
  470TIP3   OH222900   1.263   1.651  47.215  0.0049 -0.5362  0.2773
  470TIP3    H122901   1.318   1.636  47.292  0.5282  0.4859  0.1258
  470TIP3    H222902   1.290   1.584  47.152  0.6002 -0.4740  0.4602
  471TIP3   OH222903   3.995   1.248  17.161  0.1036  0.2341 -0.0239
  471TIP3    H122904   3.919   1.295  17.127  0.7564  0.0354 -1.9032
  471TIP3    H222905   4.035   1.208  17.084  1.7665 -0.1796  0.9879
  472TIP3   OH222906   1.945   0.954  34.444  0.0354 -0.7166  0.1196
  472TIP3    H122907   1.942   1.048  34.462  0.9660 -0.5355 -0.6044
  472TIP3    H222908   1.930   0.948  34.350  1.7192 -1.1482 -0.1470
  473TIP3   OH222909   1.161   0.967  35.317 -0.3122 -0.5560 -0.0352
  473TIP3    H122910   1.138   0.903  35.250 -1.8842 -1.9528  1.7067
  473TIP3    H222911   1.243   0.935  35.355 -0.9777 -1.4958  0.6765
  474TIP3   OH222912   0.886   0.912  40.647 -0.9596  0.3156  0.6246
  474TIP3    H122913   0.851   0.873  40.567 -0.4244  2.0558 -0.5296
  474TIP3    H222914   0.934   0.842  40.690  1.5714  0.0843 -2.3044
  475TIP3   OH222915   2.615   3.686   7.356  0.8489  0.7752 -0.0171
  475TIP3    H122916   2.592   3.594   7.369  1.0708  0.5435 -1.1450
  475TIP3    H222917   2.676   3.685   7.283  1.9861  1.6950  0.8849
  476TIP3   OH222918   3.920   0.581   2.849  0.4100  0.2823  0.0208
  476TIP3    H122919   3.905   0.613   2.938  1.3631 -3.9078  1.9503
  476TIP3    H222920   3.837   0.540   2.824  0.8964 -0.8155  0.1322
  477TIP3   OH222921   4.108   2.298  15.921 -0.2678  0.1201  0.0507
  477TIP3    H122922   4.100   2.383  15.963 -1.2715  0.2140 -0.3117
  477TIP3    H222923   4.030   2.291  15.865 -0.3378 -1.1419  0.2818
  478TIP3   OH222924   3.019   2.657  44.537 -0.7160 -0.5085  0.3052
  478TIP3    H122925   2.980   2.732  44.583  0.7020  0.8518 -0.6095
  478TIP3    H222926   3.107   2.649  44.574 -1.1948 -2.4718  1.1593
  479TIP3   OH222927   0.946   2.648   2.520 -0.1445  0.6200  0.3681
  479TIP3    H122928   1.003   2.580   2.484 -0.6178  1.0591 -1.2688
  479TIP3    H222929   0.857   2.620   2.496 -0.4636  1.0731  0.9824
  480TIP3   OH222930   0.594   1.754   9.466  0.4268 -0.0682 -0.3047
  480TIP3    H122931   0.651   1.822   9.502 -0.0838 -0.2530  0.9084
  480TIP3    H222932   0.529   1.739   9.535  1.1323 -2.5149 -0.0918
  481TIP3   OH222933   4.053   0.858   1.898 -0.2102  0.1485 -0.6891
  481TIP3    H122934   4.098   0.794   1.954  2.4968  0.8294 -1.9236
  481TIP3    H222935   4.039   0.934   1.955 -0.5739 -0.3772 -0.0614
  482TIP3   OH222936   0.513   3.221  35.775  0.4851  0.6591  0.1612
  482TIP3    H122937   0.457   3.297  35.761 -0.5748  0.1631  1.4454
  482TIP3    H222938   0.535   3.189  35.687  0.9795  2.4405 -0.3934
  483TIP3   OH222939   2.707   3.609   8.089 -0.2604 -0.0482  0.1364
  483TIP3    H122940   2.800   3.598   8.109 -0.0902 -1.0920 -1.0769
  483TIP3    H222941   2.705   3.683   8.028 -0.2697  0.2059  0.4438
  484TIP3   OH222942   1.808   3.128   1.164 -0.9032  0.8417 -0.3597
  484TIP3    H122943   1.803   3.212   1.210 -0.9512  1.2538 -1.1106
  484TIP3    H222944   1.798   3.150   1.072  0.0983  0.1217 -0.6595
  485TIP3   OH222945   2.942   0.902   6.231  0.0498 -0.2237 -0.8159
  485TIP3    H122946   2.986   0.870   6.310 -0.8870 -0.3490 -0.3408
  485TIP3    H222947   3.014   0.931   6.175  0.8464 -1.9739 -0.7493
  486TIP3   OH222948   2.157   3.949  47.651 -0.1718 -0.1803  0.0046
  486TIP3    H122949   2.083   3.984  47.700  0.2923 -0.2404  0.7604
  486TIP3    H222950   2.122   3.930  47.564 -0.9058  0.3099  0.1890
  487TIP3   OH222951   2.892   2.121  18.115  0.6710  0.2027 -0.2525
  487TIP3    H122952   2.825   2.146  18.178 -0.4397 -2.8316 -0.1007
  487TIP3    H222953   2.972   2.111  18.168  0.5315  0.7796  0.0833
  488TIP3   OH222954   0.128   2.019  46.007  0.4084 -0.2429  0.4644
  488TIP3    H122955   0.052   2.044  46.060  0.1536  0.9266 -0.3893
  488TIP3    H222956   0.115   1.927  45.988 -1.0753  0.0473 -0.0715
  489TIP3   OH222957   2.012   3.284  40.286  0.0414  0.0374  0.4317
  489TIP3    H122958   2.058   3.350  40.233  0.1074 -0.8847 -0.7037
  489TIP3    H222959   1.919   3.305  40.275  0.1030  0.7902  1.2350
  490TIP3   OH222960   3.776   1.446   1.408 -0.2316  0.0345  0.0887
  490TIP3    H122961   3.805   1.431   1.318  2.3687 -0.9436  1.0177
  490TIP3    H222962   3.717   1.373   1.426 -1.9540  1.0181 -1.2149
  491TIP3   OH222963   2.528   1.916  46.109  0.6436 -0.0582 -0.2299
  491TIP3    H122964   2.433   1.918  46.120  0.8444  1.1889  1.6588
  491TIP3    H222965   2.561   1.880  46.191  1.8164 -0.5495 -0.8956
  492TIP3   OH222966   0.518   0.898   0.818  0.4995  0.3320  0.2256
  492TIP3    H122967   0.589   0.863   0.873 -0.5594  0.0671  1.4795
  492TIP3    H222968   0.455   0.935   0.881 -0.5243  0.4570 -0.8436
  493TIP3   OH222969   1.860   0.647  45.871 -0.2165  0.0853  0.0920
  493TIP3    H122970   1.802   0.624  45.944 -2.1473  0.7217 -1.1747
  493TIP3    H222971   1.854   0.572  45.812  1.4349 -0.4808  0.5970
  494TIP3   OH222972   2.059   0.409  33.492  0.1270 -0.5632 -0.1848
  494TIP3    H122973   2.136   0.383  33.541  0.2103 -0.6793 -0.3745
  494TIP3    H222974   2.078   0.384  33.402 -1.6910 -4.2240  0.2832
  495TIP3   OH222975   0.881   3.770  38.627 -0.4727 -0.2875  0.3087
  495TIP3    H122976   0.900   3.713  38.702 -0.3330  1.5739  1.7894
  495TIP3    H222977   0.787   3.761  38.614 -0.5961 -0.2496  1.0903
  496TIP3   OH222978   2.162   0.475  44.448  0.3118  0.0654 -0.3531
  496TIP3    H122979   2.083   0.425  44.430  0.9935 -0.6858 -1.3192
  496TIP3    H222980   2.137   0.566  44.435  0.4169 -0.3004 -4.1422
  497TIP3   OH222981   0.505   0.188  15.131  0.7582 -0.5848 -0.2171
  497TIP3    H122982   0.435   0.140  15.086  1.0074 -0.1196 -1.1386
  497TIP3    H222983   0.466   0.215  15.214 -0.4404  0.3462 -1.0393
  498TIP3   OH222984   2.478   3.324  28.450 -0.1965 -0.3378  0.1383
  498TIP3    H122985   2.556   3.342  28.399 -0.3340  2.4014  0.7370
  498TIP3    H222986   2.415   3.290  28.386  0.1783  1.3846 -1.2476
  499TIP3   OH222987   4.022   0.714  14.617 -0.7813 -0.3797  0.1364
  499TIP3    H122988   3.951   0.725  14.554 -2.1886 -1.6217  1.4382
  499TIP3    H222989   4.022   0.621  14.637  0.7007 -0.2619  0.7824
  500TIP3   OH222990   0.129   3.597  13.005  0.2618  0.2029 -0.7092
  500TIP3    H122991   0.160   3.685  12.981  1.4965  0.3918  1.3197
  500TIP3    H222992   0.205   3.541  12.993 -0.2260 -0.4075 -0.9858
  501TIP3   OH222993   3.036   0.393  33.761  0.4376  0.4879 -0.3963
  501TIP3    H122994   3.095   0.461  33.793  1.0726  1.3990 -3.1803
  501TIP3    H222995   2.994   0.433  33.684 -2.4613 -0.7927  0.3849
  502TIP3   OH222996   1.386   2.481  39.368 -0.3187  0.0733  0.1416
  502TIP3    H122997   1.422   2.432  39.442 -0.6224  0.4502  0.5453
  502TIP3    H222998   1.291   2.465  39.373 -0.2226 -0.9785 -0.9593
  503TIP3   OH222999   2.201   0.598   5.472 -0.3756  0.2813  0.2573
  503TIP3    H123000   2.254   0.533   5.425  0.4032  1.9182 -1.2262
  503TIP3    H223001   2.217   0.579   5.564 -1.0484 -2.3082 -0.0802
  504TIP3   OH223002   0.288   0.041  34.040  0.5942  0.1992  0.3496
  504TIP3    H123003   0.335  -0.003  34.110  0.8188  0.3004  0.2641
  504TIP3    H223004   0.204   0.067  34.079  0.8179  0.4787  0.6535
  505TIP3   OH223005   0.904   1.293  40.908  0.4383 -0.5320  0.0192
  505TIP3    H123006   0.873   1.203  40.900  1.5815 -0.8079 -2.6138
  505TIP3    H223007   0.845   1.334  40.971 -0.7771 -2.8173  0.4728
  506TIP3   OH223008   3.010   1.771   1.784 -0.3041  0.2945 -0.1780
  506TIP3    H123009   3.000   1.801   1.694 -0.6003  0.4637 -0.0918
  506TIP3    H223010   2.994   1.850   1.837 -1.4582 -0.0718  0.0630
  507TIP3   OH223011   1.298   3.343  40.787 -0.0479  0.5672  0.1198
  507TIP3    H123012   1.304   3.439  40.790  1.6511  0.4842  0.3094
  507TIP3    H223013   1.310   3.321  40.694  1.3734  0.4710  0.3077
  508TIP3   OH223014   0.393   2.627  31.453  0.1791 -0.3134 -0.3575
  508TIP3    H123015   0.485   2.616  31.433  0.8262 -0.8976  2.4537
  508TIP3    H223016   0.367   2.707  31.407  1.6754 -0.8894 -2.3047
  509TIP3   OH223017   1.776   2.733  44.428 -0.1314  0.2604 -0.0678
  509TIP3    H123018   1.712   2.795  44.464 -0.7188  0.5519 -1.5329
  509TIP3    H223019   1.835   2.787  44.376  1.0334 -0.0833  0.8530
  510TIP3   OH223020   0.972   0.822   4.576  0.1683 -0.1987 -0.1066
  510TIP3    H123021   0.882   0.804   4.548  0.0706 -1.6729  1.0087
  510TIP3    H223022   1.010   0.873   4.505 -1.2160 -0.4932 -1.0951
  511TIP3   OH223023   3.970   1.069  36.072  0.5220  0.4187  0.4551
  511TIP3    H123024   3.887   1.100  36.107 -0.7310  0.5850 -2.3408
  511TIP3    H223025   4.018   1.150  36.050  0.4935  0.3349  0.0818
  512TIP3   OH223026   0.049   2.254  38.537  0.3700 -0.1061 -0.3258
  512TIP3    H123027  -0.026   2.271  38.481 -0.0468 -0.2087  0.1939
  512TIP3    H223028   0.062   2.159  38.533 -0.7327 -0.3490  1.0752
  513TIP3   OH223029   1.144   0.159  44.370 -0.0401  0.5816 -0.2126
  513TIP3    H123030   1.077   0.125  44.310 -0.9787  0.8155  0.6681
  513TIP3    H223031   1.114   0.132  44.457 -0.8512  3.5709  0.5723
  514TIP3   OH223032   0.526   0.727  35.395  0.7697 -0.3519 -0.0158
  514TIP3    H123033   0.527   0.823  35.388 -0.3364 -0.4064 -1.5885
  514TIP3    H223034   0.596   0.699  35.336  0.8770 -0.5258  0.1952
  515TIP3   OH223035   0.549   2.667  38.686  0.2053 -0.4853 -0.0974
  515TIP3    H123036   0.513   2.634  38.769  0.7090  0.1668  0.3958
  515TIP3    H223037   0.473   2.686  38.632 -0.1611  0.1207  0.6278
  516TIP3   OH223038   1.778   2.480   8.164 -0.0065  0.4061 -0.2868
  516TIP3    H123039   1.827   2.545   8.215 -0.1519 -0.4867  1.0372
  516TIP3    H223040   1.837   2.404   8.159  0.0091  0.4768 -1.4810
  517TIP3   OH223041   2.940   2.024  11.726  0.3720 -0.3494  0.4002
  517TIP3    H123042   2.959   1.952  11.666 -0.3812 -0.7002  0.5725
  517TIP3    H223043   2.932   2.101  11.670  1.1837 -0.3916  0.2150
  518TIP3   OH223044   3.904   3.906  31.134 -0.2741  0.4928  1.0072
  518TIP3    H123045   3.864   3.891  31.049  0.2787  0.9200  0.6624
  518TIP3    H223046   3.846   3.863  31.197 -0.5991  0.0445  0.4002
  519TIP3   OH223047   3.541   0.914  13.436 -0.8183 -0.0644  0.5047
  519TIP3    H123048   3.582   0.980  13.492  0.3540 -0.4302  0.0985
  519TIP3    H223049   3.490   0.860  13.497 -0.4558  0.2148  1.0669
  520TIP3   OH223050   1.205   2.140  14.771  0.0042 -0.0028 -0.1899
  520TIP3    H123051   1.224   2.227  14.736  1.5229 -0.5590 -0.8371
  520TIP3    H223052   1.165   2.093  14.698  0.5221 -0.2736 -0.3091
  521TIP3   OH223053   3.733   2.252  40.532 -0.3945 -0.0908  0.8398
  521TIP3    H123054   3.677   2.244  40.454 -0.1613 -1.7288  0.8089
  521TIP3    H223055   3.742   2.162  40.564  1.7693  0.1902  1.1724
  522TIP3   OH223056   2.437   1.029   2.245 -0.1244  0.2139 -0.9248
  522TIP3    H123057   2.470   1.117   2.264  3.9090 -1.3913  0.5611
  522TIP3    H223058   2.451   1.018   2.151 -0.0118  0.8858 -0.9931
  523TIP3   OH223059   1.629   0.945   9.340 -0.4779 -0.4429 -0.3225
  523TIP3    H123060   1.542   0.908   9.357 -0.0111 -2.1999 -1.5104
  523TIP3    H223061   1.667   0.958   9.426 -2.6244  2.2998  0.3579
  524TIP3   OH223062   0.575   2.471   7.007  0.2753  0.0959  0.2340
  524TIP3    H123063   0.587   2.493   6.914 -0.3991 -1.3366 -0.2171
  524TIP3    H223064   0.481   2.458   7.016  0.1051  1.8890  1.5429
  525TIP3   OH223065   1.685   2.981  15.239  0.0017 -0.0471 -0.1710
  525TIP3    H123066   1.610   2.938  15.199 -0.7222  1.2017 -0.2117
  525TIP3    H223067   1.761   2.936  15.201 -0.7045 -0.5456 -1.0395
  526TIP3   OH223068   4.064   1.601  39.367 -0.0985  1.0150  0.5427
  526TIP3    H123069   3.985   1.558  39.400 -0.3153  0.8472 -0.1641
  526TIP3    H223070   4.045   1.616  39.274  1.4241 -0.7643 -0.1081
  527TIP3   OH223071   2.773   3.202  33.476 -0.1208 -0.4530 -0.5916
  527TIP3    H123072   2.691   3.245  33.500  0.6888  0.1739  1.1654
  527TIP3    H223073   2.839   3.271  33.483  0.8118 -1.3608 -0.3032
  528TIP3   OH223074   1.872   1.434  12.027  0.2085 -0.5772 -0.1523
  528TIP3    H123075   1.808   1.362  12.032 -1.0273  0.5749  2.8274
  528TIP3    H223076   1.957   1.391  12.035 -0.4412 -1.7933  0.4247
  529TIP3   OH223077   3.850   1.502   9.796 -0.1284 -0.4288 -0.3619
  529TIP3    H123078   3.762   1.481   9.764 -1.5854  0.3748  2.7199
  529TIP3    H223079   3.866   1.591   9.764 -0.2808 -0.6910 -1.1985
  530TIP3   OH223080   3.391   0.552  36.924 -0.1915 -0.3018  0.2742
  530TIP3    H123081   3.317   0.509  36.881 -1.4244 -1.9145  3.6198
  530TIP3    H223082   3.352   0.625  36.972  1.1212  1.4514 -1.1946
  531TIP3   OH223083   1.813   2.814  10.598  0.7422  0.5882 -0.3280
  531TIP3    H123084   1.851   2.842  10.682  2.8398 -0.5542 -0.8266
  531TIP3    H223085   1.776   2.894  10.561 -1.3731  0.9046  2.1731
  532TIP3   OH223086   2.005   2.796  13.714  0.2140  0.3590 -0.0765
  532TIP3    H123087   2.067   2.829  13.649  0.2526  0.8807  0.2169
  532TIP3    H223088   2.020   2.701  13.717  0.8758  0.4603 -0.1328
  533TIP3   OH223089   3.170   1.783  13.301  0.4837  0.0025  0.1308
  533TIP3    H123090   3.205   1.704  13.259  1.3225  0.0067  0.7887
  533TIP3    H223091   3.186   1.853  13.238  1.1847 -0.0913  0.1955
  534TIP3   OH223092   1.060   0.969  46.411 -0.1404  0.1923  0.4463
  534TIP3    H123093   1.132   0.906  46.412 -1.0852 -0.9120  0.0797
  534TIP3    H223094   1.082   1.029  46.340  1.0179  0.5934  1.1202
  535TIP3   OH223095   1.184   3.659   1.680 -0.3295 -0.1102 -0.4607
  535TIP3    H123096   1.235   3.617   1.611 -2.2907 -2.2009 -0.7225
  535TIP3    H223097   1.118   3.710   1.633 -1.1526 -0.8776 -0.1577
  536TIP3   OH223098   0.922   2.532  35.427 -0.3047  0.6919 -0.0220
  536TIP3    H123099   0.994   2.575  35.474 -1.1345  2.1690 -0.0871
  536TIP3    H223100   0.935   2.439  35.446  1.9014  0.8654 -0.4106
  537TIP3   OH223101   2.056   2.594  44.194  0.2964  0.3224  0.5459
  537TIP3    H123102   1.991   2.616  44.127 -0.2659  0.2414  1.0623
  537TIP3    H223103   2.138   2.584  44.145  0.2840  2.1131  0.0946
  538TIP3   OH223104   3.659   2.302  34.927 -0.2466 -0.4244  0.3245
  538TIP3    H123105   3.685   2.285  35.018  0.4845 -1.1027  0.0063
  538TIP3    H223106   3.624   2.391  34.928  2.5665  0.8005  0.7359
  539TIP3   OH223107   0.711   3.627  44.616  0.2015 -0.5643 -0.2153
  539TIP3    H123108   0.793   3.591  44.651 -0.9080 -0.4289  2.8400
  539TIP3    H223109   0.650   3.553  44.619 -0.3648 -0.1001 -0.2822
  540TIP3   OH223110   2.394   3.105   2.827 -0.9869  0.1867 -0.1379
  540TIP3    H123111   2.404   3.137   2.737 -1.8310  0.0598 -0.2863
  540TIP3    H223112   2.373   3.183   2.878  0.0618  0.3531  0.0637
  541TIP3   OH223113   0.184   0.350  12.883  0.8617  0.0894  0.1311
  541TIP3    H123114   0.199   0.263  12.846  1.6760 -1.3151  3.3943
  541TIP3    H223115   0.267   0.396  12.871  1.4459 -0.7033  1.0619
  542TIP3   OH223116   2.848   0.075   0.544  0.3965  0.0519 -0.2667
  542TIP3    H123117   2.819  -0.008   0.506 -2.3820  0.1148  1.4434
  542TIP3    H223118   2.772   0.133   0.537  2.3174  2.6562 -1.6493
  543TIP3   OH223119   2.216   1.981  38.355 -0.4624  0.2649 -0.0727
  543TIP3    H123120   2.298   1.957  38.398 -0.4024  0.6118  0.0128
  543TIP3    H223121   2.155   1.996  38.427 -0.7379 -0.4710 -0.1455
  544TIP3   OH223122   0.157   3.100  40.232  0.0215  0.4519 -0.5400
  544TIP3    H123123   0.224   3.129  40.294  0.9306  0.9101 -1.7117
  544TIP3    H223124   0.190   3.018  40.196 -1.4793 -0.9471  1.0603
  545TIP3   OH223125   3.892   2.724  43.660  0.7106 -0.6143 -0.6966
  545TIP3    H123126   3.848   2.674  43.591  1.8075 -1.7763 -0.5759
  545TIP3    H223127   3.820   2.757  43.714 -0.1313 -0.3278 -1.9276
  546TIP3   OH223128   0.455   1.588  12.709 -0.5006 -0.3294 -0.1417
  546TIP3    H123129   0.393   1.611  12.778 -1.6918 -0.2619 -1.2069
  546TIP3    H223130   0.484   1.500  12.732 -1.3373 -0.5426  0.1390
  547TIP3   OH223131   0.549   1.686  42.796  0.2685 -0.3943 -0.2116
  547TIP3    H123132   0.491   1.632  42.742 -0.2790  0.7799 -0.8168
  547TIP3    H223133   0.500   1.700  42.877 -0.2014  0.3750 -0.6201
  548TIP3   OH223134   2.462   3.482  34.598 -0.2666 -0.4349 -0.0458
  548TIP3    H123135   2.405   3.506  34.671 -0.9177  0.4630 -0.8254
  548TIP3    H223136   2.419   3.406  34.558 -2.5105  1.7958 -2.2656
  549TIP3   OH223137   2.889   3.278   8.349  0.2322  0.4653 -0.1638
  549TIP3    H123138   2.977   3.313   8.362  0.5837 -0.1017 -0.9129
  549TIP3    H223139   2.899   3.214   8.279 -0.9724  1.1668 -1.0202
  550TIP3   OH223140   3.960   1.686  47.236 -0.2249  0.0465 -0.3926
  550TIP3    H123141   4.035   1.740  47.215  0.2355 -0.5995 -0.4511
  550TIP3    H223142   3.945   1.700  47.330 -0.0404  0.1892 -0.3848
  551TIP3   OH223143   3.206   2.443  19.970  0.0809  0.4283 -0.2021
  551TIP3    H123144   3.147   2.517  19.955 -0.8138 -0.0955  0.6650
  551TIP3    H223145   3.288   2.483  19.999  0.0761  1.1427 -1.1069
  552TIP3   OH223146   1.284   2.244  43.971 -0.0450  0.7982 -0.4477
  552TIP3    H123147   1.215   2.289  44.021  0.1621  1.0445 -0.3825
  552TIP3    H223148   1.274   2.277  43.882  0.8844  1.9256 -0.1661
  553TIP3   OH223149   3.492   3.566  31.600 -0.3187  0.0785  0.6822
  553TIP3    H123150   3.527   3.619  31.671 -3.2883  1.1889  1.4536
  553TIP3    H223151   3.455   3.630  31.539  0.8306 -0.9361 -1.1815
  554TIP3   OH223152   3.423   0.246  13.461 -0.1422 -0.7745  0.0637
  554TIP3    H123153   3.356   0.275  13.523  0.5409  1.9873 -0.3517
  554TIP3    H223154   3.505   0.273  13.501  0.4778 -1.2111 -0.8994
  555TIP3   OH223155   1.335   3.492  41.626  0.6361 -0.4796  0.0103
  555TIP3    H123156   1.289   3.507  41.709  0.4040  0.8344 -0.3314
  555TIP3    H223157   1.424   3.467  41.652 -0.1488 -2.8235  0.6784
  556TIP3   OH223158   0.598   0.155  35.071 -0.1547 -0.0612 -0.3217
  556TIP3    H123159   0.618   0.230  35.127  0.0619 -0.4035  0.0688
  556TIP3    H223160   0.673   0.149  35.011 -0.3673  0.2808 -0.6211
  557TIP3   OH223161   0.755   2.218  47.208  0.1370 -0.8067  0.4934
  557TIP3    H123162   0.850   2.230  47.214  0.1709 -1.3656  1.2398
  557TIP3    H223163   0.721   2.263  47.286 -0.3118  0.2753 -0.2899
  558TIP3   OH223164   0.772   3.792  27.824  0.2661  0.0169  0.1479
  558TIP3    H123165   0.742   3.703  27.806 -1.0811  0.4090  0.2986
  558TIP3    H223166   0.840   3.781  27.891  1.0094 -0.9740 -0.7417
  559TIP3   OH223167   2.866   0.287  26.434 -0.1613  0.0013  0.0609
  559TIP3    H123168   2.845   0.372  26.473  0.2309 -0.5192  1.4854
  559TIP3    H223169   2.957   0.270  26.461 -1.2215 -2.3228  2.7412
  560TIP3   OH223170   1.881   1.197  41.317  1.0637  0.4590 -0.1812
  560TIP3    H123171   1.868   1.111  41.358  0.5739  0.5582 -0.1258
  560TIP3    H223172   1.875   1.179  41.223  3.5998 -0.0216 -0.3383
  561TIP3   OH223173   0.380   1.812   8.511  0.3538  0.0613  0.0497
  561TIP3    H123174   0.425   1.771   8.585 -0.6737  0.2614  0.8125
  561TIP3    H223175   0.287   1.806   8.533  0.0206  0.0905 -1.2543
  562TIP3   OH223176   2.915   3.616  29.399 -0.1405 -0.2702 -0.6885
  562TIP3    H123177   2.969   3.689  29.427 -1.2349 -0.1245  1.2473
  562TIP3    H223178   2.831   3.656  29.375 -0.0670 -0.6860 -1.6786
  563TIP3   OH223179   3.596   0.303  14.064  0.1817 -0.0662  0.8938
  563TIP3    H123180   3.549   0.274  14.142  1.1798 -0.1454  1.4907
  563TIP3    H223181   3.676   0.251  14.064 -0.9228 -1.9373 -1.6131
  564TIP3   OH223182   0.649   2.531   7.396 -0.5423 -0.1029 -0.3473
  564TIP3    H123183   0.667   2.527   7.302 -1.1243  0.5486 -0.4928
  564TIP3    H223184   0.718   2.477   7.436  1.1039  1.4336 -0.9606
  565TIP3   OH223185   2.328   2.581  39.277 -0.0170  0.5983  0.3410
  565TIP3    H123186   2.280   2.658  39.245  0.6300  0.0518 -2.1073
  565TIP3    H223187   2.393   2.617  39.338  0.5379  2.0933 -1.0626
  566TIP3   OH223188   2.160   1.432   6.987  0.1904  0.2906  0.0954
  566TIP3    H123189   2.122   1.509   7.028  1.2727  0.7808  0.2207
  566TIP3    H223190   2.128   1.433   6.897  0.1398  0.8470  0.1207
  567TIP3   OH223191   2.245   3.743  32.949 -0.6253 -0.1185 -0.3591
  567TIP3    H123192   2.288   3.658  32.961  0.2432 -0.0008 -2.3316
  567TIP3    H223193   2.164   3.723  32.901  0.2057  0.2462 -1.9877
  568TIP3   OH223194   1.923   0.289   1.843 -0.1112 -0.2401 -0.0311
  568TIP3    H123195   2.013   0.259   1.849 -0.3365 -0.9057  0.1473
  568TIP3    H223196   1.882   0.260   1.924  0.3015  2.8879  1.4381
  569TIP3   OH223197   3.009   0.256  13.989 -0.1954  0.0987 -0.3207
  569TIP3    H123198   2.953   0.181  13.971 -0.4546 -0.0876  1.1286
  569TIP3    H223199   2.966   0.329  13.944 -1.3384 -0.1452  0.3362
  570TIP3   OH223200   0.597   1.284  46.422  0.4155  0.4716  0.0890
  570TIP3    H123201   0.550   1.328  46.493  0.7188 -0.5631  0.9553
  570TIP3    H223202   0.578   1.191  46.434  0.6130  0.2581 -1.0875
  571TIP3   OH223203   3.969   0.339  28.927  0.7725  0.3920  0.6400
  571TIP3    H123204   3.922   0.258  28.908 -1.4744  1.3030  1.9003
  571TIP3    H223205   4.058   0.323  28.896  0.1376 -2.1438 -0.1196
  572TIP3   OH223206   3.815   3.683  33.831  0.3870 -0.2441 -0.5622
  572TIP3    H123207   3.894   3.718  33.789  0.4704  1.4690  0.9332
  572TIP3    H223208   3.758   3.660  33.757  1.9320 -0.7669 -1.6593
  573TIP3   OH223209   0.676   2.518  11.269  0.4492 -0.0679 -0.4063
  573TIP3    H123210   0.617   2.551  11.336 -2.1310 -0.4648 -2.3332
  573TIP3    H223211   0.683   2.590  11.206  1.1453 -0.4170 -0.7355
  574TIP3   OH223212   0.458   0.336   2.356  0.1917 -0.9144 -0.1161
  574TIP3    H123213   0.460   0.271   2.426  0.1011 -2.7894 -1.7485
  574TIP3    H223214   0.418   0.413   2.395 -2.3047 -2.7394  1.2123
  575TIP3   OH223215   0.889   1.257  45.048 -0.0541 -0.2431 -0.1587
  575TIP3    H123216   0.935   1.238  44.967  0.3306  0.4646 -0.1150
  575TIP3    H223217   0.851   1.344  45.035  0.1103 -0.0689  0.4582
  576TIP3   OH223218   0.893   0.764   4.035  0.4124  0.2645 -0.3281
  576TIP3    H123219   0.801   0.784   4.051  1.1952  3.8649  0.6814
  576TIP3    H223220   0.939   0.802   4.110  2.7079 -2.7109 -0.0416
  577TIP3   OH223221   2.498   2.829  47.099  0.0202  0.0442  0.5651
  577TIP3    H123222   2.461   2.750  47.136 -0.4149  0.5461  1.2177
  577TIP3    H223223   2.560   2.861  47.165  1.4767 -0.6568 -0.4057
  578TIP3   OH223224   2.161   2.776  34.968 -0.0244 -0.3522 -0.1068
  578TIP3    H123225   2.076   2.821  34.969  1.7232  3.2970 -0.5152
  578TIP3    H223226   2.165   2.735  34.881 -0.9805  0.2651 -0.4577
  579TIP3   OH223227   0.302   0.148  45.123  0.1218 -0.4900  0.3127
  579TIP3    H123228   0.393   0.144  45.094 -0.0564 -1.4949 -0.1877
  579TIP3    H223229   0.282   0.241  45.130  1.1800 -0.2615  0.4188
  580TIP3   OH223230   0.036   0.373   1.388  0.2487  0.8977 -0.0895
  580TIP3    H123231  -0.026   0.391   1.458 -0.7164  2.5679 -1.3089
  580TIP3    H223232  -0.017   0.370   1.308  1.0855 -2.4434 -0.6925
  581TIP3   OH223233   2.208   3.004  32.056 -0.4904 -0.2294  0.4860
  581TIP3    H123234   2.192   3.000  31.961  1.9127 -0.3709  0.0420
  581TIP3    H223235   2.245   3.091  32.070 -3.0495  0.7640  1.7504
  582TIP3   OH223236   3.906   1.083   0.724 -0.5195 -0.0645  0.2554
  582TIP3    H123237   3.896   1.178   0.728  0.3486  0.0039  1.8714
  582TIP3    H223238   3.881   1.052   0.811 -1.7911 -1.4621 -0.5515
  583TIP3   OH223239   0.232   2.075  10.903  0.0292  0.1794  0.2618
  583TIP3    H123240   0.291   2.075  10.978  0.2405 -1.7227  0.1316
  583TIP3    H223241   0.287   2.048  10.829 -0.5049  0.5957 -0.3030
  584TIP3   OH223242   2.315   0.748  43.740 -0.8099  0.9406 -0.2304
  584TIP3    H123243   2.376   0.806  43.784 -1.3159  1.2016  0.1426
  584TIP3    H223244   2.259   0.714  43.810 -0.0912 -0.5452 -0.3379
  585TIP3   OH223245   3.347   2.370  21.649 -0.2272  0.4204  0.1590
  585TIP3    H123246   3.390   2.296  21.691  1.6884  1.8976  0.9261
  585TIP3    H223247   3.255   2.361  21.676  0.2928 -0.6345  1.7817
  586TIP3   OH223248   3.423   2.885  14.400 -0.8365  0.3739  0.1654
  586TIP3    H123249   3.445   2.812  14.342 -1.7863 -0.8615  1.3124
  586TIP3    H223250   3.435   2.850  14.488 -2.3002  1.2710  0.7442
  587TIP3   OH223251   0.872   3.185   5.377  0.3532  0.2976 -0.6238
  587TIP3    H123252   0.951   3.225   5.415  0.8508  0.0923 -1.4293
  587TIP3    H223253   0.896   3.094   5.363  0.1290  0.3401 -1.2994
  588TIP3   OH223254   1.468   4.047  32.334  0.4407 -0.1430  0.1797
  588TIP3    H123255   1.557   4.082  32.328  0.7037 -0.7688  0.2819
  588TIP3    H223256   1.444   4.025  32.244  0.7538 -0.8182  0.2486
  589TIP3   OH223257   1.272   3.994   8.099 -0.1223  0.2054 -0.1335
  589TIP3    H123258   1.255   3.917   8.153 -1.4253 -0.2940 -1.2042
  589TIP3    H223259   1.242   4.068   8.152 -0.3477 -0.1720  0.2640
  590TIP3   OH223260   3.944   2.037  20.912 -0.4063 -0.5314  0.3566
  590TIP3    H123261   3.955   2.125  20.948  1.3619 -0.1810 -0.9097
  590TIP3    H223262   3.871   2.045  20.850 -0.7906 -0.1633  0.8478
  591TIP3   OH223263   2.617   2.540  38.323  1.2347  0.2422 -0.0113
  591TIP3    H123264   2.689   2.478  38.337  0.5801 -0.2994  1.1037
  591TIP3    H223265   2.565   2.502  38.252  1.3097 -0.0499  0.0859
  592TIP3   OH223266   0.443   0.891  46.773 -0.1541  0.1091 -0.0859
  592TIP3    H123267   0.390   0.812  46.785 -2.2649  1.0028 -2.6337
  592TIP3    H223268   0.496   0.873  46.695 -0.0411  0.9080 -0.2024
  593TIP3   OH223269   1.787   3.076  10.577  0.9489  0.6528 -0.1329
  593TIP3    H123270   1.862   3.083  10.637  0.1347 -0.7245  1.1115
  593TIP3    H223271   1.721   3.134  10.614  0.4838 -0.1136  0.2544
  594TIP3   OH223272   0.804   3.074  43.332  0.1918  0.3731 -0.3150
  594TIP3    H123273   0.807   3.157  43.381  0.2432  0.8166 -1.0592
  594TIP3    H223274   0.714   3.069  43.299  0.7039  1.1475 -1.9592
  595TIP3   OH223275   0.362   2.763  42.088 -0.1020  0.2364 -0.2461
  595TIP3    H123276   0.390   2.672  42.095  0.3544  0.4662  1.5633
  595TIP3    H223277   0.394   2.804  42.169 -0.7662  1.8734 -0.7667
  596TIP3   OH223278   2.203   1.413  16.313 -0.2780 -0.8311  0.0903
  596TIP3    H123279   2.291   1.377  16.301 -1.0415 -2.9777  0.4390
  596TIP3    H223280   2.199   1.487  16.253  1.7818 -0.6168  0.1287
  597TIP3   OH223281   1.516   1.203  12.270  0.0131 -0.5233 -0.1035
  597TIP3    H123282   1.550   1.277  12.320 -1.1591 -0.0065 -0.0215
  597TIP3    H223283   1.421   1.206  12.285 -0.4238 -0.2143 -2.5049
  598TIP3   OH223284   0.559   3.392  46.209  0.1679  0.1231  0.3508
  598TIP3    H123285   0.625   3.386  46.140 -1.4495  1.9785 -1.4886
  598TIP3    H223286   0.596   3.453  46.272 -0.1010  1.9041 -1.1395
  599TIP3   OH223287   2.813   2.477  35.448 -0.1512 -0.0205  0.4349
  599TIP3    H123288   2.854   2.418  35.384  1.6035  0.7064  0.8325
  599TIP3    H223289   2.719   2.460  35.438  0.1109 -0.6566 -1.6237
  600TIP3   OH223290   3.351   2.366  20.397 -0.0032  0.1213  0.3816
  600TIP3    H123291   3.296   2.394  20.470 -1.7065  1.2866 -1.2637
  600TIP3    H223292   3.432   2.414  20.408  0.1091 -0.3806  1.9677
  601TIP3   OH223293   2.381   1.329   0.442  0.4787 -0.8007 -0.4250
  601TIP3    H123294   2.384   1.234   0.433 -3.1277 -1.2066  0.7757
  601TIP3    H223295   2.312   1.357   0.382  2.2315  1.3024 -1.6165
  602TIP3   OH223296   2.773   3.200  10.118  0.4454  0.3703  0.2710
  602TIP3    H123297   2.723   3.269  10.075  1.6548  1.0406 -0.1095
  602TIP3    H223298   2.752   3.121  10.068  1.3258  1.0186 -1.1901
  603TIP3   OH223299   1.988   0.833  33.494 -0.0290 -0.6470  0.1790
  603TIP3    H123300   2.059   0.770  33.503  0.4370 -0.5598 -2.1873
  603TIP3    H223301   1.958   0.823  33.403 -2.7681 -0.3707  0.9753
  604TIP3   OH223302   3.334   0.799  33.828  0.0456  0.5898  0.5928
  604TIP3    H123303   3.403   0.740  33.798  0.8469  2.2806 -1.1370
  604TIP3    H223304   3.364   0.829  33.914  0.6117 -0.0065  0.6087
  605TIP3   OH223305   1.602   2.608  45.822  0.1561  0.1577  1.0677
  605TIP3    H123306   1.522   2.558  45.803  0.4752 -0.7122  1.9298
  605TIP3    H223307   1.642   2.562  45.896  2.0920 -0.1260 -0.0945
  606TIP3   OH223308   2.363   4.084  45.936 -0.5064  0.0759  0.4638
  606TIP3    H123309   2.402   4.049  46.016 -0.8890 -1.1442  0.1375
  606TIP3    H223310   2.437   4.094  45.875 -0.4936 -0.9411  0.2975
  607TIP3   OH223311   3.929   2.180  46.844  0.0035  0.1794  0.0460
  607TIP3    H123312   3.840   2.148  46.858  0.1539 -0.5056 -0.5288
  607TIP3    H223313   3.978   2.104  46.814  1.2477  0.0956  2.0863
  608TIP3   OH223314   1.921   2.053  20.222  0.2024  0.1973 -0.3094
  608TIP3    H123315   1.971   1.994  20.277 -1.2020  0.2088  1.0521
  608TIP3    H223316   1.899   2.001  20.144  0.4829 -0.4978  0.0711
  609TIP3   OH223317   0.048   3.014  10.626  0.1490  0.0257 -0.1285
  609TIP3    H123318   0.022   2.925  10.604  0.4885 -0.2195  0.4410
  609TIP3    H223319   0.065   3.056  10.542  3.7630 -1.5800 -0.3517
  610TIP3   OH223320   1.489   0.171  46.524 -0.0406 -0.0767  0.0604
  610TIP3    H123321   1.573   0.179  46.569 -0.6288 -0.9218  1.3631
  610TIP3    H223322   1.424   0.192  46.591 -0.9034  0.2015 -0.8315
  611TIP3   OH223323   3.754   4.101   2.085 -0.4655 -0.6878  0.2303
  611TIP3    H123324   3.783   4.179   2.037 -1.5623 -0.2593  0.2311
  611TIP3    H223325   3.684   4.064   2.031 -1.2060 -0.6271  1.1091
  612TIP3   OH223326   1.489   3.390  44.750  0.5346 -0.3624  0.0288
  612TIP3    H123327   1.481   3.337  44.830 -2.4469  0.1581  0.1787
  612TIP3    H223328   1.494   3.326  44.679 -1.5333 -0.9415  0.3291
  613TIP3   OH223329   3.819   1.248  41.607 -0.4904  0.1686  0.9683
  613TIP3    H123330   3.819   1.344  41.613  1.3148  0.3206 -0.5272
  613TIP3    H223331   3.906   1.222  41.639 -0.5339 -0.8613  0.2843
  614TIP3   OH223332   2.083   2.198  21.253 -0.5489 -0.0557 -0.6105
  614TIP3    H123333   2.069   2.104  21.240 -0.0864  0.0791 -2.3029
  614TIP3    H223334   2.047   2.239  21.175  0.7012  1.0401 -0.6498
  615TIP3   OH223335   3.488   0.084  13.121  0.2572  0.6019  0.0933
  615TIP3    H123336   3.411   0.137  13.144  1.3623  1.8141  1.2303
  615TIP3    H223337   3.490   0.014  13.187  0.1216  0.5635  0.0565
  616TIP3   OH223338   2.887   3.532  10.977  0.1399 -0.1520  0.2566
  616TIP3    H123339   2.807   3.500  11.018 -0.6969  1.8720  0.2963
  616TIP3    H223340   2.869   3.529  10.883  0.6582 -1.2196  0.1707
  617TIP3   OH223341   2.782   0.053  40.271 -0.3469  0.2921 -0.0271
  617TIP3    H123342   2.728   0.119  40.225  0.4694  1.1518  0.2145
  617TIP3    H223343   2.775  -0.025  40.216  1.9026  1.7253 -2.6316
  618TIP3   OH223344   3.921   1.775  37.585 -0.0444 -0.3487  0.1967
  618TIP3    H123345   3.978   1.849  37.566  0.2064 -0.7633 -0.7577
  618TIP3    H223346   3.979   1.707  37.618 -0.2686 -0.1378  1.0390
  619TIP3   OH223347   0.157   3.000  13.006 -0.4631  0.7508 -0.5346
  619TIP3    H123348   0.062   2.994  12.994 -0.7371 -0.1519  1.5544
  619TIP3    H223349   0.177   2.929  13.068  1.7412  0.2515 -1.7261
  620TIP3   OH223350   0.019   0.902  35.392 -0.0561 -0.5263  0.3174
  620TIP3    H123351   0.110   0.897  35.361  0.5875 -0.9218  2.1444
  620TIP3    H223352  -0.007   0.811  35.405 -0.5227 -0.3932  0.3215
  621TIP3   OH223353   0.889   2.547  21.089  0.0539  0.0650 -0.1103
  621TIP3    H123354   0.860   2.457  21.104  1.1239 -0.0798  1.4205
  621TIP3    H223355   0.933   2.571  21.171  0.1325  1.8472 -0.6409
  622TIP3   OH223356   0.361   3.048  40.406  0.3213 -0.1251 -0.0901
  622TIP3    H123357   0.360   3.065  40.501 -1.2776 -0.1871 -0.0598
  622TIP3    H223358   0.404   2.963  40.397  2.4516  0.8619  0.3602
  623TIP3   OH223359   3.129   1.507  39.060  0.0709 -0.3134  0.1913
  623TIP3    H123360   3.042   1.499  39.100 -0.4051  0.2840 -0.6779
  623TIP3    H223361   3.143   1.422  39.019  0.4186 -0.8141  1.3134
  624TIP3   OH223362   1.361   1.300  32.487  0.2082  0.3095 -0.2358
  624TIP3    H123363   1.415   1.369  32.524  3.0961 -1.6500 -0.4817
  624TIP3    H223364   1.273   1.319  32.520  1.3077  2.6601  1.7077
  625TIP3   OH223365   0.074   2.764   9.103 -0.0113  0.9698  0.0215
  625TIP3    H123366   0.077   2.859   9.102 -2.4682  1.1303 -0.0038
  625TIP3    H223367   0.017   2.742   9.177  0.7296 -0.5067  0.2010
  626TIP3   OH223368   2.332   2.815  40.942  0.0959 -0.0838 -0.0638
  626TIP3    H123369   2.239   2.833  40.949  0.0381 -0.4782  0.2559
  626TIP3    H223370   2.367   2.835  41.030  0.1671 -0.7172  0.0560
  627TIP3   OH223371   3.421   0.669  40.269 -0.0634 -0.3660 -0.4044
  627TIP3    H123372   3.442   0.635  40.182 -0.6418 -0.5412 -0.4853
  627TIP3    H223373   3.488   0.735  40.287 -0.0457 -0.2003 -1.0597
  628TIP3   OH223374   0.610   0.195  43.569  0.0574 -0.1497  0.3842
  628TIP3    H123375   0.626   0.290  43.562  1.0375 -0.3226  0.0132
  628TIP3    H223376   0.698   0.157  43.574 -0.1701 -1.2686 -2.5404
  629TIP3   OH223377   1.069   3.171  40.548 -0.0727 -0.2466  0.3648
  629TIP3    H123378   0.984   3.145  40.513 -0.0500 -1.3382  1.0866
  629TIP3    H223379   1.050   3.242  40.609 -0.0333  2.3849 -2.4078
  630TIP3   OH223380   3.190   0.321   6.970 -0.0096 -0.0930 -0.1085
  630TIP3    H123381   3.111   0.311   6.917 -0.2811  0.3083  0.2185
  630TIP3    H223382   3.184   0.409   7.006  1.1346  0.3690 -0.9751
  631TIP3   OH223383   0.928   3.736   6.194  0.3735  0.0148 -0.3040
  631TIP3    H123384   0.875   3.694   6.127 -0.2149  0.4312 -0.1057
  631TIP3    H223385   0.869   3.746   6.269  0.7606  0.3823 -0.0423
  632TIP3   OH223386   0.704   2.690   9.711  0.4043  0.4444 -0.2866
  632TIP3    H123387   0.646   2.628   9.755 -0.8211  2.0018  0.4063
  632TIP3    H223388   0.763   2.721   9.779  0.8194  0.2605 -0.5582
  633TIP3   OH223389   0.374   0.986  41.616 -0.4120 -0.2707 -0.2440
  633TIP3    H123390   0.377   1.043  41.693  0.5476  1.5172 -1.5268
  633TIP3    H223391   0.349   1.045  41.544 -1.5696 -1.9428 -1.2762
  634TIP3   OH223392   3.412   0.531  33.144  1.0048  0.8020 -1.0331
  634TIP3    H123393   3.354   0.584  33.199  0.9027 -2.3470  2.3141
  634TIP3    H223394   3.354   0.496  33.076  0.2872  2.1132 -1.1221
  635TIP3   OH223395   3.126   1.112  16.338 -0.1175  0.3315 -0.3896
  635TIP3    H123396   3.046   1.092  16.388  0.0078 -1.5158 -0.8536
  635TIP3    H223397   3.193   1.057  16.377  1.1614  2.3225  0.4032
  636TIP3   OH223398   3.214   1.361  16.617  0.3408  0.0413 -0.3371
  636TIP3    H123399   3.234   1.395  16.705 -2.1824 -0.9990  0.7425
  636TIP3    H223400   3.206   1.266  16.629 -1.6180  0.0346 -1.2931
  637TIP3   OH223401   0.028   1.696  44.552 -0.1759 -0.8748  0.3937
  637TIP3    H123402   0.021   1.619  44.609 -1.1777 -0.4830  0.8145
  637TIP3    H223403  -0.062   1.718  44.530  0.2039 -1.5506 -2.1282
  638TIP3   OH223404   1.218   0.686  11.175  0.0198 -0.0192 -0.0830
  638TIP3    H123405   1.138   0.724  11.213  0.8704  1.5296  0.2302
  638TIP3    H223406   1.210   0.704  11.082 -0.9026 -1.6434 -0.3600
  639TIP3   OH223407   3.379   3.049  39.672 -0.1164 -0.0750  0.0189
  639TIP3    H123408   3.385   3.133  39.625 -1.1102 -0.2867 -0.5027
  639TIP3    H223409   3.293   3.014  39.648 -0.2726 -0.6115  1.3025
  640TIP3   OH223410   2.120   2.037  13.176  0.0096  0.4384  0.3052
  640TIP3    H123411   2.061   1.974  13.217 -1.3437 -0.4415 -2.7373
  640TIP3    H223412   2.201   1.988  13.160 -0.7246 -0.3429 -1.2321
  641TIP3   OH223413   3.189   1.637  16.161  0.3414  0.5458 -1.0222
  641TIP3    H123414   3.114   1.627  16.103  0.4391  2.0508 -1.4364
  641TIP3    H223415   3.165   1.586  16.239  0.2173 -1.5334 -2.3205
  642TIP3   OH223416   1.669   0.131   5.406  0.4890 -0.1238  0.3135
  642TIP3    H123417   1.760   0.118   5.379  0.5078 -1.4571  0.9443
  642TIP3    H223418   1.629   0.045   5.398 -0.9253  0.5751 -0.6041
  643TIP3   OH223419   3.197   2.756   3.571  0.2817  0.2536 -0.6794
  643TIP3    H123420   3.220   2.687   3.509 -1.9210 -1.3946  0.2090
  643TIP3    H223421   3.270   2.757   3.634  0.5535 -0.9749 -0.9488
  644TIP3   OH223422   0.073   3.118  46.305 -0.0765  0.0622  0.0072
  644TIP3    H123423   0.139   3.146  46.368  0.7285  0.4331 -0.9835
  644TIP3    H223424   0.102   3.031  46.278  1.0486  0.9535 -1.7895
  645TIP3   OH223425   3.442   2.064   4.222  0.1123 -0.0644 -0.0674
  645TIP3    H123426   3.457   2.134   4.158  0.1474  0.7079  0.7662
  645TIP3    H223427   3.450   1.983   4.171  0.7105  0.5127 -0.9209
  646TIP3   OH223428   4.056   3.029  40.042  0.3453 -0.3008  0.3069
  646TIP3    H123429   4.138   3.057  40.083 -0.3530 -0.0631  1.5655
  646TIP3    H223430   4.066   3.054  39.950  1.5756 -0.0349  0.4944
  647TIP3   OH223431   1.899   3.648  25.967 -0.0975 -0.0213  0.0553
  647TIP3    H123432   1.937   3.562  25.944 -1.8370 -0.8691  0.1644
  647TIP3    H223433   1.885   3.643  26.061  0.0814  0.5284  0.1124
  648TIP3   OH223434   4.004   2.381  43.397 -0.5213  0.3394  0.5146
  648TIP3    H123435   3.992   2.310  43.333 -1.4059  0.2007  0.8279
  648TIP3    H223436   4.099   2.398  43.396  0.3357 -3.2167  2.9073
  649TIP3   OH223437   0.411   3.086  14.155  0.3287  0.2588 -0.1328
  649TIP3    H123438   0.498   3.065  14.121  0.6380 -2.4797  2.0348
  649TIP3    H223439   0.424   3.103  14.248 -1.3665  0.6639  0.0755
  650TIP3   OH223440   2.451   0.489  46.615 -0.1591  0.1038  0.2061
  650TIP3    H123441   2.422   0.398  46.605 -0.7897  0.2643  0.5435
  650TIP3    H223442   2.478   0.515  46.527 -0.2034 -0.3332  0.0621
  651TIP3   OH223443   0.248   1.839   3.919  0.2281 -0.2495  0.1526
  651TIP3    H123444   0.274   1.747   3.922 -3.0382 -1.4596 -2.2606
  651TIP3    H223445   0.232   1.864   4.010 -1.0825 -2.8511  0.7048
  652TIP3   OH223446   2.416   0.180  40.023  0.1653 -0.0508 -0.0588
  652TIP3    H123447   2.333   0.164  40.067 -0.1258 -0.2293 -0.6801
  652TIP3    H223448   2.396   0.179  39.930  0.7126  0.7093 -0.1987
  653TIP3   OH223449   1.809   2.467  39.619  0.1231  0.2295  0.3860
  653TIP3    H123450   1.787   2.554  39.652  2.3634  0.4824  1.3715
  653TIP3    H223451   1.784   2.407  39.689  1.6739  0.4336  1.1411
  654TIP3   OH223452   3.037   1.301  44.597 -0.1164 -0.4279  0.6447
  654TIP3    H123453   3.123   1.272  44.566  0.0774  0.6709  0.1203
  654TIP3    H223454   3.057   1.360  44.670 -0.3040  1.4288 -0.7562
  655TIP3   OH223455   2.027   2.449   5.529 -0.4882 -0.0581 -0.1462
  655TIP3    H123456   2.021   2.531   5.481  0.3145  1.0060  1.4818
  655TIP3    H223457   1.954   2.396   5.495  0.2806  0.4244 -2.7650
  656TIP3   OH223458   1.646   3.734   2.714  0.6958  0.1011  0.3030
  656TIP3    H123459   1.651   3.826   2.739 -0.7593  0.4785 -0.6597
  656TIP3    H223460   1.664   3.734   2.619 -1.7094 -0.2459 -0.2096
  657TIP3   OH223461   3.821   3.134  32.430 -0.2385  0.6708  0.3044
  657TIP3    H123462   3.889   3.118  32.495  0.4950  1.0209 -0.3634
  657TIP3    H223463   3.860   3.107  32.347 -1.5896 -0.8937  0.1383
  658TIP3   OH223464   3.253   1.454  11.039  0.0656 -0.0111 -0.0403
  658TIP3    H123465   3.337   1.496  11.061  0.1450  0.6586 -1.5319
  658TIP3    H223466   3.271   1.405  10.959  0.4422 -4.4344  2.4395
  659TIP3   OH223467   3.629   2.363  20.096  0.0759 -0.4127 -0.7198
  659TIP3    H123468   3.688   2.363  20.171  0.1097  2.9540 -0.6251
  659TIP3    H223469   3.686   2.353  20.020  0.6891  1.5983 -0.5565
  660TIP3   OH223470   2.903   1.330   2.284  0.2135 -0.0735  0.2794
  660TIP3    H123471   2.867   1.344   2.196 -0.0538  1.5079  0.5993
  660TIP3    H223472   2.998   1.336   2.272  0.1721  0.2893  0.1089
  661TIP3   OH223473   3.847   2.132   8.541  0.3269 -0.0416 -0.5222
  661TIP3    H123474   3.837   2.076   8.617 -0.6072  0.0303 -0.5746
  661TIP3    H223475   3.927   2.102   8.499 -0.1590 -1.3637 -0.5614
  662TIP3   OH223476   2.503   3.928  41.584 -0.1892  0.0770 -0.0864
  662TIP3    H123477   2.574   3.908  41.646 -0.5304  0.9738  0.6241
  662TIP3    H223478   2.542   3.915  41.498  1.4617  2.3362  0.2116
  663TIP3   OH223479   0.778   1.203  15.660 -0.1468  0.0421  0.2955
  663TIP3    H123480   0.851   1.224  15.718  0.5698  1.8665 -1.1701
  663TIP3    H223481   0.700   1.224  15.712  0.2324 -2.5248  2.1044
  664TIP3   OH223482   3.302   2.484  39.625  0.4051 -0.1294 -0.0850
  664TIP3    H123483   3.292   2.395  39.659  0.8307  0.1824  0.8945
  664TIP3    H223484   3.377   2.520  39.673 -0.8622  1.3670  0.8891
  665TIP3   OH223485   2.634   3.378  36.764  0.2709  0.4469  0.0822
  665TIP3    H123486   2.560   3.342  36.715  0.0589  2.6789 -1.3808
  665TIP3    H223487   2.711   3.357  36.712  0.0438  2.8348 -1.3392
  666TIP3   OH223488   0.126   1.732  33.480  0.1118  1.0639 -0.4191
  666TIP3    H123489   0.036   1.749  33.506  0.5776  2.0406  0.6408
  666TIP3    H223490   0.164   1.819  33.466  1.3718  0.7672  0.8744
  667TIP3   OH223491   0.586   1.814  39.018 -0.7737 -0.8109  0.0061
  667TIP3    H123492   0.522   1.803  39.089 -1.1646 -0.3520 -0.2754
  667TIP3    H223493   0.582   1.907  38.996  0.8427 -0.5265  0.7666
  668TIP3   OH223494   2.733   0.700   5.346  0.3051 -0.4636  0.3218
  668TIP3    H123495   2.747   0.611   5.313 -0.6261 -0.4735 -0.1030
  668TIP3    H223496   2.780   0.755   5.284 -0.9954 -0.5228 -0.7729
  669TIP3   OH223497   2.997   2.351   9.204  0.5011 -0.3501  0.0037
  669TIP3    H123498   2.945   2.430   9.189 -0.4888 -1.0638 -0.5031
  669TIP3    H223499   3.086   2.382   9.219  0.4858  0.7803 -1.9384
  670TIP3   OH223500   0.762   3.775  41.467  0.4917 -0.2435  0.0510
  670TIP3    H123501   0.718   3.693  41.488  2.9887 -1.7153 -0.0467
  670TIP3    H223502   0.728   3.837  41.531 -1.9844 -1.0938 -0.2972
  671TIP3   OH223503   3.091   3.646   6.155 -0.0146  0.0787 -0.2021
  671TIP3    H123504   3.079   3.660   6.249  0.8806 -1.0263  0.0962
  671TIP3    H223505   3.063   3.728   6.115 -0.6652  0.4744  1.0043
  672TIP3   OH223506   0.610   0.214  46.450  0.2513  0.1781 -0.0241
  672TIP3    H123507   0.622   0.272  46.374  1.1144 -2.4997 -2.0744
  672TIP3    H223508   0.521   0.180  46.439  0.6592 -0.8262 -0.3384
  673TIP3   OH223509   1.203   3.588  13.612 -0.2464  0.0186  0.2120
  673TIP3    H123510   1.202   3.645  13.690 -1.5804  1.1340 -0.5809
  673TIP3    H223511   1.223   3.647  13.540 -3.0508 -0.1615 -0.8370
  674TIP3   OH223512   1.273   4.058  47.052  0.0614  0.5558 -0.2782
  674TIP3    H123513   1.315   3.972  47.058  0.0688  0.5030 -1.0492
  674TIP3    H223514   1.235   4.060  46.964  1.4688  1.9815 -0.8942
  675TIP3   OH223515   3.777   0.489  30.201 -0.0500  0.3570 -0.4087
  675TIP3    H123516   3.728   0.515  30.123  0.4799  0.8422 -0.5863
  675TIP3    H223517   3.847   0.555  30.208  0.6207 -0.3667 -0.2059
  676TIP3   OH223518   2.182   1.542  12.452  0.3003  0.3114  0.7687
  676TIP3    H123519   2.114   1.544  12.519 -0.2117 -0.2747  0.2791
  676TIP3    H223520   2.252   1.596  12.488 -0.9987  2.1825  0.6581
  677TIP3   OH223521   1.212   2.042  37.422 -0.3787 -0.3682 -0.2194
  677TIP3    H123522   1.147   1.996  37.475 -1.0775  0.5039 -0.2902
  677TIP3    H223523   1.190   2.135  37.432  1.0402 -0.0281 -0.0058
  678TIP3   OH223524   1.174   3.498  38.240  0.1333 -0.0062  0.1990
  678TIP3    H123525   1.190   3.577  38.187  0.9328 -0.1164  0.2616
  678TIP3    H223526   1.089   3.514  38.280 -0.4109  0.1689 -0.9619
  679TIP3   OH223527   0.193   1.456  14.502 -0.6435  0.1255  0.0568
  679TIP3    H123528   0.202   1.362  14.519  1.0994 -0.3692 -2.8417
  679TIP3    H223529   0.278   1.493  14.528 -0.4618  0.4640 -0.9723
  680TIP3   OH223530   1.247   2.605   2.321  0.4342  0.9346  0.0095
  680TIP3    H123531   1.171   2.617   2.264  0.9115  1.2690 -0.5671
  680TIP3    H223532   1.214   2.554   2.395 -0.7819  2.5543  0.6552
  681TIP3   OH223533   3.291   0.682  37.353 -0.1147  0.4318  0.0112
  681TIP3    H123534   3.307   0.595  37.390  2.3598  0.2541 -1.2754
  681TIP3    H223535   3.326   0.743  37.419  1.2918  0.2653 -0.5579
  682TIP3   OH223536   0.453   2.521  42.073  0.1641 -0.3856 -0.0452
  682TIP3    H123537   0.477   2.483  41.988  2.6617 -1.1538  0.8951
  682TIP3    H223538   0.509   2.475  42.136 -0.2307  1.4886  1.7945
  683TIP3   OH223539   0.398   3.819  33.556  0.2081 -0.0917 -0.0355
  683TIP3    H123540   0.371   3.822  33.648  2.6359 -1.3064  0.8074
  683TIP3    H223541   0.412   3.911  33.533  0.3132  0.1906  1.0739
  684TIP3   OH223542   3.258   2.267   6.683  0.1550 -0.1875  0.4206
  684TIP3    H123543   3.261   2.359   6.655  2.2199 -0.4923 -0.5008
  684TIP3    H223544   3.255   2.272   6.779 -1.4873  0.8229  0.3571
  685TIP3   OH223545   0.264   2.657  11.558  0.6038 -0.0018  0.0421
  685TIP3    H123546   0.251   2.751  11.571 -0.2385 -0.0413 -0.4642
  685TIP3    H223547   0.192   2.616  11.606 -1.1764 -0.2363 -2.6125
  686TIP3   OH223548   0.915   2.932  36.938  0.0816  0.0667  0.1468
  686TIP3    H123549   0.984   2.991  36.907  0.3281 -0.4526 -0.3019
  686TIP3    H223550   0.857   2.921  36.863 -0.3751  0.3278  0.4600
  687TIP3   OH223551   0.696   0.865  15.688  0.2996  0.1710 -0.5763
  687TIP3    H123552   0.713   0.958  15.698 -2.4705  0.8548 -1.2964
  687TIP3    H223553   0.676   0.834  15.776  1.3582  0.2083 -0.3165
  688TIP3   OH223554   3.675   2.710  30.981 -0.0792  0.1503  0.4924
  688TIP3    H123555   3.584   2.690  30.960  0.0757 -1.3001  1.0319
  688TIP3    H223556   3.711   2.747  30.901 -0.9236 -0.0572  0.0034
  689TIP3   OH223557   1.025   0.671  47.659  0.3257  0.0063  0.2804
  689TIP3    H123558   0.960   0.667  47.729  1.3091 -0.1243  1.2313
  689TIP3    H223559   0.996   0.742  47.603  0.2292  1.0487  1.6005
  690TIP3   OH223560   0.985   2.284   0.035 -0.1005  0.1188 -0.3235
  690TIP3    H123561   0.954   2.203   0.075  1.6100 -1.0837 -1.2611
  690TIP3    H223562   1.000   2.261  -0.057 -0.1371  1.6736 -0.7447
  691TIP3   OH223563   1.353   2.901  41.711  0.4349  0.2116  0.4052
  691TIP3    H123564   1.413   2.907  41.637  0.2520 -0.9726  0.1328
  691TIP3    H223565   1.311   2.987  41.716  1.0809  0.5765 -0.3184
  692TIP3   OH223566   2.699   0.514  40.810  0.0552 -0.2446  0.5941
  692TIP3    H123567   2.680   0.607  40.803  0.1340 -0.3194 -0.8243
  692TIP3    H223568   2.769   0.509  40.875  0.9315  0.8229 -0.2166
  693TIP3   OH223569   2.782   0.173   9.222  0.1046 -0.4335  0.3703
  693TIP3    H123570   2.792   0.127   9.306 -2.9076  2.1127  2.3564
  693TIP3    H223571   2.856   0.234   9.219  0.7317 -1.1569  0.7015
  694TIP3   OH223572   1.581   2.132  17.523  0.9182  0.2126 -0.2950
  694TIP3    H123573   1.543   2.083  17.597  2.0384  0.0564  0.2084
  694TIP3    H223574   1.673   2.143  17.547  1.2604  0.3457 -1.5787
  695TIP3   OH223575   2.243   2.859  43.071 -0.2736  0.0209  0.0934
  695TIP3    H123576   2.332   2.893  43.079 -0.8726  1.4606  0.9120
  695TIP3    H223577   2.254   2.764  43.074  1.3013  0.1415 -0.6864
  696TIP3   OH223578   0.865   2.694  44.857  0.3271  0.7892  0.6803
  696TIP3    H123579   0.859   2.746  44.937 -1.6524  1.5768  0.0932
  696TIP3    H223580   0.877   2.604  44.888 -0.9855  0.9991  1.9159
  697TIP3   OH223581   0.078   0.295  28.597 -0.3781 -0.2968  0.0817
  697TIP3    H123582   0.069   0.328  28.686  0.4974  2.0351 -0.6219
  697TIP3    H223583   0.104   0.371  28.545  2.2971 -2.1759 -1.6104
  698TIP3   OH223584   0.409   3.284  31.507 -0.1430 -0.3371 -0.3606
  698TIP3    H123585   0.349   3.356  31.489  0.5191  0.2461 -0.3010
  698TIP3    H223586   0.405   3.229  31.429  0.5174  0.6117 -1.0958
  699TIP3   OH223587   0.625   2.093  39.127 -0.2348  0.0708 -0.4871
  699TIP3    H123588   0.547   2.126  39.083 -1.4985 -0.9070  0.9129
  699TIP3    H223589   0.676   2.171  39.148 -0.8995  0.7378 -1.2905
  700TIP3   OH223590   3.986   4.053  38.091  0.6259 -0.1483 -0.0673
  700TIP3    H123591   4.025   4.113  38.026  1.7965 -2.8208 -2.0157
  700TIP3    H223592   3.920   4.006  38.042  0.3615 -1.0928  1.1643
  701TIP3   OH223593   0.078   2.763  11.973 -0.0925 -0.1397 -0.2336
  701TIP3    H123594   0.044   2.774  12.062  0.7492  2.1660 -0.1202
  701TIP3    H223595   0.003   2.781  11.917 -0.5437 -1.2676 -0.0242
  702TIP3   OH223596   1.557   1.238   6.558  0.1588 -0.1957  0.2590
  702TIP3    H123597   1.480   1.284   6.525 -0.9901 -2.5415 -0.6194
  702TIP3    H223598   1.619   1.238   6.485  0.5346  0.6484  0.5601
  703TIP3   OH223599   3.800   1.356  33.762  0.0403 -0.4975  0.1037
  703TIP3    H123600   3.729   1.318  33.815 -0.2867 -0.5629 -0.3757
  703TIP3    H223601   3.877   1.303  33.784  0.0831 -0.0757  1.0491
  704TIP3   OH223602   3.583   2.016   8.379 -0.4395 -0.0245 -0.2832
  704TIP3    H123603   3.598   1.928   8.346  2.5399  0.0729  0.5351
  704TIP3    H223604   3.622   2.015   8.467 -0.5272  2.0341 -0.1774
  705TIP3   OH223605   3.816   3.478  14.473  1.1782 -0.1330  0.1459
  705TIP3    H123606   3.876   3.519  14.536  1.1339  0.4219 -0.1731
  705TIP3    H223607   3.735   3.527  14.480  1.2352  0.0613 -0.4886
  706TIP3   OH223608   0.880   1.295  10.062 -0.2689  0.0132 -0.4798
  706TIP3    H123609   0.875   1.390  10.072 -1.3169  0.0557 -1.2342
  706TIP3    H223610   0.928   1.282   9.980 -0.4452 -0.1016 -0.5648
  707TIP3   OH223611   4.080   3.893  45.168  0.0304  0.0084  0.1294
  707TIP3    H123612   4.171   3.903  45.196  0.4088 -1.7707 -0.2949
  707TIP3    H223613   4.030   3.884  45.250  0.3438  0.2652  0.3489
  708TIP3   OH223614   0.310   2.016  40.712  0.3415 -0.3347  0.0500
  708TIP3    H123615   0.344   2.065  40.786 -0.7445  0.4076  0.0714
  708TIP3    H223616   0.251   2.076  40.668  1.6282 -0.4329 -1.9702
  709TIP3   OH223617   0.555   2.960  11.294  0.4007 -0.6237 -0.7638
  709TIP3    H123618   0.605   2.956  11.213 -0.0593 -1.5284 -1.0212
  709TIP3    H223619   0.505   2.878  11.296  0.4790 -0.6697  0.4848
  710TIP3   OH223620   3.731   1.291  11.829 -0.6511 -0.2153 -0.5042
  710TIP3    H123621   3.760   1.202  11.847 -0.3995  0.0006  0.1991
  710TIP3    H223622   3.812   1.340  11.814 -0.6634  0.2428  0.7842
  711TIP3   OH223623   3.220   1.034   8.993  0.2214 -0.4970  0.8059
  711TIP3    H123624   3.218   1.105   8.930  0.5871 -1.5062 -0.3807
  711TIP3    H223625   3.142   1.048   9.047  0.9596  1.5021  1.4475
  712TIP3   OH223626   2.036   0.655   1.323  0.0622 -0.5042  0.1328
  712TIP3    H123627   2.129   0.632   1.320 -0.1898 -1.4311 -1.6111
  712TIP3    H223628   2.023   0.712   1.248 -0.9862 -1.1941 -0.2207
  713TIP3   OH223629   0.614   3.264   5.904  0.3829 -0.0045  0.1727
  713TIP3    H123630   0.608   3.337   5.843  1.2846  0.0892  0.1823
  713TIP3    H223631   0.706   3.260   5.927  0.2888 -0.9593  0.4128
  714TIP3   OH223632   3.287   3.563  14.437 -0.5005  0.0334  0.1072
  714TIP3    H123633   3.298   3.481  14.484  0.0439 -0.8178 -1.4248
  714TIP3    H223634   3.352   3.559  14.367 -0.2874  1.9031  0.1581
  715TIP3   OH223635   1.685   3.454   6.029 -0.3631  0.1244  0.2176
  715TIP3    H123636   1.766   3.456   5.977 -1.7411  3.1839 -2.1653
  715TIP3    H223637   1.705   3.510   6.105  0.3329 -0.8067  0.7436
  716TIP3   OH223638   3.507   2.530  39.799 -0.3273 -0.2412 -0.4240
  716TIP3    H123639   3.488   2.601  39.860  0.8017 -0.5182  0.2778
  716TIP3    H223640   3.581   2.483  39.839 -0.8645 -1.6369 -1.0122
  717TIP3   OH223641   0.675   0.412  46.273  0.0481 -0.2788 -0.7160
  717TIP3    H123642   0.597   0.414  46.217  1.1479  3.2682 -2.4094
  717TIP3    H223643   0.748   0.402  46.212  1.4679  5.8452 -0.6169
  718TIP3   OH223644   2.145   2.369  40.195  0.7495 -0.5136  0.1953
  718TIP3    H123645   2.212   2.413  40.143  0.7581 -1.5041 -0.6617
  718TIP3    H223646   2.078   2.344  40.131 -0.8189  1.1100  1.1314
  719TIP3   OH223647   2.658   0.683  33.450 -0.3296 -0.6172  0.5671
  719TIP3    H123648   2.691   0.599  33.483  1.7728 -1.2638 -2.7053
  719TIP3    H223649   2.707   0.749  33.499  2.8385 -1.5278 -1.0366
  720TIP3   OH223650   3.459   0.574  41.166 -0.0948 -0.0345  0.5396
  720TIP3    H123651   3.506   0.494  41.190  3.7998  1.8336 -0.1354
  720TIP3    H223652   3.518   0.645  41.190 -1.0122  2.4595 -3.6121
  721TIP3   OH223653   2.355   2.999  32.939  0.8392 -0.1827  0.5063
  721TIP3    H123654   2.417   3.061  32.903  0.8633 -0.9768 -0.8914
  721TIP3    H223655   2.336   3.032  33.027  0.9943  1.6658 -0.1165
  722TIP3   OH223656   3.013   1.030  11.116 -1.2375 -0.6505 -0.5312
  722TIP3    H123657   3.037   0.937  11.109  1.4198 -0.1084  0.2061
  722TIP3    H223658   2.930   1.030  11.164 -0.9416 -2.6315  0.0724
  723TIP3   OH223659   3.550   1.198  15.597 -0.0640  0.2653 -0.5833
  723TIP3    H123660   3.465   1.239  15.614 -0.3672 -0.6670  0.2796
  723TIP3    H223661   3.573   1.157  15.681  0.8548 -0.1668 -1.0400
  724TIP3   OH223662   2.608   0.449   2.697  0.1927  0.8068  0.2737
  724TIP3    H123663   2.594   0.359   2.667 -1.3054  0.9394  0.5397
  724TIP3    H223664   2.666   0.487   2.630  0.1052 -0.0801 -0.3223
  725TIP3   OH223665   1.616   1.124   4.892 -0.4046  0.5497 -0.3305
  725TIP3    H123666   1.530   1.097   4.924 -0.1432 -0.7894 -0.6996
  725TIP3    H223667   1.601   1.210   4.851 -1.6726  0.0719 -0.9081
  726TIP3   OH223668   2.629   2.495  33.339  0.2852  0.0690  0.5562
  726TIP3    H123669   2.611   2.442  33.262  0.7477  0.0353  0.4649
  726TIP3    H223670   2.719   2.525  33.327  0.3465  0.1013  1.0565
  727TIP3   OH223671   2.845   0.426  43.778  0.2075  0.5703 -0.1261
  727TIP3    H123672   2.791   0.504  43.767  1.7312  1.4570 -1.8196
  727TIP3    H223673   2.814   0.366  43.710 -1.2295 -0.5690  1.4155
  728TIP3   OH223674   1.179   1.763  32.976  0.0654 -0.2163  0.5467
  728TIP3    H123675   1.095   1.719  32.988  1.2633 -2.7306  0.3414
  728TIP3    H223676   1.240   1.693  32.956  2.0240  1.6632 -0.4741
  729TIP3   OH223677   3.225   0.333   6.304 -0.5303  1.0554 -0.1970
  729TIP3    H123678   3.260   0.250   6.338 -1.8718 -0.7205 -2.7903
  729TIP3    H223679   3.292   0.364   6.244 -0.8829  0.7821 -0.7326
  730TIP3   OH223680   1.523   1.136  36.154  0.5573  0.3109 -0.2229
  730TIP3    H123681   1.611   1.173  36.151  0.8130  0.0564  2.1852
  730TIP3    H223682   1.506   1.121  36.247 -1.0330 -2.0938 -0.8058
  731TIP3   OH223683   4.038   0.328  32.476  0.5803  0.2246 -0.0013
  731TIP3    H123684   4.042   0.233  32.461  1.5149  0.3501 -0.6199
  731TIP3    H223685   4.008   0.337  32.566 -1.4892 -0.6307 -0.5187
  732TIP3   OH223686   1.688   0.505   2.613  0.5827  0.0219  0.0777
  732TIP3    H123687   1.669   0.503   2.707 -2.7582  1.1923 -0.4185
  732TIP3    H223688   1.753   0.575   2.603 -0.9704  1.7637  1.3708
  733TIP3   OH223689   2.682   1.345  33.708  0.5349  0.3415 -0.4949
  733TIP3    H123690   2.701   1.251  33.700  2.2484  0.4453  1.6151
  733TIP3    H223691   2.750   1.388  33.657 -0.5404  0.4636 -1.8695
  734TIP3   OH223692   2.310   4.096  41.833  0.5428 -0.3409  0.4541
  734TIP3    H123693   2.395   4.128  41.802  1.0675 -1.4379  0.7227
  734TIP3    H223694   2.271   4.053  41.757  1.0057 -1.3637  0.7693
  735TIP3   OH223695   0.874   3.394  38.224 -0.1785  0.2323  0.1836
  735TIP3    H123696   0.785   3.358  38.228  0.4406 -1.3382  0.4722
  735TIP3    H223697   0.928   3.332  38.273  0.9598  1.6082  0.7652
  736TIP3   OH223698   2.224   1.138   1.829  0.3756 -0.4480  0.2883
  736TIP3    H123699   2.233   1.233   1.839 -0.0866 -0.4770  1.0557
  736TIP3    H223700   2.130   1.123   1.831  0.3960 -0.8371 -0.7934
  737TIP3   OH223701   0.390   3.906   9.986 -0.0147  0.5725 -0.4735
  737TIP3    H123702   0.481   3.879  10.002  0.0300  0.5653 -0.7331
  737TIP3    H223703   0.364   3.857   9.908 -0.5004 -0.0115  0.0534
  738TIP3   OH223704   1.725   0.403  31.214 -0.2744 -0.6390 -0.0814
  738TIP3    H123705   1.746   0.475  31.274  1.6220 -1.3779  0.1827
  738TIP3    H223706   1.656   0.439  31.157  1.2275  1.7227 -0.5409
  739TIP3   OH223707   2.108   3.929  32.751 -0.3589 -0.0633 -0.2196
  739TIP3    H123708   2.099   3.971  32.837 -2.0035  0.6227 -0.6792
  739TIP3    H223709   2.147   3.997  32.696 -0.3280 -0.1170 -0.2642
  740TIP3   OH223710   1.095   2.592  33.572 -0.2566 -0.1826 -0.2514
  740TIP3    H123711   1.014   2.546  33.596 -0.3771  0.6377  0.9937
  740TIP3    H223712   1.083   2.681  33.605  0.7666  0.2187 -0.9107
  741TIP3   OH223713   0.940   2.009  39.704 -0.3087 -0.8853 -0.0603
  741TIP3    H123714   0.852   2.046  39.709  0.2975  0.8564 -1.2476
  741TIP3    H223715   0.944   1.971  39.616  0.2981 -0.4383 -0.2308
  742TIP3   OH223716   2.486   0.974  39.081  0.0062 -0.1698 -0.0283
  742TIP3    H123717   2.429   0.897  39.074  0.6465 -0.6076 -0.5639
  742TIP3    H223718   2.515   0.974  39.172 -0.0306 -0.5418 -0.0160
  743TIP3   OH223719   0.827   1.428  45.469  0.2557  0.0160 -0.1834
  743TIP3    H123720   0.812   1.339  45.499  1.2616 -0.5765 -1.3335
  743TIP3    H223721   0.864   1.473  45.544 -0.3396 -0.5028  0.4384
  744TIP3   OH223722   1.023   1.437   7.777  0.1703 -0.4079  0.9936
  744TIP3    H123723   1.092   1.392   7.729 -0.1496 -0.9799  1.0609
  744TIP3    H223724   1.063   1.463   7.860  1.0988  1.6975 -0.0458
  745TIP3   OH223725   3.516   4.009  11.210 -0.7856  0.1224  0.1983
  745TIP3    H123726   3.475   4.083  11.254 -1.3896  0.5513 -1.0620
  745TIP3    H223727   3.606   4.038  11.192 -1.2751  0.9056 -1.0850
  746TIP3   OH223728   2.973   3.414  45.654  0.2647  0.2350 -0.3372
  746TIP3    H123729   2.934   3.496  45.622 -0.0551 -0.1958 -1.0822
  746TIP3    H223730   3.030   3.386  45.583  1.2253  0.3685  0.3642
  747TIP3   OH223731   3.809   0.521  14.181 -0.5851  0.3121  0.4786
  747TIP3    H123732   3.750   0.463  14.230 -0.8623 -0.9303 -1.2716
  747TIP3    H223733   3.751   0.567  14.120 -0.0749  0.9756  0.4870
  748TIP3   OH223734   3.649   0.748   3.680 -0.3142 -0.1031 -0.2159
  748TIP3    H123735   3.714   0.727   3.613 -0.1856 -0.0164 -0.1176
  748TIP3    H223736   3.689   0.818   3.731 -0.0388 -0.7633  0.4953
  749TIP3   OH223737   1.352   2.510  37.168 -0.0467 -0.1647  0.1835
  749TIP3    H123738   1.352   2.548  37.255 -0.5853 -0.2848  0.2347
  749TIP3    H223739   1.325   2.582  37.110  2.3033  0.5282 -0.1647
  750TIP3   OH223740   0.541   1.760   6.711 -0.0334 -0.3076 -0.3740
  750TIP3    H123741   0.467   1.749   6.651 -0.8447  1.6797  0.2059
  750TIP3    H223742   0.538   1.852   6.737  3.0904  0.0625 -0.9032
  751TIP3   OH223743   3.877   1.038  14.783  0.1320 -0.5367 -0.1729
  751TIP3    H123744   3.920   0.961  14.820 -0.8874 -0.2637  1.7524
  751TIP3    H223745   3.799   1.003  14.740  0.1062 -0.6690 -0.0230
  752TIP3   OH223746   0.980   2.241  13.788  0.7098 -0.4533 -0.1350
  752TIP3    H123747   0.935   2.323  13.808  1.9807  0.7622 -1.8823
  752TIP3    H223748   1.059   2.243  13.843  0.1759 -1.1030  0.6798
  753TIP3   OH223749   0.466   1.032  14.784 -0.1632 -0.2951 -0.0375
  753TIP3    H123750   0.419   0.949  14.794 -0.6743  0.1382  1.3615
  753TIP3    H223751   0.520   1.039  14.863  0.3427  0.4188 -0.4374
  754TIP3   OH223752   3.069   4.079  11.171 -0.4345  0.0703  0.2597
  754TIP3    H123753   3.000   4.052  11.231 -0.3908  0.3361  0.4276
  754TIP3    H223754   3.149   4.077  11.223 -0.3275 -0.1453  0.0898
  755TIP3   OH223755   2.389   0.762   8.986 -0.2732  0.3883 -0.5522
  755TIP3    H123756   2.334   0.686   9.000 -1.3692  1.4625  1.3804
  755TIP3    H223757   2.351   0.830   9.041  0.5194  2.4274 -2.3745
  756TIP3   OH223758   2.089   2.337  41.256 -0.0567  0.4220 -0.0917
  756TIP3    H123759   2.160   2.352  41.193  0.7500 -0.0912  0.6780
  756TIP3    H223760   2.069   2.244  41.248 -0.7257  0.5808 -0.3714
  757TIP3   OH223761   3.248   1.282   3.242  0.3122 -0.2839 -0.0516
  757TIP3    H123762   3.315   1.343   3.274  0.4559 -1.1150  1.3059
  757TIP3    H223763   3.286   1.196   3.255 -1.4863 -0.8434  1.9439
  758TIP3   OH223764   3.356   2.536  11.665  0.1641 -0.2783  0.0805
  758TIP3    H123765   3.322   2.450  11.643 -1.6538 -0.1119  1.8881
  758TIP3    H223766   3.438   2.519  11.710 -0.1515 -1.0878  0.3627
  759TIP3   OH223767   0.879   1.203  44.325  0.5745 -0.1077 -0.1402
  759TIP3    H123768   0.868   1.288  44.281  1.4097  0.8096  1.3387
  759TIP3    H223769   0.959   1.167  44.288 -0.3803 -0.8350 -1.6082
  760TIP3   OH223770   2.686   3.149  37.557  0.1073  0.3536 -0.0470
  760TIP3    H123771   2.667   3.089  37.629  0.9892 -0.3968 -0.4053
  760TIP3    H223772   2.642   3.110  37.481  0.0597  0.5662 -0.1297
  761TIP3   OH223773   3.994   3.158  36.307 -0.1766  0.2387 -0.1762
  761TIP3    H123774   3.951   3.075  36.326  0.7280 -0.1562  0.1705
  761TIP3    H223775   3.922   3.216  36.280 -0.7463 -0.8283 -1.0403
  762TIP3   OH223776   3.875   1.422   3.596 -0.1917 -0.1528  0.0392
  762TIP3    H123777   3.950   1.480   3.582 -0.9691  0.6808 -0.8689
  762TIP3    H223778   3.913   1.341   3.629  1.2108 -0.0526 -1.2147
  763TIP3   OH223779   2.743   2.149  13.120 -0.0627 -0.2699 -0.6142
  763TIP3    H123780   2.658   2.141  13.163 -0.4626 -1.9449 -1.6220
  763TIP3    H223781   2.760   2.061  13.085  2.0034  0.0865 -0.5862
  764TIP3   OH223782   2.447   1.158   1.244  0.1137  0.0203 -0.0805
  764TIP3    H123783   2.353   1.167   1.230  0.1085  0.5673  0.2760
  764TIP3    H223784   2.455   1.129   1.335  0.3149  0.5967  0.0863
  765TIP3   OH223785   0.509   1.534  34.997 -0.1544 -0.5397 -0.6284
  765TIP3    H123786   0.567   1.610  34.990 -1.0878  0.3836  0.9643
  765TIP3    H223787   0.526   1.483  34.918  2.2366  0.0911 -0.6005
  766TIP3   OH223788   0.596   0.391  10.521  0.0753 -0.0349 -0.4589
  766TIP3    H123789   0.611   0.423  10.432  0.8142 -2.4321 -1.2924
  766TIP3    H223790   0.665   0.432  10.573  0.6887  0.0975 -1.3451
  767TIP3   OH223791   0.813   0.499  42.352 -0.7000 -0.2790  0.4298
  767TIP3    H123792   0.854   0.485  42.438 -3.1093  0.4959  1.8288
  767TIP3    H223793   0.856   0.436  42.294  1.5275 -0.3240  2.0117
  768TIP3   OH223794   1.078   0.789   2.394 -0.0688  0.1316  0.4537
  768TIP3    H123795   1.078   0.734   2.473 -0.7177 -0.8307 -0.1901
  768TIP3    H223796   1.080   0.727   2.322  1.2454  1.0168 -0.3056
  769TIP3   OH223797   0.281   3.707   1.744 -0.1173  0.0884 -0.3436
  769TIP3    H123798   0.305   3.620   1.712 -0.1944  0.1806 -0.6544
  769TIP3    H223799   0.327   3.768   1.686  0.5947  0.2578  0.3800
  770TIP3   OH223800   3.621   4.047   9.748 -0.3187 -0.8660  0.0657
  770TIP3    H123801   3.594   3.961   9.781  0.6581 -0.8276  1.0044
  770TIP3    H223802   3.707   4.032   9.710 -1.6638 -1.0560 -3.2573
  771TIP3   OH223803   2.322   1.655   2.577  0.3603 -0.2903 -0.6612
  771TIP3    H123804   2.298   1.676   2.486  0.6996  2.0024 -0.2664
  771TIP3    H223805   2.413   1.682   2.585  0.8568 -1.9955 -0.0445
  772TIP3   OH223806   0.974   0.669  31.765  0.0726  0.3962 -0.6525
  772TIP3    H123807   1.028   0.592  31.778 -1.2324 -0.2937  1.0006
  772TIP3    H223808   0.953   0.668  31.671  2.9679  0.7960 -1.3925
  773TIP3   OH223809   2.015   0.571   6.018 -0.2104 -0.2785  0.0299
  773TIP3    H123810   2.082   0.551   6.084 -0.4294 -0.9890  0.0476
  773TIP3    H223811   2.022   0.666   6.005 -0.2648 -0.1013  1.1764
  774TIP3   OH223812   3.941   3.614   7.455  0.2370  0.6191  0.0484
  774TIP3    H123813   4.035   3.624   7.466  0.0840  1.2405  0.9235
  774TIP3    H223814   3.909   3.703   7.439  0.1934  0.0555 -4.0347
  775TIP3   OH223815   0.826   3.195   6.534 -0.1141  0.0494  0.6070
  775TIP3    H123816   0.796   3.251   6.606 -2.1746 -0.8259  0.4955
  775TIP3    H223817   0.880   3.128   6.577  2.1022  1.8206  0.7767
  776TIP3   OH223818   0.961   1.426  21.876  0.1138  0.3198 -0.4624
  776TIP3    H123819   0.919   1.489  21.935 -1.4346 -0.0093 -1.1619
  776TIP3    H223820   0.954   1.466  21.790  2.3945  0.8146 -0.4741
  777TIP3   OH223821   1.440   1.333  11.548 -0.0081  0.5784 -0.0262
  777TIP3    H123822   1.513   1.311  11.491 -0.4273 -1.5090  0.1551
  777TIP3    H223823   1.370   1.359  11.488  1.3255  4.4552 -0.1424
  778TIP3   OH223824   1.474   2.303  41.181  0.0608  0.2743  0.2303
  778TIP3    H123825   1.405   2.369  41.182 -0.6187 -0.4328  0.4893
  778TIP3    H223826   1.524   2.320  41.261 -0.5171  0.0583  0.6429
  779TIP3   OH223827   1.245   2.232  13.940 -0.5053  0.0549 -0.2279
  779TIP3    H123828   1.322   2.230  13.883  0.7160 -0.0122  1.3383
  779TIP3    H223829   1.271   2.289  14.013 -1.1199 -1.7055  1.4434
  780TIP3   OH223830   2.854   3.734   3.615 -0.3682 -0.0323 -0.0952
  780TIP3    H123831   2.801   3.696   3.546 -3.3441  0.8984  1.4830
  780TIP3    H223832   2.826   3.688   3.695  0.2379  1.3939  0.9821
  781TIP3   OH223833   3.771   1.869  47.397 -0.1780  0.0159 -0.1167
  781TIP3    H123834   3.742   1.781  47.375 -2.6920  1.1929 -1.9211
  781TIP3    H223835   3.713   1.897  47.467  0.1070  0.5257 -0.0785
  782TIP3   OH223836   2.095   0.017  46.383  0.1352 -0.1271 -0.5034
  782TIP3    H123837   2.177   0.018  46.334  0.1551 -1.2356 -0.5094
  782TIP3    H223838   2.075  -0.076  46.396 -1.2818  0.1037 -0.7867
  783TIP3   OH223839   2.521   2.921  39.073 -0.0659 -0.4274 -0.0874
  783TIP3    H123840   2.450   2.923  39.137 -2.0526 -1.1089 -2.1090
  783TIP3    H223841   2.510   3.002  39.023  0.9749 -0.2570 -0.0485
  784TIP3   OH223842   3.931   1.347  34.052  0.0346 -0.4769 -0.1359
  784TIP3    H123843   3.887   1.266  34.029 -1.3114  0.5265 -1.2711
  784TIP3    H223844   3.861   1.413  34.054  1.0967  0.6878  0.6473
  785TIP3   OH223845   2.411   3.654  30.898 -0.2522 -0.5808  0.5347
  785TIP3    H123846   2.499   3.635  30.867  1.2407 -0.3922  4.1794
  785TIP3    H223847   2.419   3.734  30.950 -2.3166 -1.1116  1.8288
  786TIP3   OH223848   1.561   1.625  10.457  0.0417  0.2732 -0.2021
  786TIP3    H123849   1.562   1.630  10.362  1.0731  1.9294 -0.1511
  786TIP3    H223850   1.491   1.685  10.484  0.5403  0.7261  0.1005
  787TIP3   OH223851   3.004   0.620  44.204 -0.1037  0.1657 -0.0098
  787TIP3    H123852   2.931   0.656  44.153 -0.6510 -0.4009  0.3639
  787TIP3    H223853   3.067   0.590  44.138 -1.3013 -1.5819 -0.4029
  788TIP3   OH223854   3.747   2.423   7.924  0.3769  0.7717  0.5334
  788TIP3    H123855   3.829   2.434   7.874 -0.2465  0.9416 -0.4908
  788TIP3    H223856   3.698   2.358   7.874 -1.0349  2.2446 -0.1055
  789TIP3   OH223857   1.827   1.145  34.744  0.1129 -0.2691 -0.0900
  789TIP3    H123858   1.904   1.102  34.780  0.5948  1.0185  0.5002
  789TIP3    H223859   1.774   1.167  34.821 -1.7937 -2.7371 -0.5671
  790TIP3   OH223860   0.088   0.509  33.625  0.0420 -0.6938  0.7274
  790TIP3    H123861   0.106   0.551  33.709 -0.7496  0.4512  0.3292
  790TIP3    H223862   0.125   0.567  33.559  0.2994 -1.3808  0.2464
  791TIP3   OH223863   3.403   2.420   4.655  0.5253 -0.1734 -0.4065
  791TIP3    H123864   3.382   2.328   4.636  0.5853 -0.6722  1.6604
  791TIP3    H223865   3.413   2.422   4.750  2.9768  1.4853 -0.6309
  792TIP3   OH223866   2.117   1.836  39.756 -0.3114 -0.1119  0.1256
  792TIP3    H123867   2.137   1.905  39.693 -2.8837  0.7308  0.0884
  792TIP3    H223868   2.121   1.880  39.841 -0.4533 -0.2845  0.2225
  793TIP3   OH223869   0.911   2.793  36.277  0.4208  0.0135  0.0378
  793TIP3    H123870   0.890   2.699  36.283  0.8423 -0.1315 -0.6099
  793TIP3    H223871   0.944   2.804  36.187 -0.1588  0.8946 -0.0722
  794TIP3   OH223872   2.838   1.439   2.047  0.7914  0.1000 -0.0901
  794TIP3    H123873   2.917   1.458   1.996  0.2513  0.4795 -0.8016
  794TIP3    H223874   2.767   1.481   1.999 -0.2111 -2.1708 -0.7237
  795TIP3   OH223875   3.682   1.228  44.617 -0.6392  0.2813 -0.6081
  795TIP3    H123876   3.660   1.140  44.647  0.2690  0.2975  0.1819
  795TIP3    H223877   3.776   1.225  44.601 -0.3721  1.3809  0.5307
  796TIP3   OH223878   0.366   3.592  47.583  0.2464 -0.3015  0.0228
  796TIP3    H123879   0.360   3.497  47.570 -2.2360 -0.2344  0.2829
  796TIP3    H223880   0.434   3.602  47.650  0.2356 -1.9440  0.3359
  797TIP3   OH223881   2.679   0.659  15.492 -0.0745  0.0488 -0.0132
  797TIP3    H123882   2.673   0.571  15.529 -0.5017  0.2198  0.3160
  797TIP3    H223883   2.658   0.647  15.399  0.4725 -0.2898 -0.1005
  798TIP3   OH223884   0.942   3.182  46.840  0.2958  0.1179 -0.2146
  798TIP3    H123885   0.979   3.255  46.889 -1.9250  1.0429  0.1929
  798TIP3    H223886   1.010   3.114  46.843  1.5975  1.4120  1.1411
  799TIP3   OH223887   1.655   0.349  44.660  0.3665 -0.1515  0.4791
  799TIP3    H123888   1.741   0.385  44.680  0.6815 -0.3205 -0.4888
  799TIP3    H223889   1.622   0.316  44.744  1.7400 -1.1268  0.6767
  800TIP3   OH223890   2.206   0.799   8.473  0.7826 -0.2161  0.0089
  800TIP3    H123891   2.263   0.723   8.485  0.4750 -0.3300  0.7624
  800TIP3    H223892   2.247   0.868   8.525  0.7771 -0.0146 -0.2533
  801TIP3   OH223893   1.052   1.263  42.155  0.3319  0.4100  0.4077
  801TIP3    H123894   1.100   1.219  42.084 -0.7794  0.7280 -0.5748
  801TIP3    H223895   1.112   1.332  42.184  1.0194 -0.0609  0.1369
  802TIP3   OH223896   2.447   2.170   0.722 -0.1159 -0.5493  0.0040
  802TIP3    H123897   2.475   2.252   0.682  1.4682 -1.3112 -0.5079
  802TIP3    H223898   2.451   2.105   0.652  0.1980 -1.3894  0.7677
  803TIP3   OH223899   3.150   0.237   5.581 -0.0126 -0.0808  0.1573
  803TIP3    H123900   3.133   0.251   5.674  1.2020  0.1682  0.3586
  803TIP3    H223901   3.237   0.276   5.566 -0.0427 -0.4193 -1.0014
  804TIP3   OH223902   2.671   3.288  43.362  0.4074  0.3965  0.3542
  804TIP3    H123903   2.672   3.374  43.403  0.2427 -0.1350  1.5236
  804TIP3    H223904   2.750   3.245  43.396  1.1976  0.5146 -1.2185
  805TIP3   OH223905   2.472   1.248  39.061  0.2805 -0.2133  0.2866
  805TIP3    H123906   2.535   1.267  39.130 -1.4362  0.5965  1.7405
  805TIP3    H223907   2.471   1.153  39.054 -0.0372 -0.3623  1.9619
  806TIP3   OH223908   0.434   0.772  46.110 -0.0049  0.0175  0.6699
  806TIP3    H123909   0.466   0.826  46.182  0.8755  0.2539  0.1154
  806TIP3    H223910   0.411   0.688  46.151  1.0181 -0.0439  1.1382
  807TIP3   OH223911   3.893   3.393  43.842 -0.3664 -0.4201 -0.2247
  807TIP3    H123912   3.898   3.437  43.927 -1.0099 -1.1710  0.2112
  807TIP3    H223913   3.939   3.452  43.782  0.1889  0.0696  0.6568
  808TIP3   OH223914   1.940   2.221  18.942  0.4926 -0.2496  0.5278
  808TIP3    H123915   1.922   2.145  18.886 -0.1669  0.6433 -0.5229
  808TIP3    H223916   2.032   2.242  18.925  1.3820 -2.1095  2.5140
  809TIP3   OH223917   3.907   1.779  10.625  0.4923 -0.1010  0.2728
  809TIP3    H123918   3.818   1.772  10.660 -0.5281  0.2756 -2.0844
  809TIP3    H223919   3.963   1.785  10.703 -1.3696 -1.8582  1.8619
  810TIP3   OH223920   0.856   2.991   6.699 -0.1264 -0.0653 -0.7032
  810TIP3    H123921   0.769   2.967   6.730  0.2136 -1.5829 -0.8494
  810TIP3    H223922   0.913   2.978   6.775 -0.1967  2.3669 -0.1521
  811TIP3   OH223923   0.326   0.519   2.549 -0.0686 -0.3730  0.2719
  811TIP3    H123924   0.391   0.574   2.594 -0.8164 -0.1013  1.0475
  811TIP3    H223925   0.299   0.456   2.616  1.1539 -2.0517 -0.7485
  812TIP3   OH223926   1.426   0.617   0.429  0.3075 -0.2839 -0.0810
  812TIP3    H123927   1.452   0.536   0.385  1.4671 -0.0822  0.1990
  812TIP3    H223928   1.340   0.638   0.392  1.1257 -0.2565 -2.0635
  813TIP3   OH223929   3.886   0.251   0.190  0.0288  0.0082  0.1225
  813TIP3    H123930   3.855   0.316   0.253  1.4949 -0.3731  1.3005
  813TIP3    H223931   3.836   0.172   0.210  2.4444 -1.0035  2.9085
  814TIP3   OH223932   3.810   2.639   0.507  0.3311 -0.0505  0.9024
  814TIP3    H123933   3.805   2.728   0.473 -3.2237 -1.2516 -2.3625
  814TIP3    H223934   3.868   2.594   0.446  1.4278 -0.2491  2.0484
  815TIP3   OH223935   2.374   3.539   1.626  0.0539  0.5005  0.3318
  815TIP3    H123936   2.422   3.617   1.601 -1.4478  1.8566  1.4474
  815TIP3    H223937   2.297   3.539   1.569  0.6047 -0.8410 -0.4534
  816TIP3   OH223938   1.804   2.141  34.203  0.4318  0.5685  0.1390
  816TIP3    H123939   1.888   2.143  34.157  0.4249 -0.4541  0.0458
  816TIP3    H223940   1.825   2.167  34.293  0.6671  1.2943 -0.1182
  817TIP3   OH223941   2.098   0.817  36.972 -0.5416 -0.2640 -0.9565
  817TIP3    H123942   2.184   0.840  36.937 -0.9046  1.3729 -0.8748
  817TIP3    H223943   2.111   0.812  37.067 -0.4064 -0.6676 -0.9962
  818TIP3   OH223944   3.421   0.980   2.423  0.2096 -0.1711  0.0958
  818TIP3    H123945   3.396   0.889   2.406 -1.4906  0.0670  1.0828
  818TIP3    H223946   3.441   1.016   2.337 -1.5262 -0.8129 -0.6286
  819TIP3   OH223947   2.083   0.163   8.806 -0.3756  0.2854  0.5679
  819TIP3    H123948   2.124   0.135   8.888 -0.4987  0.8018  0.8123
  819TIP3    H223949   2.150   0.152   8.740 -0.8086 -1.8374  0.4080
  820TIP3   OH223950   1.059   2.980  14.619  0.3223 -0.0158 -0.2204
  820TIP3    H123951   1.145   2.948  14.648  0.4426 -1.6273 -2.1729
  820TIP3    H223952   1.024   3.025  14.696  1.9290 -1.3225  1.3719
  821TIP3   OH223953   2.635   0.599  42.144 -0.4037 -0.2694 -0.0592
  821TIP3    H123954   2.568   0.572  42.082 -0.1579 -0.6157 -0.1730
  821TIP3    H223955   2.586   0.626  42.222 -0.7184  0.2807 -0.4378
  822TIP3   OH223956   3.973   2.654   2.877  0.0489  0.3554 -0.0379
  822TIP3    H123957   3.884   2.620   2.867  0.0639  0.4874 -0.6441
  822TIP3    H223958   4.029   2.579   2.856  0.0822  0.7271 -1.3764
  823TIP3   OH223959   2.780   0.700  11.225  0.1308  0.6606  0.6893
  823TIP3    H123960   2.720   0.745  11.166 -0.6454 -0.9601  0.1566
  823TIP3    H223961   2.867   0.731  11.201 -0.3943  2.2111  0.7050
  824TIP3   OH223962   2.831   1.100  17.385 -0.5852  0.1660  0.1698
  824TIP3    H123963   2.917   1.131  17.414  0.4986 -3.1854  1.0170
  824TIP3    H223964   2.826   1.126  17.293  0.4995  1.9584  0.5596
  825TIP3   OH223965   0.244   1.176   6.120  0.1785  0.5797 -0.2717
  825TIP3    H123966   0.302   1.234   6.072  2.4264 -0.5100  0.9264
  825TIP3    H223967   0.258   1.199   6.212  0.2339 -1.0286  0.1565
  826TIP3   OH223968   1.418   3.151   0.353  0.2995 -0.3881  0.0560
  826TIP3    H123969   1.413   3.200   0.271  1.1618  0.1781  0.3217
  826TIP3    H223970   1.421   3.059   0.327  1.8360 -0.1812 -0.6357
  827TIP3   OH223971   0.235   0.166   9.288  1.0082  0.3041 -0.2719
  827TIP3    H123972   0.211   0.086   9.242  0.8078 -0.6487  1.3843
  827TIP3    H223973   0.154   0.216   9.293  0.4822 -0.6029  0.9148
  828TIP3   OH223974   2.302   0.308  41.873  0.2281 -0.0933 -0.2171
  828TIP3    H123975   2.290   0.338  41.783 -0.4946  0.2256 -0.0290
  828TIP3    H223976   2.348   0.225  41.865  0.6095  0.1741 -0.8541
  829TIP3   OH223977   0.728   3.736  11.564 -0.8682  0.2824 -0.0980
  829TIP3    H123978   0.699   3.721  11.474  0.9106 -0.4106 -0.6085
  829TIP3    H223979   0.805   3.793  11.556  0.7520 -1.6352  0.7076
  830TIP3   OH223980   2.322   3.392   7.744 -0.2420 -0.1587 -0.5333
  830TIP3    H123981   2.227   3.402   7.732 -0.5562 -2.4008 -0.3349
  830TIP3    H223982   2.331   3.311   7.794  1.7710  0.4490  0.1940
  831TIP3   OH223983   0.577   3.718  43.945  0.3417  0.5481 -0.1082
  831TIP3    H123984   0.481   3.711  43.950  0.4096  0.1803  1.2838
  831TIP3    H223985   0.608   3.645  43.999  1.3964  0.9795 -0.1134
  832TIP3   OH223986   3.394   0.883   4.178  0.1151  0.0777 -0.1444
  832TIP3    H123987   3.450   0.825   4.128 -0.4362  0.4473 -1.2166
  832TIP3    H223988   3.442   0.966   4.183 -0.1822  0.2918 -0.7757
  833TIP3   OH223989   2.727   1.631   0.124 -0.1088  0.4151 -0.6281
  833TIP3    H123990   2.741   1.703   0.062 -0.3220 -0.5623 -1.8402
  833TIP3    H223991   2.701   1.675   0.205 -1.6078  1.6816 -1.7139
  834TIP3   OH223992   2.058   1.278  33.709  0.0052 -0.7044 -0.3180
  834TIP3    H123993   1.989   1.332  33.671 -1.1061 -0.5953  1.7056
  834TIP3    H223994   2.137   1.305  33.663 -0.6906  1.8679 -0.1772
  835TIP3   OH223995   0.663   0.492  34.408  0.1814 -0.0535 -0.1114
  835TIP3    H123996   0.651   0.529  34.321  0.8542 -0.3879 -0.3575
  835TIP3    H223997   0.605   0.542  34.465  1.4371  1.7468 -0.3298
  836TIP3   OH223998   0.922   2.457  20.352  0.1254 -0.6276 -0.3468
  836TIP3    H123999   0.927   2.366  20.381  1.7006 -0.4374  0.1092
  836TIP3    H224000   0.968   2.506  20.420  0.8504  0.2703 -1.4313
  837TIP3   OH224001   1.895   0.384  46.469  0.5995 -0.6543 -0.1914
  837TIP3    H124002   1.871   0.365  46.379 -0.0136 -0.9617  0.0372
  837TIP3    H224003   1.970   0.444  46.461  1.1644 -1.4309 -0.8961
  838TIP3   OH224004   0.324   0.263  35.903  0.0046  0.1134  0.1978
  838TIP3    H124005   0.400   0.301  35.945 -0.4977  0.0572  1.1838
  838TIP3    H224006   0.256   0.264  35.970 -0.6225 -0.6005 -0.4017
  839TIP3   OH224007   0.377   3.054  47.374 -0.4579  0.5460 -0.0181
  839TIP3    H124008   0.324   2.974  47.384 -0.2432  0.3026 -0.7737
  839TIP3    H224009   0.324   3.110  47.317 -0.4251  0.7837  0.1825
  840TIP3   OH224010   0.978   0.717  44.677 -0.2462  0.8959 -0.1010
  840TIP3    H124011   0.906   0.780  44.677 -0.6051  0.4963  0.6290
  840TIP3    H224012   0.978   0.681  44.589 -1.3075  0.4853  0.0501
  841TIP3   OH224013   0.769   1.045  13.837  0.1149  0.2456 -0.0379
  841TIP3    H124014   0.714   0.983  13.789  0.6044  1.0931 -1.7830
  841TIP3    H224015   0.840   0.991  13.872 -0.0262 -0.3466 -0.6315
  842TIP3   OH224016   1.284   2.935  16.005 -0.0566  0.8821  0.6982
  842TIP3    H124017   1.198   2.928  15.963  0.4808 -0.0229 -0.3139
  842TIP3    H224018   1.307   3.027  15.999 -0.9674  1.1405  1.0154
  843TIP3   OH224019   1.651   1.274  34.370 -0.6823 -0.1305  0.1081
  843TIP3    H124020   1.643   1.225  34.288  2.1590  1.1274 -1.0642
  843TIP3    H224021   1.593   1.350  34.358 -0.2743  0.0549 -0.7541
  844TIP3   OH224022   0.647   2.371  38.789  0.6704  0.1196 -0.4555
  844TIP3    H124023   0.614   2.455  38.756 -0.2442 -0.4243 -1.0011
  844TIP3    H224024   0.703   2.394  38.862  0.4756  1.2136 -0.6279
  845TIP3   OH224025   1.491   0.017  14.816  0.2821 -0.5197 -0.6309
  845TIP3    H124026   1.526   0.086  14.759 -1.9566  0.9045 -0.3704
  845TIP3    H224027   1.522   0.041  14.904  1.6141 -1.3111 -0.8537
  846TIP3   OH224028   2.646   0.990  11.714  0.0812  0.0287  0.0583
  846TIP3    H124029   2.560   1.014  11.680  0.4229 -0.7230 -1.4095
  846TIP3    H224030   2.694   0.956  11.638  2.0706  1.4277  0.6154
  847TIP3   OH224031   3.921   1.394  21.810 -0.4938 -0.3760 -0.1815
  847TIP3    H124032   3.918   1.300  21.793 -1.1255 -0.3203 -0.4030
  847TIP3    H224033   3.829   1.420  21.817 -0.3220 -0.1260  1.8617
  848TIP3   OH224034   2.340   1.733   9.399  0.4434  0.2333  0.3563
  848TIP3    H124035   2.269   1.702   9.456  1.4689 -0.7595  1.1254
  848TIP3    H224036   2.316   1.700   9.312 -0.4088  0.5539  0.4543
  849TIP3   OH224037   1.917   1.822   0.060  1.0662 -0.0092  0.4089
  849TIP3    H124038   1.916   1.726   0.058  1.6405 -0.0518  1.4143
  849TIP3    H224039   2.010   1.844   0.064  0.9807  0.6330 -0.7292
  850TIP3   OH224040   0.019   2.964  44.292 -0.1527 -0.0115 -0.2861
  850TIP3    H124041   0.027   2.957  44.197 -1.9200  0.8989 -0.5545
  850TIP3    H224042   0.063   3.045  44.314 -2.2278  1.3529 -0.7944
  851TIP3   OH224043   2.006   1.346  45.240 -0.3920  0.4267 -0.0055
  851TIP3    H124044   2.025   1.440  45.243 -0.0108  0.4653 -2.2853
  851TIP3    H224045   2.075   1.306  45.292  0.3301  1.2865 -0.2843
  852TIP3   OH224046   0.564   2.583  17.296 -0.5425 -0.2025 -0.2727
  852TIP3    H124047   0.607   2.567  17.380  0.2189  0.6157 -0.4944
  852TIP3    H224048   0.542   2.496  17.264 -0.3668 -0.5556  0.5324
  853TIP3   OH224049   3.172   1.605   0.199 -0.5332 -0.4950 -0.9012
  853TIP3    H124050   3.103   1.553   0.239 -1.6627  0.9982 -0.8344
  853TIP3    H224051   3.127   1.680   0.160  1.1536  1.2581  0.3331
  854TIP3   OH224052   3.208   1.611   3.633 -0.2400  0.4035 -0.1878
  854TIP3    H124053   3.122   1.584   3.602 -1.0138  3.2092 -0.7064
  854TIP3    H224054   3.269   1.576   3.567 -1.2883  1.0655 -1.5489
  855TIP3   OH224055   3.941   1.557  14.696  0.4014  0.2328  0.2702
  855TIP3    H124056   3.882   1.623  14.729 -0.8958 -0.1050 -1.2360
  855TIP3    H224057   3.900   1.474  14.720  0.4698 -0.0048 -0.4075
  856TIP3   OH224058   3.481   2.033  17.881 -0.5813  0.4576 -0.5664
  856TIP3    H124059   3.497   1.943  17.910  1.0270  1.0333  0.5105
  856TIP3    H224060   3.403   2.027  17.827 -1.0395 -1.4389  0.2054
  857TIP3   OH224061   2.087   0.215   9.093 -0.3732  0.7570 -0.7860
  857TIP3    H124062   1.997   0.241   9.114 -0.8563 -1.0464 -0.5254
  857TIP3    H224063   2.115   0.279   9.027 -0.6116  3.4322  1.4910
  858TIP3   OH224064   2.905   1.334  31.964 -0.2391 -0.1643  0.1815
  858TIP3    H124065   2.853   1.406  31.930  0.1712 -0.2232 -0.5994
  858TIP3    H224066   2.847   1.288  32.025 -0.7535  0.3628  0.0885
  859TIP3   OH224067   0.287   2.662  38.601 -0.1095 -0.3596  0.1833
  859TIP3    H124068   0.254   2.620  38.521  0.3847 -1.8246  0.6990
  859TIP3    H224069   0.252   2.608  38.672 -1.1027  1.3200  1.0248
  860TIP3   OH224070   3.263   0.958  16.518  0.3475  0.4858 -0.0955
  860TIP3    H124071   3.183   0.925  16.560  0.2837 -0.8296 -1.1491
  860TIP3    H224072   3.301   1.018  16.581 -1.6593  1.4084  0.3054
  861TIP3   OH224073   0.427   1.990  10.723 -0.3105 -0.1632 -0.0924
  861TIP3    H124074   0.495   2.046  10.761 -1.6001  1.3460  0.0915
  861TIP3    H224075   0.430   2.011  10.629 -0.0616 -0.6224 -0.1895
  862TIP3   OH224076   1.127   0.848   7.463 -0.2227  0.1410  0.0280
  862TIP3    H124077   1.153   0.759   7.438  0.0035  0.5425 -1.2191
  862TIP3    H224078   1.125   0.897   7.381 -0.0433  1.3748  0.7267
  863TIP3   OH224079   3.450   3.306  13.673 -0.0210 -0.5137 -0.7474
  863TIP3    H124080   3.360   3.308  13.704 -0.1539 -1.5299 -1.0428
  863TIP3    H224081   3.450   3.242  13.603  0.8682 -0.2823 -0.9725
  864TIP3   OH224082   0.745   2.348  44.801 -0.0988 -0.6657 -0.3187
  864TIP3    H124083   0.775   2.341  44.710  1.2406 -2.5645  0.2290
  864TIP3    H224084   0.823   2.368  44.851 -0.8171  0.2759  0.4724
  865TIP3   OH224085   1.232   0.676  33.938  0.3239  0.6004  0.3481
  865TIP3    H124086   1.236   0.765  33.901  0.0565  1.6008  2.5426
  865TIP3    H224087   1.269   0.685  34.026  1.5237 -1.7735  0.1633
  866TIP3   OH224088   1.913   3.235  36.245  1.0564  0.1886 -0.4139
  866TIP3    H124089   1.891   3.164  36.306  0.6034 -0.6100 -1.4729
  866TIP3    H224090   1.829   3.277  36.227  1.1409  0.2354 -0.7006
  867TIP3   OH224091   0.881   1.277  41.889 -0.1509  0.2585  0.1446
  867TIP3    H124092   0.958   1.319  41.850  0.0592 -1.3856 -1.3562
  867TIP3    H224093   0.838   1.346  41.940  0.9959  1.8407 -0.9575
  868TIP3   OH224094   1.139   1.114   4.636 -0.1507  0.1144  0.2713
  868TIP3    H124095   1.111   1.144   4.723  1.8945  1.1297  0.6492
  868TIP3    H224096   1.151   1.020   4.646 -0.9035  0.0595  0.7883
  869TIP3   OH224097   2.295   3.732   3.951  0.4858 -0.5913  0.3502
  869TIP3    H124098   2.200   3.728   3.939  0.3857  3.6161 -2.6414
  869TIP3    H224099   2.329   3.665   3.891 -0.5008 -1.9555  1.2506
  870TIP3   OH224100   4.037   2.098  40.708  0.4273  0.6241 -0.0737
  870TIP3    H124101   3.959   2.043  40.705  0.7996  0.0096  0.9435
  870TIP3    H224102   4.108   2.041  40.677  0.6301  0.8853 -0.0992
  871TIP3   OH224103   3.784   0.829  46.990 -0.1276  0.8247 -0.3555
  871TIP3    H124104   3.816   0.804  46.904 -1.4516 -0.1684 -0.5766
  871TIP3    H224105   3.864   0.841  47.042  0.6618 -1.5670 -0.8808
  872TIP3   OH224106   3.437   0.996  36.440 -0.2119  0.2442 -0.3692
  872TIP3    H124107   3.379   1.066  36.471 -0.2820 -0.4437  1.1128
  872TIP3    H224108   3.519   1.011  36.485  0.0233 -0.1773 -0.6573
  873TIP3   OH224109   1.778   3.658  10.177 -0.2875  0.1081  0.4749
  873TIP3    H124110   1.795   3.729  10.240  1.3038  0.0590  0.1387
  873TIP3    H224111   1.850   3.664  10.115 -0.4753 -1.4233  0.0831
  874TIP3   OH224112   3.683   3.062  36.532  0.6249  0.2650 -0.2667
  874TIP3    H124113   3.694   3.010  36.611 -3.2658 -0.8997 -0.2674
  874TIP3    H224114   3.664   3.150  36.564  1.6554  0.4061 -0.0294
  875TIP3   OH224115   0.983   4.062  11.379  0.2905  0.3413 -0.5648
  875TIP3    H124116   0.986   4.153  11.406 -3.4942  0.9104 -1.4801
  875TIP3    H224117   1.003   4.013  11.459  2.1739  1.9001 -0.0130
  876TIP3   OH224118   3.468   2.263  39.781  0.1871  0.0148  0.3398
  876TIP3    H124119   3.450   2.348  39.820 -0.2098 -0.0391  0.2756
  876TIP3    H224120   3.446   2.200  39.849  0.8015 -0.0306  0.5059
  877TIP3   OH224121   3.506   3.080  41.723 -0.0062 -0.0613 -0.1104
  877TIP3    H124122   3.455   3.155  41.755  0.8482  0.4394  0.1097
  877TIP3    H224123   3.521   3.026  41.801  1.7224  0.9495  0.3061
  878TIP3   OH224124   1.838   1.505  39.637  0.8302  0.3679 -0.1119
  878TIP3    H124125   1.914   1.557  39.663  0.3569  1.3121 -0.5604
  878TIP3    H224126   1.871   1.447  39.568  1.3921 -0.0451  0.4894
  879TIP3   OH224127   0.020   0.406  10.656  0.5210 -0.1576 -0.1484
  879TIP3    H124128   0.062   0.425  10.573 -0.8664  1.9502 -0.4394
  879TIP3    H224129   0.051   0.475  10.715 -0.2110 -0.3517  0.4788
  880TIP3   OH224130   0.662   3.793  39.171 -0.4697  1.0740  0.0332
  880TIP3    H124131   0.577   3.823  39.138  0.1511  0.5749 -2.1665
  880TIP3    H224132   0.645   3.703  39.202 -0.7494  0.9674 -0.4157
  881TIP3   OH224133   2.668   3.700  34.590  0.4060  0.4857 -0.3842
  881TIP3    H124134   2.655   3.788  34.555 -0.7076  0.4021 -0.1983
  881TIP3    H224135   2.581   3.661  34.591  1.1112 -1.3530 -2.3686
  882TIP3   OH224136   2.795   0.859  45.439 -0.9040  0.1960 -0.0939
  882TIP3    H124137   2.847   0.934  45.411  0.2236  0.2484  1.9096
  882TIP3    H224138   2.827   0.786  45.386 -0.9990  0.8341 -1.0468
  883TIP3   OH224139   1.499   2.416   8.142 -0.0944  0.6303  0.1345
  883TIP3    H124140   1.505   2.337   8.089 -0.6593 -1.7386  3.3729
  883TIP3    H224141   1.590   2.447   8.148  0.0277  0.8156 -1.8213
  884TIP3   OH224142   1.891   0.464   0.117 -0.0986 -0.4724  0.0473
  884TIP3    H124143   1.818   0.425   0.068 -0.8097 -0.0182  0.7242
  884TIP3    H224144   1.852   0.538   0.164  0.7917 -0.2464  0.4533
  885TIP3   OH224145   1.461   1.171   4.546  0.8229  0.7083 -0.0802
  885TIP3    H124146   1.442   1.181   4.453  0.4645  2.3359  0.1322
  885TIP3    H224147   1.395   1.225   4.591  1.7623  0.9977  1.0284
  886TIP3   OH224148   3.878   1.218  38.735 -0.5971 -0.6021  0.4035
  886TIP3    H124149   3.941   1.147  38.724 -0.2154 -0.0211 -1.5564
  886TIP3    H224150   3.797   1.184  38.696 -0.6044 -0.2252  0.0851
  887TIP3   OH224151   2.739   3.972  46.040 -0.2320 -0.4807  0.1404
  887TIP3    H124152   2.831   3.949  46.025  0.5774  1.4501  1.6810
  887TIP3    H224153   2.731   4.061  46.007 -1.1790 -0.1447  1.2090
  888TIP3   OH224154   3.939   3.515  41.500  0.0578  0.6452  0.3011
  888TIP3    H124155   3.850   3.480  41.491 -0.1186  0.7901  1.3430
  888TIP3    H224156   3.993   3.458  41.445 -0.2867 -1.0401  1.6235
  889TIP3   OH224157   0.589   0.571   2.687 -0.4726  0.4773  0.3119
  889TIP3    H124158   0.580   0.511   2.761  0.8806  1.4968  1.3563
  889TIP3    H224159   0.570   0.657   2.724  0.1757  0.9974 -0.5311
  890TIP3   OH224160   3.810   3.842  43.146  0.3482 -0.2370 -0.0343
  890TIP3    H124161   3.873   3.888  43.201 -1.8157  3.2469 -0.1440
  890TIP3    H224162   3.760   3.787  43.207 -0.9125  2.2783  1.3648
  891TIP3   OH224163   1.938   2.540   2.984 -0.7744 -0.3040  0.2785
  891TIP3    H124164   1.907   2.579   2.902 -0.6365 -0.7787 -0.0044
  891TIP3    H224165   1.977   2.613   3.032 -0.7030 -0.0556 -0.1530
  892TIP3   OH224166   2.336   2.949   1.977  0.0753 -0.1113  0.1812
  892TIP3    H124167   2.388   2.933   2.056  3.2865  0.2089 -1.6927
  892TIP3    H224168   2.321   3.044   1.977 -1.7481 -0.3548  1.3621
  893TIP3   OH224169   3.255   2.811   5.632 -0.0344  0.3766  0.3375
  893TIP3    H124170   3.294   2.890   5.668  1.2247 -0.1854  0.2597
  893TIP3    H224171   3.284   2.741   5.690  0.1725 -0.2370 -0.4866
  894TIP3   OH224172   0.805   1.589   8.322  0.3000  0.3951  0.4295
  894TIP3    H124173   0.811   1.495   8.305  2.0348  0.4330  0.7377
  894TIP3    H224174   0.711   1.604   8.336  0.0121 -1.3121  0.5661
  895TIP3   OH224175   0.655   3.961   1.464  0.4105  0.3060 -0.0612
  895TIP3    H124176   0.734   4.003   1.496  1.5951 -1.0479 -1.0692
  895TIP3    H224177   0.650   3.878   1.512 -0.8976  0.7581  0.6279
  896TIP3   OH224178   1.132   0.007  42.953  0.0485  0.2500  0.7649
  896TIP3    H124179   1.049   0.021  42.998 -1.2389 -0.4313 -1.2659
  896TIP3    H224180   1.172  -0.066  43.000 -1.8234 -1.2682  0.1382
  897TIP3   OH224181   3.649   0.957  35.471 -0.2596  0.1722  0.2082
  897TIP3    H124182   3.724   0.977  35.415 -1.3355  1.3334 -0.8775
  897TIP3    H224183   3.652   1.024  35.539  0.9612 -1.1498  1.5313
  898TIP3   OH224184   0.289   3.020   7.629  0.5600  0.1719 -0.3011
  898TIP3    H124185   0.206   3.058   7.656 -0.3987 -0.5607 -2.1217
  898TIP3    H224186   0.266   2.939   7.584  2.3314 -0.6254  0.1223
  899TIP3   OH224187   0.957   0.099   8.912 -0.7310 -0.4810  0.4362
  899TIP3    H124188   1.003   0.074   8.992  1.0754  0.9809 -0.0679
  899TIP3    H224189   1.014   0.069   8.841 -1.0040  0.5373 -0.2380
  900TIP3   OH224190   0.528   1.105  38.494 -0.3203  0.4436  0.1321
  900TIP3    H124191   0.510   1.100  38.400 -1.7560  0.3729  0.3865
  900TIP3    H224192   0.446   1.136  38.533  0.9304  2.7887  1.1436
  901TIP3   OH224193   2.973   0.770  11.634  0.2747  0.6456  0.2519
  901TIP3    H124194   3.049   0.826  11.648  0.2125  1.0207 -0.8562
  901TIP3    H224195   2.911   0.825  11.586  0.7777 -0.7753 -2.1688
  902TIP3   OH224196   3.094   1.085  38.606  0.2327 -0.4721 -0.0232
  902TIP3    H124197   3.036   1.009  38.609  2.5134 -2.3956 -1.5121
  902TIP3    H224198   3.116   1.101  38.698 -2.3679  0.1945  0.5665
  903TIP3   OH224199   1.176   0.532   7.072 -0.1959 -0.1397 -0.4202
  903TIP3    H124200   1.087   0.567   7.079 -0.2208 -0.4743  1.5177
  903TIP3    H224201   1.233   0.607   7.089 -0.1432 -0.1517 -0.5470
  904TIP3   OH224202   2.719   1.534  12.540 -0.2286  0.0495 -0.1364
  904TIP3    H124203   2.768   1.607  12.577 -0.8441  0.1512  0.4949
  904TIP3    H224204   2.643   1.574  12.498  1.7225  0.2271 -3.9076
  905TIP3   OH224205   3.867   3.986   1.709  0.0018 -0.0255  0.6671
  905TIP3    H124206   3.918   3.934   1.771 -0.7190  0.4781  1.7290
  905TIP3    H224207   3.930   4.047   1.671  0.8727 -1.6525 -0.6393
  906TIP3   OH224208   2.138   2.343  39.754  0.8710  0.0985 -0.0445
  906TIP3    H124209   2.169   2.402  39.684  0.8142 -0.6130 -0.6802
  906TIP3    H224210   2.044   2.359  39.759  0.9267  0.3863  0.0957
  907TIP3   OH224211   0.718   1.814  10.250 -0.7373  0.2039 -0.5633
  907TIP3    H124212   0.734   1.819  10.344 -1.6113 -1.9018 -0.2415
  907TIP3    H224213   0.791   1.863  10.210  0.8600 -0.6896  1.1256
  908TIP3   OH224214   3.333   1.091  46.449  0.1636 -0.0507  0.2799
  908TIP3    H124215   3.371   1.161  46.502  1.8868 -1.6703  1.3191
  908TIP3    H224216   3.404   1.027  46.439 -1.3112 -1.6361 -0.6483
  909TIP3   OH224217   1.729   1.207  15.039  0.5320  0.4217 -0.4324
  909TIP3    H124218   1.669   1.191  15.112 -0.5280  2.3150 -0.8138
  909TIP3    H224219   1.780   1.283  15.066  1.4292  0.0067 -0.9219
  910TIP3   OH224220   2.966   0.031  44.322 -0.2614 -0.0540  0.0433
  910TIP3    H124221   2.995  -0.006  44.405 -1.0940 -0.6869  0.0650
  910TIP3    H224222   3.007   0.117  44.318  0.1174 -0.1911  0.9155
  911TIP3   OH224223   4.007   1.713  36.931  0.1781  0.2319  0.7946
  911TIP3    H124224   3.943   1.646  36.907  0.5876  0.7512 -2.2126
  911TIP3    H224225   3.957   1.795  36.927  0.4135  0.3892  1.0978
  912TIP3   OH224226   1.643   1.371  20.655 -0.1012  0.1989 -0.0089
  912TIP3    H124227   1.699   1.391  20.730 -1.6714 -1.2371  1.6791
  912TIP3    H224228   1.570   1.433  20.662 -0.0104  0.3837 -0.6553
  913TIP3   OH224229   3.128   1.156  17.418 -0.1839 -0.3368 -0.0760
  913TIP3    H124230   3.117   1.143  17.512 -0.3418  1.7748  0.2509
  913TIP3    H224231   3.216   1.194  17.409 -1.2862  2.3651 -0.3811
  914TIP3   OH224232   2.989   0.005  25.981 -0.5406  0.1137 -0.1520
  914TIP3    H124233   2.937   0.080  25.955 -1.4440  0.0634  1.3684
  914TIP3    H224234   3.060   0.042  26.033 -0.0783  0.0372 -0.7234
  915TIP3   OH224235   1.642   2.651  21.733  0.0264  0.1504  0.2552
  915TIP3    H124236   1.697   2.717  21.691  0.3480  0.2051  0.7580
  915TIP3    H224237   1.687   2.631  21.815  0.4426 -1.3814 -0.3083
  916TIP3   OH224238   2.627   0.020   8.304 -0.0674  0.5242 -0.0111
  916TIP3    H124239   2.637  -0.012   8.394 -0.5944  0.0355 -0.1189
  916TIP3    H224240   2.638   0.114   8.310 -0.9921  0.5971  0.7084
  917TIP3   OH224241   0.338   1.972  16.685 -0.3165 -0.3099  1.0038
  917TIP3    H124242   0.335   2.064  16.711 -0.1506  0.0295 -0.1137
  917TIP3    H224243   0.313   1.973  16.593 -0.6060 -1.4266  1.0640
  918TIP3   OH224244   3.465   0.127   6.334 -0.1261 -0.1586  0.0198
  918TIP3    H124245   3.487   0.170   6.416  0.8292  0.0689 -0.3441
  918TIP3    H224246   3.526   0.164   6.270 -0.6066 -0.6034 -0.7162
  919TIP3   OH224247   0.699   0.479  43.793 -0.2125  0.1865  0.7523
  919TIP3    H124248   0.623   0.449  43.743  0.8220 -1.3667  0.0200
  919TIP3    H224249   0.663   0.536  43.860 -1.7523  1.8496 -1.3423
  920TIP3   OH224250   1.889   2.347  42.905  0.4258 -0.6817 -0.3655
  920TIP3    H124251   1.914   2.375  42.817 -1.5393  0.0024 -0.7512
  920TIP3    H224252   1.847   2.262  42.893 -0.9036 -0.0580 -0.2686
  921TIP3   OH224253   3.089   2.875   5.995 -0.1475  0.2997  0.2293
  921TIP3    H124254   3.165   2.851   6.047  1.1267 -1.6740 -2.3505
  921TIP3    H224255   3.115   2.955   5.948  0.4302 -0.4300 -0.7279
  922TIP3   OH224256   2.325   1.880  34.210  0.1229  0.7543 -0.0708
  922TIP3    H124257   2.308   1.819  34.282  1.6478  0.4525  0.0671
  922TIP3    H224258   2.238   1.904  34.177 -0.5324 -0.8780  0.3918
  923TIP3   OH224259   2.487   3.678   8.241 -0.1709 -0.3817 -0.9657
  923TIP3    H124260   2.554   3.656   8.177  1.9246 -2.5183  1.6927
  923TIP3    H224261   2.429   3.602   8.243  0.0269 -0.5221 -0.1007
  924TIP3   OH224262   1.463   2.767  39.333 -0.0840 -0.3756 -0.1555
  924TIP3    H124263   1.490   2.849  39.290 -0.7841  0.1281  0.3450
  924TIP3    H224264   1.488   2.699  39.271 -0.2853  0.2769 -0.9783
  925TIP3   OH224265   3.052   0.033  47.163 -0.6137  0.0701  0.2704
  925TIP3    H124266   2.998   0.112  47.170 -0.7866 -0.0722  0.5448
  925TIP3    H224267   2.997  -0.028  47.114 -0.4507  0.1461 -0.0080
  926TIP3   OH224268   2.266   2.208  10.839  0.3823  1.0754  0.1911
  926TIP3    H124269   2.299   2.287  10.881 -0.0391  1.1595  0.3637
  926TIP3    H224270   2.192   2.180  10.893  0.5691  0.5250  0.1689
  927TIP3   OH224271   3.931   3.194  15.472 -0.6531 -0.2004 -0.4107
  927TIP3    H124272   3.859   3.257  15.460 -1.1846 -0.6168  0.4815
  927TIP3    H224273   3.960   3.174  15.383 -1.0461  0.6604 -0.7434
  928TIP3   OH224274   0.709   0.657   1.678 -0.0596 -0.2445 -0.1503
  928TIP3    H124275   0.655   0.726   1.639 -1.7433 -1.0512  0.6766
  928TIP3    H224276   0.749   0.699   1.754  0.6322  0.3948 -0.8436
  929TIP3   OH224277   0.359   0.770  43.763  0.3470 -0.2405  0.6203
  929TIP3    H124278   0.441   0.727  43.787  0.9464 -0.4185 -1.5731
  929TIP3    H224279   0.292   0.705  43.782  0.9206 -0.9000  0.4441
  930TIP3   OH224280   2.920   3.454   6.751 -0.3336 -0.2251  0.1436
  930TIP3    H124281   2.913   3.364   6.783  1.4346 -0.1121  0.9284
  930TIP3    H224282   3.001   3.487   6.788  0.0028  1.0988 -1.6303
  931TIP3   OH224283   3.664   1.440  12.904 -0.2099 -0.1508  0.0308
  931TIP3    H124284   3.743   1.425  12.956  1.3636  1.1968 -1.8640
  931TIP3    H224285   3.633   1.526  12.932 -0.0146  0.0737 -0.4410
  932TIP3   OH224286   1.638   1.655  11.955  0.0885 -0.3594 -0.3008
  932TIP3    H124287   1.697   1.620  12.022 -0.1545 -0.4330 -0.1229
  932TIP3    H224288   1.620   1.581  11.897  0.1148 -0.3565 -0.3121
  933TIP3   OH224289   1.761   3.985  30.520 -0.5825 -0.2591  0.1750
  933TIP3    H124290   1.839   4.032  30.490 -1.8227  0.9078 -1.3572
  933TIP3    H224291   1.790   3.894  30.528  0.8796  0.1041 -0.6345
  934TIP3   OH224292   1.602   2.231   3.534 -0.4095 -0.4165 -0.1067
  934TIP3    H124293   1.559   2.308   3.571 -1.8014 -0.8610 -0.7156
  934TIP3    H224294   1.661   2.201   3.603 -1.7564 -0.3063  1.1591
  935TIP3   OH224295   3.925   2.015  35.110  0.0777  0.5747  0.5195
  935TIP3    H124296   3.915   2.110  35.108 -2.5165  0.4262  1.5891
  935TIP3    H224297   3.860   1.983  35.047  1.0857 -0.5048 -0.0131
  936TIP3   OH224298   2.914   3.560  40.154 -0.1212  0.4742 -0.0345
  936TIP3    H124299   2.957   3.534  40.235 -0.3241  0.9012  0.2150
  936TIP3    H224300   2.844   3.495  40.142 -0.5032  0.7754  0.4845
  937TIP3   OH224301   1.094   3.621  33.520  0.2256 -0.0525  0.8672
  937TIP3    H124302   1.109   3.548  33.460 -0.3636  0.3439  0.2224
  937TIP3    H224303   1.179   3.666  33.524  0.6813 -0.9416  1.5211
  938TIP3   OH224304   2.172   1.817  33.102 -0.0931 -0.6746 -0.5347
  938TIP3    H124305   2.255   1.826  33.150 -0.6077 -1.2917  0.5041
  938TIP3    H224306   2.193   1.760  33.029  0.6380  0.0150 -0.8738
  939TIP3   OH224307   1.981   2.739  42.469 -0.3766 -0.0204  0.1416
  939TIP3    H124308   2.054   2.757  42.529 -0.1568  1.0563 -0.4032
  939TIP3    H224309   1.999   2.796  42.394 -0.7511 -1.1827 -0.8570
  940TIP3   OH224310   0.833   1.452   5.769  0.3161 -0.7878 -0.2991
  940TIP3    H124311   0.777   1.376   5.787  0.1079  0.0022  2.9945
  940TIP3    H224312   0.913   1.415   5.732  0.4568 -2.7415  1.7611
  941TIP3   OH224313   4.040   3.909  41.688 -0.9047 -0.3318  0.2843
  941TIP3    H124314   4.091   3.863  41.621  2.1284  0.6678  1.7273
  941TIP3    H224315   4.047   4.001  41.664 -1.8063 -0.1534  0.6819
  942TIP3   OH224316   3.422   3.072  31.029  0.0267 -0.0198  0.4447
  942TIP3    H124317   3.417   2.999  31.090  0.7669 -0.6153 -0.1871
  942TIP3    H224318   3.380   3.040  30.949 -1.0627  0.8006  0.6546
  943TIP3   OH224319   1.938   4.048   9.640 -0.0488 -0.1486  0.0545
  943TIP3    H124320   1.974   4.018   9.724 -1.5901 -0.0829  0.7596
  943TIP3    H224321   2.005   4.108   9.606  0.3199  0.3139  1.5318
  944TIP3   OH224322   1.965   2.001  38.983 -0.1728  0.3941 -0.0317
  944TIP3    H124323   1.894   1.954  38.939 -0.1650 -0.3081  0.6838
  944TIP3    H224324   1.991   2.068  38.920 -1.1569  0.3736 -0.4919
  945TIP3   OH224325   1.082   3.239   5.526 -0.1357 -0.0585  0.1931
  945TIP3    H124326   1.036   3.244   5.609 -1.2315 -0.6359 -0.3612
  945TIP3    H224327   1.165   3.284   5.542 -0.1361 -0.5436  1.7165
  946TIP3   OH224328   3.691   2.493  15.969 -0.1596 -0.3174 -0.4074
  946TIP3    H124329   3.615   2.505  16.026 -0.8078 -0.5255 -1.2135
  946TIP3    H224330   3.766   2.512  16.025 -0.7287 -1.3585  0.7594
  947TIP3   OH224331   0.093   0.080   4.190 -0.7896 -0.2618 -0.2006
  947TIP3    H124332   0.106  -0.009   4.159  1.0811 -0.3208  0.5616
  947TIP3    H224333   0.064   0.070   4.281 -2.8722 -0.0720 -0.8024
  948TIP3   OH224334   1.350   2.610  13.196  0.5618 -0.0333  0.3188
  948TIP3    H124335   1.291   2.536  13.211 -0.2507  0.5083 -0.1050
  948TIP3    H224336   1.295   2.676  13.153  1.8878 -0.1910 -1.7832
  949TIP3   OH224337   3.852   2.994  45.675  0.1200 -0.4538 -0.4548
  949TIP3    H124338   3.808   3.075  45.699 -0.0381 -0.5710 -0.3508
  949TIP3    H224339   3.942   3.006  45.706  0.4015  0.1510 -1.4590
  950TIP3   OH224340   2.641   3.557  40.327 -0.6024 -0.6835 -0.6382
  950TIP3    H124341   2.567   3.591  40.277 -0.1001 -0.1308 -1.0202
  950TIP3    H224342   2.672   3.632  40.378  1.0618 -0.2690 -2.1447
  951TIP3   OH224343   3.389   0.766   8.542 -0.2274 -0.0865 -0.3519
  951TIP3    H124344   3.317   0.780   8.604  0.9663  0.3174  0.9933
  951TIP3    H224345   3.433   0.851   8.539  0.1058 -0.2886 -1.2932
  952TIP3   OH224346   2.457   3.037  40.376 -0.4236  0.3101  0.4821
  952TIP3    H124347   2.476   3.129  40.393 -2.3472  0.4058  2.4524
  952TIP3    H224348   2.369   3.037  40.338 -0.9309 -0.7457  1.5858
  953TIP3   OH224349   1.774   1.750  32.771 -0.2244  0.2542  0.0372
  953TIP3    H124350   1.829   1.783  32.842 -0.4055 -0.3723  0.4750
  953TIP3    H224351   1.829   1.686  32.726 -1.2472 -1.9809  1.7784
  954TIP3   OH224352   1.305   0.604  13.540  0.0268 -0.0765 -0.1390
  954TIP3    H124353   1.220   0.562  13.560  0.4756 -0.0836  2.0078
  954TIP3    H224354   1.284   0.696  13.529 -0.1994  0.0391  1.1095
  955TIP3   OH224355   0.516   1.099   0.025 -0.1829  0.5299  0.0815
  955TIP3    H124356   0.429   1.062   0.042 -0.7809  2.2463  0.9946
  955TIP3    H224357   0.564   1.084   0.107 -0.4486  1.7530  0.4806
  956TIP3   OH224358   0.021   0.114  45.102  0.1583  0.3661 -0.0877
  956TIP3    H124359   0.003   0.139  45.193 -1.2242  0.8671 -0.4808
  956TIP3    H224360   0.114   0.135  45.090  1.0316 -1.8875  1.8887
  957TIP3   OH224361   1.764   3.340  13.381  0.5366 -0.2858  0.4369
  957TIP3    H124362   1.799   3.260  13.421  1.6484 -0.9551 -1.6931
  957TIP3    H224363   1.730   3.311  13.296 -0.2405  1.2986  0.1838
  958TIP3   OH224364   0.715   3.455  42.437 -0.2289 -0.5214 -1.0197
  958TIP3    H124365   0.679   3.372  42.405  0.9649 -0.4874 -2.5787
  958TIP3    H224366   0.808   3.437  42.450  0.0619  0.5661 -1.4501
  959TIP3   OH224367   2.797   0.358  34.696  0.1944  0.0734  0.1124
  959TIP3    H124368   2.864   0.338  34.761  0.3176 -0.1160 -0.0719
  959TIP3    H224369   2.722   0.303  34.719  0.8782 -1.3656 -0.9850
  960TIP3   OH224370   1.018   2.193   4.398 -0.2536  0.5715 -0.4455
  960TIP3    H124371   1.089   2.253   4.420  0.1846 -1.0405  3.3681
  960TIP3    H224372   1.061   2.121   4.351  0.2859  0.5449  0.0803
  961TIP3   OH224373   1.945   0.344   2.955  0.2261  0.6211  0.8947
  961TIP3    H124374   1.925   0.425   2.907  2.9726 -0.3615 -2.2917
  961TIP3    H224375   2.032   0.319   2.924 -1.2510 -4.6217  0.0935
  962TIP3   OH224376   2.741   1.267  31.650  0.6246  0.3533  0.2489
  962TIP3    H124377   2.768   1.205  31.719  0.8143  0.7800  0.5595
  962TIP3    H224378   2.763   1.222  31.568  0.3815 -0.1651  0.4634
  963TIP3   OH224379   2.168   3.566   4.204 -0.3423  0.2779  0.6186
  963TIP3    H124380   2.148   3.480   4.240  1.7339 -0.8350 -0.6628
  963TIP3    H224381   2.239   3.600   4.259  0.3496  0.1621 -0.1699
  964TIP3   OH224382   2.203   2.362  33.071 -0.3468 -0.1204  0.1476
  964TIP3    H124383   2.123   2.323  33.036 -1.0126  1.3960 -0.0910
  964TIP3    H224384   2.181   2.388  33.160  0.5460 -1.5470  0.8418
  965TIP3   OH224385   2.207   0.500  38.217 -0.0719 -0.4895 -0.2848
  965TIP3    H124386   2.180   0.589  38.239 -0.7268 -0.9144  0.6908
  965TIP3    H224387   2.166   0.445  38.283 -0.7328 -1.6674 -1.6103
  966TIP3   OH224388   1.470   3.840   0.474  0.0791 -0.0013  0.4526
  966TIP3    H124389   1.499   3.867   0.387  1.7800  0.7890  1.2188
  966TIP3    H224390   1.445   3.749   0.464  1.5890 -0.3375 -0.5886
  967TIP3   OH224391   1.400   1.986   6.781  0.6451 -0.2877  0.2606
  967TIP3    H124392   1.346   2.008   6.705  0.2159 -0.9363  0.3704
  967TIP3    H224393   1.489   2.013   6.756  0.5967 -0.9374 -0.6739
  968TIP3   OH224394   0.756   2.356   2.401  0.2206 -0.3251 -0.4067
  968TIP3    H124395   0.841   2.338   2.440 -0.7820 -1.3027  1.5352
  968TIP3    H224396   0.768   2.340   2.308  2.2734  0.1242 -0.2636
  969TIP3   OH224397   2.898   1.986  42.443  0.2328 -0.0308 -0.6637
  969TIP3    H124398   2.969   1.959  42.501  1.1426  0.1281 -1.6755
  969TIP3    H224399   2.891   2.081  42.457  0.9820  0.1414 -1.3561
  970TIP3   OH224400   1.830   1.793   7.556  0.1071  0.0362  0.1725
  970TIP3    H124401   1.802   1.754   7.639  1.2645  1.4715  1.2737
  970TIP3    H224402   1.752   1.788   7.500 -1.1798  0.4240  1.8511
  971TIP3   OH224403   3.294   1.988  18.528  0.3718  1.2041 -0.6768
  971TIP3    H124404   3.249   2.040  18.595 -0.2712  1.7812 -1.5321
  971TIP3    H224405   3.358   2.048  18.490  0.7533  0.8679 -0.5794
  972TIP3   OH224406   3.728   1.074  11.011 -0.5439 -0.8084 -0.4901
  972TIP3    H124407   3.667   1.004  10.991  0.8685 -2.4200  0.5382
  972TIP3    H224408   3.781   1.084  10.932 -1.0365 -0.5755 -0.7952
  973TIP3   OH224409   1.344   2.452  16.856 -0.1764  0.4098 -0.0165
  973TIP3    H124410   1.413   2.400  16.814  0.0796  0.3995  0.4096
  973TIP3    H224411   1.301   2.498  16.784  0.3503  0.5023 -0.2721
  974TIP3   OH224412   1.091   2.225   5.662 -0.0170  0.6654  0.3068
  974TIP3    H124413   1.015   2.220   5.720  0.2694  2.1084  0.8454
  974TIP3    H224414   1.152   2.160   5.696 -0.1108  1.0632  1.2571
  975TIP3   OH224415   3.449   1.371  32.080  0.0054  0.1480  0.2301
  975TIP3    H124416   3.389   1.332  32.143  0.3902  3.0501  2.6291
  975TIP3    H224417   3.536   1.357  32.117  0.2577  1.7163  0.2988
  976TIP3   OH224418   1.203   0.978   7.687 -0.3050  0.2667 -0.1215
  976TIP3    H124419   1.182   0.941   7.601  0.9072  0.7424 -0.6449
  976TIP3    H224420   1.250   0.907   7.732  0.5229  0.5738 -0.4871
  977TIP3   OH224421   1.240   2.876   4.253 -0.0872  0.1387  0.2502
  977TIP3    H124422   1.245   2.951   4.194  0.2656 -0.1850 -0.1427
  977TIP3    H224423   1.280   2.906   4.335 -1.3238  0.8508  0.6196
  978TIP3   OH224424   1.482   3.165   9.445  0.3701 -0.4795  0.1979
  978TIP3    H124425   1.438   3.210   9.373 -0.9183 -0.9643  0.6510
  978TIP3    H224426   1.541   3.231   9.482  0.1235  0.1567 -0.5194
  979TIP3   OH224427   1.374   1.066  39.801  0.0902 -0.3479  0.2235
  979TIP3    H124428   1.376   1.160  39.783 -0.5588 -0.4891 -0.6285
  979TIP3    H224429   1.396   1.025  39.718 -0.1535 -0.9662  0.4564
  980TIP3   OH224430   0.075   3.840  31.185  0.7236  0.1945 -0.1096
  980TIP3    H124431   0.128   3.920  31.176  1.5811 -0.4436 -0.9512
  980TIP3    H224432  -0.006   3.860  31.138  0.6223  0.8377  0.3296
  981TIP3   OH224433   0.442   2.404   5.576 -0.2058  1.0501  0.3418
  981TIP3    H124434   0.521   2.425   5.526  0.3115  0.4885  0.9111
  981TIP3    H224435   0.449   2.458   5.655 -1.5297  2.7241 -0.6106
  982TIP3   OH224436   1.988   0.279   4.746  0.1279  0.2079  0.1662
  982TIP3    H124437   2.047   0.328   4.689  0.5247 -0.0022  0.3837
  982TIP3    H224438   1.963   0.202   4.694  1.4897 -0.6376  0.7011
  983TIP3   OH224439   1.752   0.502  11.569  0.7376  0.1959  0.2421
  983TIP3    H124440   1.742   0.409  11.549 -1.5386  0.6793 -1.1699
  983TIP3    H224441   1.751   0.506  11.665  1.8545 -1.2840  0.3549
  984TIP3   OH224442   1.155   0.026   7.189 -0.2221 -0.1623  0.2534
  984TIP3    H124443   1.147  -0.069   7.180 -2.0005  0.0090 -0.4258
  984TIP3    H224444   1.112   0.061   7.111 -0.9562  1.2008  1.2253
  985TIP3   OH224445   1.840   0.959  41.458  0.1329 -0.2090 -0.0935
  985TIP3    H124446   1.773   0.895  41.433  0.2546 -1.1245  1.7422
  985TIP3    H224447   1.922   0.908  41.460  0.6806  0.5985 -1.0417
  986TIP3   OH224448   1.546   3.536  32.523  0.1954  0.3130  0.4449
  986TIP3    H124449   1.493   3.597  32.575 -1.6671  0.9749 -1.9942
  986TIP3    H224450   1.498   3.453  32.527  0.1000  0.3377 -0.0634
  987TIP3   OH224451   2.319   4.022  13.986 -0.5293  0.5309  0.7961
  987TIP3    H124452   2.359   4.109  13.994 -1.9851  1.1823  1.2715
  987TIP3    H224453   2.393   3.962  13.996  0.6056  1.6960 -0.1115
  988TIP3   OH224454   1.402   1.825   2.570 -0.0861 -0.2148  0.3436
  988TIP3    H124455   1.483   1.786   2.537  0.6052 -0.1484  1.8845
  988TIP3    H224456   1.425   1.916   2.588  0.4080 -0.8391  3.5103
  989TIP3   OH224457   2.406   0.412  44.119  0.0245  0.1194  0.3915
  989TIP3    H124458   2.423   0.506  44.125 -0.8464  0.2686  0.6361
  989TIP3    H224459   2.408   0.381  44.210 -1.1227  0.1738  0.4474
  990TIP3   OH224460   3.797   3.307  12.581  0.0520  0.6039 -0.3540
  990TIP3    H124461   3.822   3.219  12.554  0.3543 -0.0749  1.9176
  990TIP3    H224462   3.878   3.347  12.611 -0.1539  1.5548 -1.0154
  991TIP3   OH224463   0.600   1.072  31.973 -0.1221 -0.2641  0.2573
  991TIP3    H124464   0.509   1.044  31.985  0.3740 -1.6527  0.9824
  991TIP3    H224465   0.620   1.049  31.882 -0.2346 -0.7354  0.3494
  992TIP3   OH224466   0.943   3.780  31.495 -0.0585 -0.0515  0.4125
  992TIP3    H124467   0.884   3.790  31.570  0.5326 -0.3334  0.9245
  992TIP3    H224468   1.027   3.811  31.527  0.3258 -0.7028  0.0393
  993TIP3   OH224469   1.566   0.182  41.358 -0.2332  0.0489 -0.0239
  993TIP3    H124470   1.552   0.087  41.349  1.1588 -0.4961  2.4658
  993TIP3    H224471   1.576   0.214  41.269 -0.0741 -2.2841 -0.9094
  994TIP3   OH224472   2.988   1.635   6.121 -0.0189  0.2242  0.1329
  994TIP3    H124473   3.011   1.714   6.169 -0.7939  1.0964 -0.8954
  994TIP3    H224474   2.987   1.566   6.188  3.5107  0.4558  0.6052
  995TIP3   OH224475   0.198   2.013   8.189  0.5907 -1.0846 -0.2442
  995TIP3    H124476   0.203   2.044   8.279 -2.1260  2.5151 -1.0819
  995TIP3    H224477   0.237   2.083   8.137  0.0281 -1.9985 -1.9862
  996TIP3   OH224478   2.684   1.174   7.870 -0.3241  0.1932 -0.4610
  996TIP3    H124479   2.630   1.246   7.838 -0.4795  0.4616  0.3909
  996TIP3    H224480   2.722   1.206   7.951 -1.3028 -1.0826  0.5386
  997TIP3   OH224481   2.955   1.092   0.556  0.0256  0.4508  0.4952
  997TIP3    H124482   3.002   1.174   0.541 -1.5280  1.3107  0.1344
  997TIP3    H224483   2.980   1.036   0.483  0.4093  0.9264  0.2588
  998TIP3   OH224484   0.781   2.264  11.253  0.0224 -0.3927 -0.1018
  998TIP3    H124485   0.874   2.286  11.248 -0.1774  0.4965 -0.0568
  998TIP3    H224486   0.737   2.348  11.264 -0.7391 -0.8616  0.5657
  999TIP3   OH224487   1.491   2.980  46.832  0.1661 -0.1752  0.1392
  999TIP3    H124488   1.550   2.974  46.757  0.6369 -0.7246  0.5501
  999TIP3    H224489   1.530   3.047  46.888 -0.0610  0.0699  0.0057
 1000TIP3   OH224490   1.629   2.265  44.744  0.3920 -0.1757  0.2662
 1000TIP3    H124491   1.564   2.284  44.676  0.2418  0.4079  0.5700
 1000TIP3    H224492   1.713   2.283  44.702  0.2793  0.5799  0.3562
 1001TIP3   OH224493   3.161   2.172  46.800 -0.3495 -0.2263  0.7627
 1001TIP3    H124494   3.205   2.131  46.726 -0.7551 -0.5746  0.7137
 1001TIP3    H224495   3.233   2.204  46.855  0.1012 -2.7930  1.8331
 1002TIP3   OH224496   1.654   1.337  31.553  0.2212  1.1186  0.0166
 1002TIP3    H124497   1.566   1.351  31.516 -0.2694 -0.6228  0.3917
 1002TIP3    H224498   1.648   1.370  31.643 -0.8526 -1.1104  0.8445
 1003TIP3   OH224499   1.546   2.011   7.039  0.3970  0.2087 -0.1424
 1003TIP3    H124500   1.508   1.978   6.957 -2.0051  1.5615  0.3591
 1003TIP3    H224501   1.496   2.089   7.059  1.2368  0.1645  2.4143
 1004TIP3   OH224502   0.118   0.038  39.200  0.0988  0.3024  0.4498
 1004TIP3    H124503   0.157   0.111  39.248  0.5871 -0.3173  1.0303
 1004TIP3    H224504   0.067  -0.010  39.266 -1.2990  0.8398 -0.2001
 1005TIP3   OH224505   1.401   2.078   9.098  0.1785 -0.0785  0.2378
 1005TIP3    H124506   1.349   2.050   9.174  0.9201  0.5383  0.9850
 1005TIP3    H224507   1.462   2.006   9.083  0.2074 -0.0857  0.3918
 1006TIP3   OH224508   3.875   0.898  10.509  0.2899 -0.2620 -0.0687
 1006TIP3    H124509   3.887   0.825  10.570 -2.1311 -0.0519  0.7473
 1006TIP3    H224510   3.963   0.936  10.500  1.3030 -2.2769  0.7373
 1007TIP3   OH224511   0.636   1.239  44.040  0.4610 -0.4118  0.6016
 1007TIP3    H124512   0.595   1.268  44.122  1.4000 -0.7467  1.2114
 1007TIP3    H224513   0.672   1.319  44.002  1.6239 -0.5022  1.4556
 1008TIP3   OH224514   3.143   1.704  20.598 -0.1501 -0.5805  0.3410
 1008TIP3    H124515   3.121   1.699  20.691  0.1046 -0.1687  0.4234
 1008TIP3    H224516   3.180   1.618  20.578 -2.2420 -1.4817  0.0784
 1009TIP3   OH224517   3.426   1.780  34.458  0.3300 -0.0944  0.2496
 1009TIP3    H124518   3.366   1.711  34.430  0.6444  0.3253 -1.5237
 1009TIP3    H224519   3.369   1.848  34.495  0.0184 -1.2605  2.0976
 1010TIP3   OH224520   0.168   1.398  45.782  0.2298  0.2677 -0.2239
 1010TIP3    H124521   0.230   1.447  45.728  0.7677 -1.6959 -1.4847
 1010TIP3    H224522   0.085   1.404  45.734 -0.0476  1.0244  0.3229
 1011TIP3   OH224523   2.212   0.240  15.733  0.3668 -0.0239  0.1091
 1011TIP3    H124524   2.279   0.215  15.669 -0.4564  0.1374 -0.8548
 1011TIP3    H224525   2.259   0.285  15.802  1.0050  2.4809 -1.8071
 1012TIP3   OH224526   4.095   3.976  26.239  0.5825  0.2173  0.4322
 1012TIP3    H124527   4.109   3.892  26.195  1.2043  1.2078 -1.3664
 1012TIP3    H224528   4.121   3.960  26.329 -1.3038 -2.0676  0.6720
 1013TIP3   OH224529   2.736   3.930  27.055  0.6033 -0.3175  0.2784
 1013TIP3    H124530   2.660   3.951  27.002  0.1787 -0.9763  0.6100
 1013TIP3    H224531   2.753   3.837  27.037  0.3025 -0.6176  1.4537
 1014TIP3   OH224532   1.097   1.461  39.535 -0.1226  0.0715  0.1075
 1014TIP3    H124533   1.148   1.393  39.579  1.8108  0.6820 -1.0509
 1014TIP3    H224534   1.109   1.539  39.589  1.3188  0.5332 -0.7942
 1015TIP3   OH224535   4.086   1.323   1.955  0.9714  0.1447  0.6195
 1015TIP3    H124536   3.993   1.335   1.936  1.2792  0.1270 -1.0047
 1015TIP3    H224537   4.100   1.372   2.036 -0.6379 -0.6252  1.4045
 1016TIP3   OH224538   1.334   3.535  35.904 -0.7723 -0.2194  0.2738
 1016TIP3    H124539   1.385   3.472  35.854 -0.4612  0.0430  0.2596
 1016TIP3    H224540   1.369   3.621  35.879 -0.9022 -0.0632  0.6177
 1017TIP3   OH224541   0.801   3.219  32.358  0.2009 -0.5212  0.5892
 1017TIP3    H124542   0.772   3.287  32.419  2.4012 -0.0343  1.1835
 1017TIP3    H224543   0.879   3.256  32.318  0.2499 -1.8935 -0.6506
 1018TIP3   OH224544   0.246   0.692   0.908 -0.0602 -0.3666 -0.3401
 1018TIP3    H124545   0.159   0.731   0.897 -0.3760 -0.7337  0.8124
 1018TIP3    H224546   0.246   0.617   0.848 -1.6581 -2.1687  1.7922
 1019TIP3   OH224547   1.567   2.047  46.856  0.0456  0.2643 -0.8736
 1019TIP3    H124548   1.551   1.997  46.936 -0.0226 -1.5066 -1.9627
 1019TIP3    H224549   1.572   2.138  46.886 -1.4836 -0.1883  0.9394
 1020TIP3   OH224550   3.297   3.565  37.737  0.2828 -0.0424 -0.1519
 1020TIP3    H124551   3.350   3.486  37.745  0.8614  0.3826  0.2374
 1020TIP3    H224552   3.283   3.594  37.827  1.1142  0.9874 -0.3400
 1021TIP3   OH224553   1.695   1.797  12.901  0.0716  0.3172 -0.1637
 1021TIP3    H124554   1.658   1.712  12.878  2.3212 -0.7196 -0.2119
 1021TIP3    H224555   1.674   1.853  12.826 -0.4108 -0.5175 -0.6677
 1022TIP3   OH224556   0.631   3.808  25.720 -0.1043 -0.7655 -0.7979
 1022TIP3    H124557   0.542   3.781  25.742 -0.0125 -0.8176 -0.4902
 1022TIP3    H224558   0.687   3.746  25.765  0.1135  0.1482  0.2369
 1023TIP3   OH224559   1.693   2.057  33.285  0.0107  0.1599  0.3433
 1023TIP3    H124560   1.613   2.090  33.244  0.2971  0.2302 -0.1759
 1023TIP3    H224561   1.682   1.962  33.288 -0.3747  0.2228  0.8812
 1024TIP3   OH224562   0.654   0.210  35.735 -0.3834 -0.0452  0.1894
 1024TIP3    H124563   0.607   0.262  35.800  1.0055  0.8398  0.5381
 1024TIP3    H224564   0.596   0.208  35.659 -1.6059 -0.2568  1.1022
 1025TIP3   OH224565   0.262   3.425  12.430 -0.2986 -0.2148 -1.1251
 1025TIP3    H124566   0.167   3.433  12.437 -0.2172 -0.1431  0.0937
 1025TIP3    H224567   0.279   3.427  12.336 -1.5386 -0.7193 -1.3797
 1026TIP3   OH224568   3.924   2.889  37.910  0.4411 -0.1970 -0.4101
 1026TIP3    H124569   3.997   2.870  37.851  0.5695  0.7180 -0.5713
 1026TIP3    H224570   3.920   2.814  37.969  2.6073  0.4661  0.6931
 1027TIP3   OH224571   2.043   3.366   5.557 -0.0406 -0.0185  0.1036
 1027TIP3    H124572   2.104   3.381   5.629  0.5983  1.2114 -0.6677
 1027TIP3    H224573   2.065   3.278   5.525 -0.0952 -0.4298  1.1485
 1028TIP3   OH224574   1.266   2.564  16.614 -0.4013  0.0612  0.6357
 1028TIP3    H124575   1.266   2.484  16.562 -2.4764 -0.2145  0.9550
 1028TIP3    H224576   1.357   2.594  16.613  0.4964 -2.4573  0.7952
 1029TIP3   OH224577   2.697   1.175   5.881 -0.2800 -0.3477 -0.3394
 1029TIP3    H124578   2.731   1.145   5.797 -1.1321 -1.0593 -0.4294
 1029TIP3    H224579   2.615   1.128   5.893 -0.8130  0.6948  0.2968
 1030TIP3   OH224580   0.047   2.917  43.540  0.1187  0.2440 -0.2066
 1030TIP3    H124581  -0.001   2.876  43.468 -1.2976  0.1208  0.7764
 1030TIP3    H224582   0.035   2.858  43.614  2.9032 -0.4651 -0.2142
 1031TIP3   OH224583   2.998   2.463  47.014 -0.2230  0.3848  0.2460
 1031TIP3    H124584   3.053   2.437  46.941  0.8808 -1.2423  1.5988
 1031TIP3    H224585   3.059   2.488  47.083 -1.1722 -0.3178  1.3838
 1032TIP3   OH224586   0.372   2.792   9.131  0.6075 -0.1318  0.4046
 1032TIP3    H124587   0.278   2.802   9.143  0.5409 -1.2555  0.9545
 1032TIP3    H224588   0.400   2.736   9.204  1.4695 -0.9339 -0.5101
 1033TIP3   OH224589   2.608   1.305  35.359 -0.3013 -0.6231  0.1503
 1033TIP3    H124590   2.531   1.299  35.303 -0.0427 -0.1506 -0.2630
 1033TIP3    H224591   2.671   1.244  35.319 -0.3039 -0.6852  0.2398
 1034TIP3   OH224592   3.352   2.662   5.820  0.5404 -0.0979 -0.3243
 1034TIP3    H124593   3.410   2.606   5.768  1.4959 -0.1609  0.7700
 1034TIP3    H224594   3.345   2.618   5.905  0.9175  1.1838  0.4010
 1035TIP3   OH224595   0.260   4.046  40.215 -0.8877  0.2837 -0.3378
 1035TIP3    H124596   0.213   3.968  40.242 -2.3054  0.2114 -2.7057
 1035TIP3    H224597   0.259   4.103  40.292 -1.2378 -1.3622  0.9323
 1036TIP3   OH224598   0.953   3.826  39.830  0.0509 -0.1305 -0.2125
 1036TIP3    H124599   0.942   3.732  39.838 -0.9726 -0.1092 -1.2257
 1036TIP3    H224600   1.037   3.844  39.873  0.3976 -1.5321 -0.2683
 1037TIP3   OH224601   1.875   1.404  15.160  0.1428 -0.1831  0.0635
 1037TIP3    H124602   1.823   1.464  15.213 -1.5939 -1.6502  0.1156
 1037TIP3    H224603   1.964   1.436  15.168 -0.4275  1.0893  1.8409
 1038TIP3   OH224604   1.333   0.334  41.117  0.0432 -0.3544 -0.1284
 1038TIP3    H124605   1.287   0.265  41.070  1.1282 -1.3823  0.2757
 1038TIP3    H224606   1.425   0.321  41.095  0.1893  1.5840 -0.8215
 1039TIP3   OH224607   2.268   1.440   1.881  0.1885 -0.1384 -0.3341
 1039TIP3    H124608   2.207   1.405   1.945 -1.1955  0.8421 -1.0642
 1039TIP3    H224609   2.220   1.437   1.798 -0.0418  3.2925 -0.4672
 1040TIP3   OH224610   0.221   3.386  41.185 -0.0651 -0.3597 -0.3586
 1040TIP3    H124611   0.278   3.363  41.111  0.7021 -1.8265  0.6472
 1040TIP3    H224612   0.191   3.302  41.220 -1.4692  0.3399  0.2284
 1041TIP3   OH224613   0.719   1.299   3.060  0.1168 -0.2897  0.1107
 1041TIP3    H124614   0.717   1.298   3.156 -2.2721  0.9725  0.1512
 1041TIP3    H224615   0.717   1.207   3.035  1.6419 -0.6735  1.2304
 1042TIP3   OH224616   0.925   3.204   2.950  0.5399 -0.0188  0.0532
 1042TIP3    H124617   0.836   3.238   2.952 -0.3435 -1.8742 -2.3023
 1042TIP3    H224618   0.978   3.277   2.917 -0.0216  1.1489  1.6222
 1043TIP3   OH224619   0.525   1.709  32.205 -0.3829 -0.5578 -0.2902
 1043TIP3    H124620   0.483   1.794  32.193 -0.8247 -0.8956 -1.2821
 1043TIP3    H224621   0.584   1.701  32.130  0.6141 -0.5844  0.4817
 1044TIP3   OH224622   0.334   0.167  36.933 -1.4280  0.1236 -0.1831
 1044TIP3    H124623   0.316   0.242  36.989 -0.6584  0.3967 -0.2893
 1044TIP3    H224624   0.376   0.204  36.856  0.4430 -0.5440  0.4642
 1045TIP3   OH224625   1.053   3.863   3.968 -0.6104  0.7961  0.2630
 1045TIP3    H124626   1.034   3.769   3.973  0.1372  0.6007 -0.5151
 1045TIP3    H224627   0.978   3.904   4.011  0.3755 -0.2617  3.2749
 1046TIP3   OH224628   2.385   2.481  34.604 -0.5976  0.2620  0.0825
 1046TIP3    H124629   2.470   2.523  34.613 -1.2236  1.5121  0.4425
 1046TIP3    H224630   2.387   2.439  34.518  1.0803 -1.4414  0.8853
 1047TIP3   OH224631   1.511   1.685   6.240 -0.5846 -0.4404  0.1997
 1047TIP3    H124632   1.423   1.713   6.217 -0.5147 -0.5114 -0.1565
 1047TIP3    H224633   1.568   1.748   6.196 -0.4025 -1.4763 -1.1088
 1048TIP3   OH224634   3.198   3.497  46.059  0.3256 -0.9176 -0.0401
 1048TIP3    H124635   3.163   3.408  46.052  0.0408 -0.9378  1.3649
 1048TIP3    H224636   3.122   3.554  46.048  0.3561 -0.8772 -0.0403
 1049TIP3   OH224637   1.825   0.665  40.603 -0.2229 -0.3754 -0.4870
 1049TIP3    H124638   1.778   0.616  40.670  1.1263  1.4820  1.9779
 1049TIP3    H224639   1.757   0.715  40.557 -1.1681 -1.6396 -0.5126
 1050TIP3   OH224640   0.860   1.175  34.793  0.1566  0.1812 -0.1864
 1050TIP3    H124641   0.920   1.250  34.797 -0.6233  0.7711  0.9301
 1050TIP3    H224642   0.797   1.199  34.725 -0.7182  1.0375  0.9035
 1051TIP3   OH224643   0.382   1.293   3.358  0.4849 -0.1988  0.4237
 1051TIP3    H124644   0.395   1.317   3.267  2.2889  1.6899  1.0928
 1051TIP3    H224645   0.357   1.201   3.356 -0.9722  0.1785 -2.0197
 1052TIP3   OH224646   3.369   2.673   1.530 -0.7717 -0.4258 -0.1628
 1052TIP3    H124647   3.407   2.747   1.483  1.8488 -1.7396 -0.2556
 1052TIP3    H224648   3.368   2.701   1.622  0.4248 -0.3482 -0.1623
 1053TIP3   OH224649   3.478   2.287  14.587  0.2735 -0.0668  0.5048
 1053TIP3    H124650   3.526   2.325  14.514  0.3344  1.0389  1.1005
 1053TIP3    H224651   3.416   2.226  14.547 -0.3022  1.1790 -0.5392
 1054TIP3   OH224652   0.374   3.260  27.914  0.3627  0.1616  0.0409
 1054TIP3    H124653   0.374   3.250  27.819 -0.6883 -0.6090  0.1043
 1054TIP3    H224654   0.300   3.206  27.944  2.6520 -2.3856  1.5843
 1055TIP3   OH224655   1.338   3.023  46.319  0.3126  0.0029  0.5393
 1055TIP3    H124656   1.419   3.071  46.307  0.0210  1.1146  2.4816
 1055TIP3    H224657   1.365   2.934  46.339  1.0013  0.0671 -0.0969
 1056TIP3   OH224658   0.721   2.263  34.938 -0.7014  0.5152 -0.4395
 1056TIP3    H124659   0.792   2.319  34.909  0.3937 -0.7028 -0.1947
 1056TIP3    H224660   0.759   2.175  34.943 -2.2414 -0.1897 -0.3880
 1057TIP3   OH224661   4.086   0.972  20.997  0.7158  0.8898  0.0224
 1057TIP3    H124662   3.994   0.949  20.987  0.7517 -0.2559  1.9123
 1057TIP3    H224663   4.089   1.027  21.075  1.6321  0.8758  0.0077
 1058TIP3   OH224664   3.127   4.034  46.814  0.5259 -0.8368  0.1346
 1058TIP3    H124665   3.151   4.049  46.905 -0.8348 -1.4318  0.6172
 1058TIP3    H224666   3.057   4.097  46.797  0.8655 -0.6282 -0.5607
 1059TIP3   OH224667   1.917   1.210   4.690  0.2307 -0.0438  0.0341
 1059TIP3    H124668   1.961   1.294   4.696 -0.6987  0.3803  1.5137
 1059TIP3    H224669   1.954   1.158   4.761 -0.2886 -0.3371  0.0984
 1060TIP3   OH224670   1.390   2.738  46.406 -0.2174  0.3069 -0.4504
 1060TIP3    H124671   1.484   2.742  46.423 -0.1915 -0.4115 -0.4137
 1060TIP3    H224672   1.350   2.743  46.493 -0.2990  2.5907 -0.5623
 1061TIP3   OH224673   3.349   1.679  44.440 -0.0385 -0.1550  0.6704
 1061TIP3    H124674   3.340   1.650  44.349 -0.8921  0.3650  0.5715
 1061TIP3    H224675   3.370   1.599  44.488  1.2580 -0.2952 -0.0869
 1062TIP3   OH224676   1.081   2.327  15.895  0.6813  0.3518 -0.0306
 1062TIP3    H124677   1.070   2.315  15.801 -0.4808  0.2674  0.1035
 1062TIP3    H224678   1.034   2.408  15.914 -1.4252 -1.0026  0.8791
 1063TIP3   OH224679   2.188   3.512  31.220  0.1803 -0.4299  0.3083
 1063TIP3    H124680   2.177   3.417  31.214 -0.3814 -0.3067 -1.0103
 1063TIP3    H224681   2.175   3.543  31.130  0.6564  0.8662  0.6650
 1064TIP3   OH224682   2.437   3.650  30.039 -0.0060  0.0122  0.0774
 1064TIP3    H124683   2.502   3.673  29.972 -0.0489 -0.3379 -0.0861
 1064TIP3    H224684   2.354   3.681  30.003 -0.4078 -2.3376 -1.1576
 1065TIP3   OH224685   3.890   0.254  45.604  0.3532 -0.1246  0.0072
 1065TIP3    H124686   3.797   0.233  45.608  0.9682 -3.0670  1.2246
 1065TIP3    H224687   3.910   0.288  45.691  0.7365 -1.2156  0.3599
 1066TIP3   OH224688   1.903   3.294  33.154  0.2825 -0.4159 -0.0514
 1066TIP3    H124689   1.884   3.216  33.103  1.7029 -0.1726 -0.9999
 1066TIP3    H224690   1.827   3.351  33.140 -0.9929 -1.7577  1.0334
 1067TIP3   OH224691   2.253   1.739  44.102 -0.2387 -0.6996 -0.5889
 1067TIP3    H124692   2.341   1.721  44.068 -0.2605 -1.4432 -0.2905
 1067TIP3    H224693   2.264   1.816  44.158  0.1548 -0.5856 -0.8151
 1068TIP3   OH224694   0.930   2.260  35.484 -0.3490  0.2833  0.2495
 1068TIP3    H124695   0.958   2.228  35.398  0.1702  1.5870 -0.0943
 1068TIP3    H224696   1.008   2.251  35.539 -0.3594  0.4331  0.2893
 1069TIP3   OH224697   2.900   3.897   7.677 -0.1318  0.4775  0.2038
 1069TIP3    H124698   2.871   3.816   7.634 -1.7927  1.3153 -0.3711
 1069TIP3    H224699   2.973   3.928   7.623 -0.7188  0.3200 -0.7188
 1070TIP3   OH224700   1.544   2.982  41.536  0.3577  0.1735  0.0737
 1070TIP3    H124701   1.555   3.010  41.445  2.1245 -1.3923 -0.2638
 1070TIP3    H224702   1.620   3.017  41.582 -0.0998  0.2695  0.7664
 1071TIP3   OH224703   1.158   0.553  14.131 -0.0046  0.3609  0.2695
 1071TIP3    H124704   1.199   0.599  14.205  2.0899 -1.4316  0.3257
 1071TIP3    H224705   1.080   0.512  14.168  2.3131 -2.6370  2.3156
 1072TIP3   OH224706   2.756   1.806  45.602 -0.1569 -0.1794 -0.3801
 1072TIP3    H124707   2.786   1.866  45.535 -1.4520  0.2373 -0.6028
 1072TIP3    H224708   2.680   1.848  45.641  0.4473 -0.4924  1.2373
 1073TIP3   OH224709   2.886   3.170   0.556  0.6944  0.4524 -0.7990
 1073TIP3    H124710   2.849   3.255   0.531  0.7552  0.3820 -1.1390
 1073TIP3    H224711   2.857   3.156   0.646  0.9815  1.0021 -0.6146
 1074TIP3   OH224712   2.176   3.734  25.970  0.0113 -0.1133 -0.7059
 1074TIP3    H124713   2.084   3.712  25.986  0.1543  0.8793  1.9421
 1074TIP3    H224714   2.223   3.692  26.042  0.7246  5.2606  2.4507
 1075TIP3   OH224715   1.056   3.595  42.835  0.4347  0.0745  0.1481
 1075TIP3    H124716   1.004   3.515  42.847  1.0275 -0.1402  1.4385
 1075TIP3    H224717   1.027   3.653  42.905  1.5464  0.1484  0.5709
 1076TIP3   OH224718   2.969   1.289  40.090  0.0807  0.3623  0.1867
 1076TIP3    H124719   2.980   1.242  40.172  0.0907  1.3962  0.8016
 1076TIP3    H224720   3.056   1.294  40.052  0.2389  0.6829  0.5819
 1077TIP3   OH224721   1.486   0.551  35.814  0.2267 -0.2348 -0.6380
 1077TIP3    H124722   1.543   0.610  35.862  0.2491 -1.4131  0.8559
 1077TIP3    H224723   1.440   0.501  35.882 -1.6185 -0.2312 -1.8064
 1078TIP3   OH224724   0.196   0.595  13.398  0.2964  0.9070 -0.3294
 1078TIP3    H124725   0.120   0.584  13.456  0.4318 -1.0232 -0.4283
 1078TIP3    H224726   0.170   0.553  13.316  1.0002  1.4060 -0.8191
 1079TIP3   OH224727   2.718   3.948  13.074 -0.0447 -0.4392 -0.4346
 1079TIP3    H124728   2.666   4.003  13.133  0.9840  2.0328 -1.7215
 1079TIP3    H224729   2.661   3.873  13.055 -1.0981 -0.4219  2.1991
 1080TIP3   OH224730   1.319   0.275  34.613 -0.0469  0.3789 -0.4478
 1080TIP3    H124731   1.229   0.267  34.645  0.2693  1.4105  0.7507
 1080TIP3    H224732   1.371   0.219  34.670  0.3766  1.4536  0.2359
 1081TIP3   OH224733   1.304   1.870   4.213  0.2188 -0.4855  0.3479
 1081TIP3    H124734   1.322   1.820   4.133 -2.8537 -0.7235 -0.3234
 1081TIP3    H224735   1.259   1.948   4.182 -1.2064 -0.6756  1.8427
 1082TIP3   OH224736   2.745   1.177  39.812  0.1177 -0.4246 -0.4527
 1082TIP3    H124737   2.719   1.160  39.722  2.1509  1.1896 -1.4375
 1082TIP3    H224738   2.823   1.122  39.826 -0.3864 -0.9413  0.4797
 1083TIP3   OH224739   3.323   1.137   8.523 -0.2850  0.5676  0.0996
 1083TIP3    H124740   3.291   1.193   8.452 -1.4530 -1.3984 -1.0507
 1083TIP3    H224741   3.366   1.064   8.478  0.5266  0.1603  1.4886
 1084TIP3   OH224742   3.775   0.335   5.674 -0.3448  0.7161  0.0290
 1084TIP3    H124743   3.741   0.338   5.584 -0.4942 -1.0536 -0.0040
 1084TIP3    H224744   3.750   0.420   5.711 -1.0177  1.1520 -1.3261
 1085TIP3   OH224745   1.607   2.651   4.583 -0.1598  0.5397 -0.0466
 1085TIP3    H124746   1.639   2.562   4.567  0.3443  0.7907 -0.4680
 1085TIP3    H224747   1.684   2.707   4.571 -0.3992  1.0077  0.5292
 1086TIP3   OH224748   3.285   2.982  12.861  0.0980  0.1410 -0.0578
 1086TIP3    H124749   3.210   2.953  12.809 -0.9410  0.6562  1.1093
 1086TIP3    H224750   3.281   3.077  12.857  0.7329  0.1693 -0.0270
 1087TIP3   OH224751   3.826   1.149  46.171 -0.4755  0.6582 -0.1175
 1087TIP3    H124752   3.786   1.099  46.242  0.7749 -1.5065 -0.8525
 1087TIP3    H224753   3.920   1.147  46.190 -0.1637  0.4356 -1.5779
 1088TIP3   OH224754   0.386   1.002   7.799  0.1235  0.4503  0.2934
 1088TIP3    H124755   0.323   1.046   7.856  0.2483  1.1744 -0.1171
 1088TIP3    H224756   0.471   1.015   7.841  0.0893  0.1143  0.4650
 1089TIP3   OH224757   0.186   3.654  32.708 -0.2104  0.2337 -0.1969
 1089TIP3    H124758   0.178   3.566  32.745  0.5836 -0.3716 -1.4113
 1089TIP3    H224759   0.198   3.640  32.614  0.2599  1.6226 -0.3679
 1090TIP3   OH224760   3.484   0.533  30.627  0.7862 -0.2429 -0.1359
 1090TIP3    H124761   3.458   0.452  30.582 -0.9441 -0.3182  0.8979
 1090TIP3    H224762   3.577   0.522  30.644  0.9756 -1.2129 -1.6100
 1091TIP3   OH224763   2.451   2.436  44.334  0.0421 -0.8154 -0.4068
 1091TIP3    H124764   2.544   2.419  44.325  0.4997  0.9606  0.5616
 1091TIP3    H224765   2.445   2.529  44.355 -1.8763 -1.1141  0.6467
 1092TIP3   OH224766   3.681   2.416  43.389 -0.0810  0.4243  0.4265
 1092TIP3    H124767   3.652   2.472  43.461 -0.0983 -0.5465  1.1929
 1092TIP3    H224768   3.776   2.409  43.402  0.4046  2.4987 -1.2923
 1093TIP3   OH224769   0.990   2.209  11.534  0.6950  0.1485  0.0208
 1093TIP3    H124770   0.950   2.231  11.619 -0.2338 -1.4591  0.0389
 1093TIP3    H224771   1.014   2.293  11.497  1.4185  0.8808  2.0168
 1094TIP3   OH224772   3.552   2.956   6.507 -0.3387  0.4212  0.3236
 1094TIP3    H124773   3.508   2.871   6.501  0.8979 -0.4306  2.2308
 1094TIP3    H224774   3.599   2.952   6.590 -0.7861  3.2666  0.7866
 1095TIP3   OH224775   3.880   2.407  34.010  0.3592 -0.9273 -0.6571
 1095TIP3    H124776   3.954   2.411  33.950  0.0321 -0.0876 -1.0201
 1095TIP3    H224777   3.856   2.314  34.014  1.9014 -1.3228  0.0603
 1096TIP3   OH224778   2.074   1.182   5.721  0.2650 -0.3104  0.1824
 1096TIP3    H124779   2.004   1.210   5.781  0.5441 -1.1079  0.9038
 1096TIP3    H224780   2.029   1.161   5.640  0.0188  2.0284 -0.3580
 1097TIP3   OH224781   2.328   1.068  12.131 -0.4173  0.4233  0.7430
 1097TIP3    H124782   2.359   1.140  12.185 -0.6553  0.3664  0.9596
 1097TIP3    H224783   2.278   1.013  12.191  1.7694 -1.2294  1.1612
 1098TIP3   OH224784   1.064   1.046  43.382 -0.4173  0.1343 -0.0659
 1098TIP3    H124785   1.099   0.964  43.347 -3.1716 -0.1349 -2.6460
 1098TIP3    H224786   1.003   1.019  43.450 -2.6221 -0.2585 -2.0598
 1099TIP3   OH224787   3.835   1.814  40.940 -0.0009 -0.2383  0.0575
 1099TIP3    H124788   3.780   1.887  40.915  1.7877  1.4114  0.6717
 1099TIP3    H224789   3.867   1.778  40.858  0.1660  0.5584 -0.2324
 1100TIP3   OH224790   0.689   3.986   6.849  0.4448 -0.6438  0.0771
 1100TIP3    H124791   0.683   4.073   6.889 -0.0779  0.0135 -1.3484
 1100TIP3    H224792   0.604   3.974   6.806  0.3409 -2.0681  0.6400
 1101TIP3   OH224793   1.508   1.703  36.364 -0.3241  0.1075 -0.1140
 1101TIP3    H124794   1.462   1.700  36.280 -1.5118  1.7083  0.4293
 1101TIP3    H224795   1.573   1.772  36.354 -0.2006  0.0303  0.1520
 1102TIP3   OH224796   3.097   1.145   5.021  0.4893 -0.5303  0.8307
 1102TIP3    H124797   3.031   1.099   4.968 -0.6587  0.5468  1.2657
 1102TIP3    H224798   3.071   1.126   5.112  0.5796  0.1734  1.0059
 1103TIP3   OH224799   0.908   0.504  38.290 -0.0822 -0.4477  0.0142
 1103TIP3    H124800   0.990   0.456  38.302 -0.1609 -0.9137 -1.1538
 1103TIP3    H224801   0.861   0.454  38.224 -1.7921 -0.7703  1.4189
 1104TIP3   OH224802   2.716   0.594  31.953  0.9330  0.6175 -0.3815
 1104TIP3    H124803   2.778   0.543  31.901 -0.0398 -0.7867 -0.2168
 1104TIP3    H224804   2.694   0.668  31.897  0.0387 -0.7621 -1.9529
 1105TIP3   OH224805   3.608   2.258   3.489  0.3827  0.6499  0.2638
 1105TIP3    H124806   3.654   2.249   3.405 -1.0534  2.6067 -0.8128
 1105TIP3    H224807   3.558   2.177   3.497  0.8326  0.2708 -0.5918
 1106TIP3   OH224808   0.253   3.902  13.024  0.0494 -0.1595 -0.3736
 1106TIP3    H124809   0.324   3.965  13.039 -1.4527  1.8247 -1.1848
 1106TIP3    H224810   0.297   3.825  12.986  2.0691 -0.0452  1.5417
 1107TIP3   OH224811   2.492   0.935  14.512  0.3289  0.3201  0.0211
 1107TIP3    H124812   2.475   0.984  14.593  1.9337  0.7460  0.1465
 1107TIP3    H224813   2.554   0.867  14.538  0.0453 -0.2054 -0.6573
 1108TIP3   OH224814   1.453   2.212  44.539 -0.3463 -0.6938  0.3009
 1108TIP3    H124815   1.435   2.292  44.491 -3.9297 -0.8010  1.2273
 1108TIP3    H224816   1.457   2.144  44.472 -1.2946 -0.2881 -0.1774
 1109TIP3   OH224817   1.555   2.567  33.476 -0.4299  0.1842 -0.3313
 1109TIP3    H124818   1.583   2.639  33.419  0.1432  0.2703  0.0536
 1109TIP3    H224819   1.578   2.597  33.564  0.4472 -0.7639 -0.2229
 1110TIP3   OH224820   3.213   3.833   5.441 -0.0439  0.0116 -0.0718
 1110TIP3    H124821   3.232   3.759   5.499  0.2318 -1.2053 -1.6167
 1110TIP3    H224822   3.148   3.885   5.488 -0.9057 -1.6991  0.7379
 1111TIP3   OH224823   1.654   1.500  13.769 -0.0235 -0.0322  0.3655
 1111TIP3    H124824   1.662   1.411  13.804  1.7032  0.7265  2.0974
 1111TIP3    H224825   1.732   1.512  13.715 -0.6443  0.2052 -0.5154
 1112TIP3   OH224826   1.496   3.636   6.761 -0.9664 -0.2432  0.3234
 1112TIP3    H124827   1.478   3.724   6.729 -2.5381 -0.1924  1.2598
 1112TIP3    H224828   1.495   3.644   6.856  1.0096 -0.8925  0.4404
 1113TIP3   OH224829   2.006   0.126  36.228  0.1867  0.4222 -0.2446
 1113TIP3    H124830   1.925   0.078  36.211  0.8775 -0.9138  0.0848
 1113TIP3    H224831   2.075   0.070  36.193  1.0297  1.1504  0.2043
 1114TIP3   OH224832   3.227   0.443   4.285 -0.4359 -0.1644  0.3395
 1114TIP3    H124833   3.212   0.368   4.343  0.0074  0.0103  0.6840
 1114TIP3    H224834   3.285   0.500   4.334 -1.7772  1.0346  0.6150
 1115TIP3   OH224835   1.607   2.396  14.275 -0.2028 -0.4484  0.9063
 1115TIP3    H124836   1.641   2.323  14.327  0.1666 -0.1916  1.0317
 1115TIP3    H224837   1.578   2.355  14.193  0.4109 -0.6860  0.7971
 1116TIP3   OH224838   0.468   1.977   4.800  0.4727 -0.1424 -0.0817
 1116TIP3    H124839   0.453   2.003   4.709  1.0066 -1.6686 -0.6352
 1116TIP3    H224840   0.480   1.882   4.796 -0.0375 -0.3135  1.6598
 1117TIP3   OH224841   0.915   0.658   5.598  0.4883  0.1691  0.6216
 1117TIP3    H124842   0.928   0.585   5.659  0.9805 -0.5739 -0.3487
 1117TIP3    H224843   0.823   0.653   5.575  1.4307 -3.9274 -3.9233
 1118TIP3   OH224844   0.503   0.371  30.142  0.4494 -0.0837  0.4898
 1118TIP3    H124845   0.413   0.368  30.175  0.3542  0.6725  0.3233
 1118TIP3    H224846   0.502   0.318  30.063 -0.0526  0.5548  0.0545
 1119TIP3   OH224847   4.008   3.130  42.219  0.5209  0.2456 -0.2709
 1119TIP3    H124848   3.988   3.152  42.310 -0.0817 -1.0217 -0.0752
 1119TIP3    H224849   4.096   3.094  42.222  0.2224 -0.4860 -0.0593
 1120TIP3   OH224850   2.836   3.929  42.639  0.4898  0.6972 -0.3460
 1120TIP3    H124851   2.789   3.851  42.613  1.3717 -0.1470  0.5101
 1120TIP3    H224852   2.876   3.907  42.723  1.2059  1.8749 -0.3413
 1121TIP3   OH224853   2.877   1.061  15.203  0.0145  0.2939  0.2711
 1121TIP3    H124854   2.886   1.125  15.133  0.2477  0.3230  0.3261
 1121TIP3    H224855   2.851   1.112  15.280 -0.6967  0.2007  0.0973
 1122TIP3   OH224856   0.181   3.922  44.440  0.1748 -0.0163  0.0156
 1122TIP3    H124857   0.266   3.884  44.461 -0.5568 -1.5079  0.4144
 1122TIP3    H224858   0.121   3.886  44.505 -1.0764 -0.3237 -1.2456
 1123TIP3   OH224859   2.059   0.884   1.807 -0.2921 -0.1343 -0.0287
 1123TIP3    H124860   2.045   0.848   1.720  0.3229  0.8105 -0.5452
 1123TIP3    H224861   1.989   0.948   1.818 -0.0172  0.1808 -0.0876
 1124TIP3   OH224862   3.380   1.650  39.916 -0.2804 -0.3636 -0.7349
 1124TIP3    H124863   3.349   1.723  39.861 -3.2188 -1.0305 -0.1302
 1124TIP3    H224864   3.390   1.689  40.003 -1.1888 -0.5144 -0.5568
 1125TIP3   OH224865   2.807   0.453  41.960  0.3591 -1.1944  0.1501
 1125TIP3    H124866   2.769   0.523  42.014  0.7052 -0.1320 -0.9384
 1125TIP3    H224867   2.751   0.377  41.977 -0.5770 -0.4151  0.6693
 1126TIP3   OH224868   2.196   0.256   3.369 -0.2058  0.5049 -0.6838
 1126TIP3    H124869   2.197   0.347   3.399  0.4813  0.6420 -1.0929
 1126TIP3    H224870   2.110   0.223   3.393 -0.1868  1.0403  0.1387
 1127TIP3   OH224871   3.524   2.695   4.360 -0.7894  0.2277 -0.3415
 1127TIP3    H124872   3.538   2.692   4.455 -0.2709 -1.5639 -0.4377
 1127TIP3    H224873   3.523   2.603   4.333 -1.0822  0.7037 -2.0571
 1128TIP3   OH224874   0.324   0.874   3.878  0.6815  0.0350  0.3102
 1128TIP3    H124875   0.322   0.784   3.910 -0.4915  0.5699  1.8616
 1128TIP3    H224876   0.234   0.893   3.854  1.1994  0.3071 -1.5298
 1129TIP3   OH224877   3.134   4.061   9.502  0.4763  0.2737  0.7194
 1129TIP3    H124878   3.123   4.095   9.413  0.4290  0.3954  0.7733
 1129TIP3    H224879   3.161   4.136   9.554 -0.1774  0.3465  0.9549
 1130TIP3   OH224880   0.924   1.300   7.052  0.1849 -0.2094 -0.4439
 1130TIP3    H124881   0.879   1.332   6.974 -1.6793 -0.2647  0.5283
 1130TIP3    H224882   1.005   1.350   7.056 -0.5429  1.1090 -1.4201
 1131TIP3   OH224883   0.875   3.285  10.802 -0.3329  0.3440  0.1717
 1131TIP3    H124884   0.884   3.357  10.739  1.1397  0.4000  0.4068
 1131TIP3    H224885   0.955   3.290  10.855 -0.1292 -1.5298  0.1069
 1132TIP3   OH224886   3.173   2.759  46.636  0.2461 -0.4831  0.2632
 1132TIP3    H124887   3.188   2.671  46.602 -1.5571 -0.5103 -0.5658
 1132TIP3    H224888   3.229   2.815  46.583 -1.4074 -0.7077 -1.8381
 1133TIP3   OH224889   3.748   1.428   3.928 -0.5053 -0.0812  0.1400
 1133TIP3    H124890   3.811   1.358   3.945  0.7088  1.2261  1.2496
 1133TIP3    H224891   3.718   1.456   4.014  1.7302  3.0918  0.0838
 1134TIP3   OH224892   3.848   0.090  32.740  1.1967 -0.1836 -0.0981
 1134TIP3    H124893   3.891   0.174  32.724  2.5284 -0.6293  0.9147
 1134TIP3    H224894   3.855   0.077  32.834 -0.8229 -0.5094  0.0542
 1135TIP3   OH224895   2.015   0.195  47.063 -0.3064 -0.2944 -0.5083
 1135TIP3    H124896   2.056   0.127  47.010 -1.7382 -0.9376 -0.8324
 1135TIP3    H224897   2.028   0.166  47.153 -1.9739 -1.6686 -0.6814
 1136TIP3   OH224898   3.247   1.624  37.084 -0.0581  0.0271 -0.2754
 1136TIP3    H124899   3.209   1.676  37.013 -0.1889  0.0037 -0.2252
 1136TIP3    H224900   3.189   1.548  37.090  0.6165 -0.5596 -0.9225
 1137TIP3   OH224901   3.503   1.877  34.811 -0.3720  0.2141 -0.1189
 1137TIP3    H124902   3.479   1.965  34.782 -0.0342  0.5951  0.7187
 1137TIP3    H224903   3.420   1.838  34.840 -0.6156  0.0372 -1.0459
 1138TIP3   OH224904   1.196   1.531  41.252 -0.4680  0.7279 -0.1250
 1138TIP3    H124905   1.225   1.476  41.178 -2.0628 -2.5670  1.4860
 1138TIP3    H224906   1.126   1.585  41.216  0.0819  0.6219 -1.4317
 1139TIP3   OH224907   3.369   4.081  42.236  0.3486 -0.1044 -0.5339
 1139TIP3    H124908   3.407   4.032  42.163 -0.2953  0.3671 -1.1964
 1139TIP3    H224909   3.365   4.172  42.204  0.6730  0.2237  0.3348
 1140TIP3   OH224910   0.056   2.652   6.320 -0.1183 -0.4761 -0.0600
 1140TIP3    H124911   0.061   2.571   6.269 -1.5966  0.0345 -1.0922
 1140TIP3    H224912   0.147   2.680   6.328  0.1734 -0.1621 -3.1666
 1141TIP3   OH224913   3.512   1.801  18.124  0.1080 -0.4003  0.0693
 1141TIP3    H124914   3.495   1.734  18.057  0.6150  1.0253 -1.5852
 1141TIP3    H224915   3.603   1.827  18.109  0.0775  0.2923  0.9954
 1142TIP3   OH224916   1.235   2.546  45.144  0.5529 -0.2386 -0.0077
 1142TIP3    H124917   1.193   2.462  45.163  0.1114 -0.3094 -1.2535
 1142TIP3    H224918   1.240   2.551  45.049 -2.4385  2.5749 -0.1893
 1143TIP3   OH224919   2.091   0.897  36.579 -0.3374  0.1442  0.2010
 1143TIP3    H124920   2.106   0.844  36.501 -0.2902 -1.5115  1.2830
 1143TIP3    H224921   1.995   0.902  36.587 -0.3527 -0.7047  0.6689
 1144TIP3   OH224922   1.296   0.741   8.451  0.3350  0.5009 -0.1533
 1144TIP3    H124923   1.302   0.646   8.450 -1.3112  0.3740 -0.8532
 1144TIP3    H224924   1.333   0.766   8.536  0.7719 -0.7452  0.0494
 1145TIP3   OH224925   3.266   3.401  29.487 -0.0944 -0.1582  0.5018
 1145TIP3    H124926   3.214   3.458  29.543 -1.8653 -0.7572 -0.4645
 1145TIP3    H224927   3.313   3.461  29.429 -0.6479  0.3724  0.5910
 1146TIP3   OH224928   0.525   2.559  34.762 -0.7897 -0.6009 -0.0493
 1146TIP3    H124929   0.524   2.654  34.773  1.3589 -0.6691  1.1763
 1146TIP3    H224930   0.475   2.525  34.836  0.4734 -0.4656  0.9075
 1147TIP3   OH224931   1.036   2.492  12.020  0.0547  0.0308 -0.4565
 1147TIP3    H124932   1.069   2.534  12.099  1.1669 -1.2344 -0.2148
 1147TIP3    H224933   1.070   2.403  12.024 -1.6280 -0.6999 -1.3167
 1148TIP3   OH224934   3.706   0.695   5.981 -0.3601  0.8885  0.1391
 1148TIP3    H124935   3.736   0.776   5.937  1.0692 -0.1933 -0.9976
 1148TIP3    H224936   3.690   0.722   6.071  0.3868  2.3885 -0.1312
 1149TIP3   OH224937   0.454   3.257  46.657 -0.1673 -0.7001  0.1137
 1149TIP3    H124938   0.407   3.326  46.703  2.1153  1.5885 -0.7676
 1149TIP3    H224939   0.545   3.268  46.683  0.4653 -2.6420 -1.0281
 1150TIP3   OH224940   2.504   2.592  11.670  0.0696  0.0286  0.4306
 1150TIP3    H124941   2.430   2.603  11.610  0.7823  0.5283 -0.3828
 1150TIP3    H224942   2.464   2.590  11.757 -0.8880  0.3898  0.0150
 1151TIP3   OH224943   1.089   2.260  10.257  0.9162 -0.0317  0.2991
 1151TIP3    H124944   1.091   2.351  10.286 -0.9637 -0.0547  0.5716
 1151TIP3    H224945   1.004   2.249  10.215  1.8235 -1.1911 -1.3709
 1152TIP3   OH224946   1.647   3.638   5.829  0.6466 -0.0866 -0.2701
 1152TIP3    H124947   1.633   3.724   5.869  0.6710  0.1010 -0.6603
 1152TIP3    H224948   1.621   3.576   5.896 -3.4919  0.1781 -1.3396
 1153TIP3   OH224949   2.589   2.188  33.335 -0.2509  0.2131 -0.2813
 1153TIP3    H124950   2.678   2.211  33.359 -0.5072  0.3680  0.5518
 1153TIP3    H224951   2.564   2.119  33.397 -0.6454  0.0259 -0.6321
 1154TIP3   OH224952   0.137   2.176   8.674  0.0624 -0.2574 -0.1660
 1154TIP3    H124953   0.086   2.139   8.746 -0.3816 -2.6715 -1.5809
 1154TIP3    H224954   0.119   2.270   8.676  0.3543 -0.1729  3.0275
 1155TIP3   OH224955   3.719   0.800   9.280  0.2898  0.2124 -0.2741
 1155TIP3    H124956   3.707   0.826   9.372 -0.5902 -0.3214 -0.2314
 1155TIP3    H224957   3.791   0.856   9.249  1.6346 -0.6373  1.1584
 1156TIP3   OH224958   1.000   1.811  11.966 -0.0003 -0.3434  0.1975
 1156TIP3    H124959   0.963   1.794  12.053 -0.4783 -0.5890 -0.0475
 1156TIP3    H224960   0.924   1.811  11.908  0.4551 -1.7277 -0.4416
 1157TIP3   OH224961   0.305   0.919  32.051 -0.2890  0.0377 -0.4541
 1157TIP3    H124962   0.350   0.975  32.114  0.5245 -2.0560  0.9811
 1157TIP3    H224963   0.374   0.863  32.016 -1.4171 -1.9872  0.3796
 1158TIP3   OH224964   3.212   3.516  36.218 -0.4317 -0.3294 -0.1775
 1158TIP3    H124965   3.223   3.421  36.225 -1.2907 -0.3549  1.1125
 1158TIP3    H224966   3.128   3.527  36.174  0.2453 -0.1473 -1.4627
 1159TIP3   OH224967   2.924   1.146  43.839 -0.4421  0.4075 -0.4196
 1159TIP3    H124968   2.866   1.180  43.771 -1.1397 -0.0972 -0.0807
 1159TIP3    H224969   2.894   1.186  43.920 -2.4597 -2.3226  0.2904
 1160TIP3   OH224970   3.093   2.618  40.933  0.3151  0.1886  0.5125
 1160TIP3    H124971   3.082   2.587  41.023  1.9536 -1.2418  0.2702
 1160TIP3    H224972   3.188   2.624  40.922  0.1191  2.7502 -0.3729
 1161TIP3   OH224973   2.123   0.086   1.885 -0.1100 -1.0228  0.0506
 1161TIP3    H124974   2.204   0.043   1.859  1.0942  0.7389  0.7052
 1161TIP3    H224975   2.118   0.073   1.980 -0.2769 -0.6185  0.1002
 1162TIP3   OH224976   3.557   1.768  39.188 -0.1659  0.2526 -0.2588
 1162TIP3    H124977   3.499   1.792  39.261  1.2315  0.5911  0.7758
 1162TIP3    H224978   3.525   1.819  39.114 -2.0193 -0.5713 -0.0961
 1163TIP3   OH224979   2.665   3.647  28.732  0.8249  0.6423 -0.3816
 1163TIP3    H124980   2.627   3.560  28.738  3.2097 -0.5314 -1.2035
 1163TIP3    H224981   2.676   3.675  28.823  0.1092  0.0821 -0.1144
 1164TIP3   OH224982   1.085   1.203   1.048  0.1476  0.2182 -0.6657
 1164TIP3    H124983   1.024   1.277   1.053 -0.5194 -0.2689 -1.2798
 1164TIP3    H224984   1.119   1.193   1.137 -0.4445  0.6942 -0.3815
 1165TIP3   OH224985   0.238   2.556  32.658  0.0633  0.0652 -0.3355
 1165TIP3    H124986   0.304   2.506  32.705  1.2871  2.4868  0.6996
 1165TIP3    H224987   0.158   2.547  32.711  0.7937  0.7644  0.9338
 1166TIP3   OH224988   2.900   3.706  32.328 -0.4222  0.5418  0.2130
 1166TIP3    H124989   2.911   3.762  32.251 -0.7301 -0.2173 -0.3936
 1166TIP3    H224990   2.900   3.617  32.294 -1.6713  0.2330  0.9547
 1167TIP3   OH224991   0.186   1.422  34.720  0.0228  0.5431  0.6021
 1167TIP3    H124992   0.141   1.466  34.648  0.4402 -0.0808 -0.0585
 1167TIP3    H224993   0.279   1.441  34.705  0.7512 -3.8833 -2.1961
 1168TIP3   OH224994   3.732   0.105   4.163  0.1604 -0.3031 -0.4241
 1168TIP3    H124995   3.729   0.089   4.068  0.1865  2.0444 -0.8827
 1168TIP3    H224996   3.789   0.181   4.172 -3.2625  2.3320  1.0164
 1169TIP3   OH224997   2.517   2.497   9.913  0.6084 -0.1481 -0.9248
 1169TIP3    H124998   2.567   2.418   9.894  2.2664  0.6100  0.1008
 1169TIP3    H224999   2.458   2.471   9.984  2.0896 -0.1482  0.3392
 1170TIP3   OH225000   3.513   1.613  11.338 -0.3669  0.6319 -0.0663
 1170TIP3    H125001   3.443   1.598  11.402 -1.5299  0.6143 -1.3108
 1170TIP3    H225002   3.549   1.526  11.321 -0.5153  0.5499  0.0410
 1171TIP3   OH225003   2.872   0.497  25.360  0.1456 -0.6053 -0.1447
 1171TIP3    H125004   2.902   0.406  25.350 -0.9258 -0.8663 -1.1396
 1171TIP3    H225005   2.789   0.489  25.406  0.2648 -0.0755  0.1662
 1172TIP3   OH225006   3.292   2.676   7.877  0.1844 -0.0501  0.1792
 1172TIP3    H125007   3.324   2.666   7.966  0.0502 -1.8654  0.0506
 1172TIP3    H225008   3.294   2.588   7.840  0.3353  0.6794 -1.6502
 1173TIP3   OH225009   0.321   3.320  40.953 -0.0648 -0.0636  0.2963
 1173TIP3    H125010   0.331   3.408  40.915 -0.9043  0.0490  0.3299
 1173TIP3    H225011   0.371   3.263  40.894 -0.3654  0.2886 -0.3154
 1174TIP3   OH225012   0.381   2.670  40.739 -0.2642  0.2272  0.1357
 1174TIP3    H125013   0.286   2.663  40.737 -0.1207 -2.2416 -0.1654
 1174TIP3    H225014   0.410   2.626  40.659  1.1748 -0.1854  0.8535
 1175TIP3   OH225015   1.887   1.699   6.096 -0.1800  0.4126  0.4294
 1175TIP3    H125016   1.910   1.778   6.143 -1.4045  0.8977  0.2503
 1175TIP3    H225017   1.871   1.728   6.006 -0.4866 -0.0570  0.3254
 1176TIP3   OH225018   3.190   2.058  39.039 -0.1469 -0.0294  0.2260
 1176TIP3    H125019   3.150   2.101  39.114 -1.0778 -0.3526 -0.0752
 1176TIP3    H225020   3.215   1.971  39.071 -0.8228 -0.2785  0.0842
 1177TIP3   OH225021   1.906   1.983  44.336 -0.3335  0.0516  0.1699
 1177TIP3    H125022   1.998   1.974  44.360  0.5349  3.1641 -1.4613
 1177TIP3    H225023   1.859   1.929  44.400  2.5391 -1.1724  1.4195
 1178TIP3   OH225024   1.796   0.236   6.927  1.1936 -0.4272  0.3409
 1178TIP3    H125025   1.702   0.250   6.912  0.6355 -3.0220  0.8565
 1178TIP3    H225026   1.833   0.229   6.840  0.5821 -0.9932  0.1111
 1179TIP3   OH225027   0.844   0.467  12.741  0.2270 -0.1756 -0.3255
 1179TIP3    H125028   0.927   0.433  12.708 -0.8980 -3.0295 -0.5142
 1179TIP3    H225029   0.807   0.515  12.667  0.9337 -0.3557 -0.8067
 1180TIP3   OH225030   2.824   0.918   8.229 -0.3041 -0.0817  1.1993
 1180TIP3    H125031   2.751   0.941   8.286  0.3042  0.8660  1.6279
 1180TIP3    H225032   2.900   0.958   8.270  0.0928  1.0282 -0.5028
 1181TIP3   OH225033   3.000   2.729  38.657 -0.2435  0.5644 -0.4301
 1181TIP3    H125034   3.069   2.666  38.679 -1.2545 -0.3509  0.2480
 1181TIP3    H225035   3.023   2.808  38.704  0.2835  0.2322 -0.1194
 1182TIP3   OH225036   0.805   4.004   5.375 -0.0037  0.5290 -0.0509
 1182TIP3    H125037   0.709   3.996   5.379  0.0924 -0.2859  0.9316
 1182TIP3    H225038   0.829   3.962   5.292 -0.3708 -0.8130  0.4956
 1183TIP3   OH225039   0.758   2.078   4.714 -0.4613  0.1907 -0.1045
 1183TIP3    H125040   0.753   2.009   4.647 -0.0016 -0.1033  0.1617
 1183TIP3    H225041   0.811   2.040   4.784  1.3004  1.4207 -0.7023
 1184TIP3   OH225042   0.930   3.578   6.945 -0.0758  0.0258  0.0219
 1184TIP3    H125043   0.870   3.592   7.019  2.0100  0.1679  1.8039
 1184TIP3    H225044   0.990   3.510   6.977  2.5340  1.9867 -0.4510
 1185TIP3   OH225045   2.830   1.310  16.913 -0.0833 -0.1575 -0.4898
 1185TIP3    H125046   2.877   1.255  16.975  0.2119 -0.1224 -0.6792
 1185TIP3    H225047   2.864   1.284  16.827  0.8539  1.0587 -0.5172
 1186TIP3   OH225048   0.814   3.170  36.414  0.0789 -0.4570  0.4268
 1186TIP3    H125049   0.765   3.237  36.462 -0.8482 -1.7798  1.4317
 1186TIP3    H225050   0.905   3.199  36.415 -0.7096  2.8267 -2.7235
 1187TIP3   OH225051   0.286   0.117  34.438  0.4427  0.1112  0.3246
 1187TIP3    H125052   0.264   0.040  34.386 -1.5092  2.1890 -2.1888
 1187TIP3    H225053   0.371   0.145  34.406  1.1235 -0.8683  1.1943
 1188TIP3   OH225054   2.885   3.547  32.011 -0.3466 -0.2691 -0.1808
 1188TIP3    H125055   2.979   3.558  31.997 -0.6419  1.8034 -0.7681
 1188TIP3    H225056   2.877   3.533  32.105  0.5770 -1.2039 -0.2147
 1189TIP3   OH225057   0.944   0.959  30.989 -0.1654 -0.5338  0.1034
 1189TIP3    H125058   0.853   0.981  30.968 -0.2413 -1.8417 -1.0228
 1189TIP3    H225059   0.947   0.864  30.987  1.5556 -0.5022 -1.4176
 1190TIP3   OH225060   3.172   0.092   7.856  0.2818 -0.3960 -0.0058
 1190TIP3    H125061   3.239   0.158   7.843  0.2989 -0.5829 -0.9378
 1190TIP3    H225062   3.192   0.024   7.792 -0.9921 -0.2902 -0.5504
 1191TIP3   OH225063   2.870   1.203  20.171 -0.3539  0.4808  0.0588
 1191TIP3    H125064   2.935   1.141  20.204 -0.3345  0.9490  0.9633
 1191TIP3    H225065   2.810   1.151  20.119  0.0683 -0.1708  0.2183
 1192TIP3   OH225066   1.087   2.300  46.332 -0.0685  0.3218 -0.2045
 1192TIP3    H125067   1.104   2.206  46.336 -2.4876 -0.1916 -0.5537
 1192TIP3    H225068   1.108   2.324  46.241 -0.2786 -0.0611 -0.3586
 1193TIP3   OH225069   0.766   1.753   4.735  0.1019  0.2369  0.1743
 1193TIP3    H125070   0.853   1.736   4.772 -0.2700 -0.5193  0.7185
 1193TIP3    H225071   0.782   1.768   4.642  0.9200  1.0054  0.4288
 1194TIP3   OH225072   2.948   0.056  37.231  0.7103 -0.0107 -0.3646
 1194TIP3    H125073   2.999  -0.025  37.233 -1.0362 -1.1698 -0.4850
 1194TIP3    H225074   2.986   0.109  37.301  0.9901 -1.5402  0.7136
 1195TIP3   OH225075   2.877   2.485  11.171 -0.1813 -0.1936  0.1312
 1195TIP3    H125076   2.948   2.428  11.200  0.1122  0.0658 -0.0701
 1195TIP3    H225077   2.896   2.569  11.213  0.5813  0.3666 -1.2638
 1196TIP3   OH225078   1.745   1.551  10.994 -0.3590  0.4675 -0.5029
 1196TIP3    H125079   1.828   1.525  11.035 -0.6941 -1.8075 -1.1330
 1196TIP3    H225080   1.772   1.613  10.925  0.6613  0.7693  0.1341
 1197TIP3   OH225081   0.129   3.907  47.255  0.2286  0.5115 -0.0515
 1197TIP3    H125082   0.121   3.995  47.293  1.8940  0.9744 -0.6543
 1197TIP3    H225083   0.208   3.871  47.295  0.8281  0.1895 -1.4531
 1198TIP3   OH225084   1.835   1.537  11.442  0.2413  0.0639 -0.1473
 1198TIP3    H125085   1.899   1.476  11.478 -0.1271  0.4992  1.3227
 1198TIP3    H225086   1.796   1.578  11.519  1.3108  3.0225 -1.0497
 1199TIP3   OH225087   2.711   2.219   5.222 -0.8481  0.9257 -0.1194
 1199TIP3    H125088   2.712   2.245   5.314 -0.6053  0.2851  0.0663
 1199TIP3    H225089   2.671   2.293   5.176 -1.6259  0.9579  0.5891
 1200TIP3   OH225090   0.770   1.377   8.096 -0.3185 -0.4721  1.0346
 1200TIP3    H125091   0.861   1.357   8.075  0.6953  2.7039  1.7703
 1200TIP3    H225092   0.739   1.432   8.024 -1.5383 -1.1701  0.9947
 1201TIP3   OH225093   3.759   2.664   9.514 -0.0876  0.2791  0.0166
 1201TIP3    H125094   3.743   2.629   9.426 -0.2019  1.7402 -0.5802
 1201TIP3    H225095   3.736   2.757   9.507  2.2096  0.9899  0.9120
 1202TIP3   OH225096   4.070   3.444  44.883 -0.5763  0.4386  0.3310
 1202TIP3    H125097   4.017   3.505  44.831  0.2881  1.6467  0.7943
 1202TIP3    H225098   4.156   3.486  44.887  0.4944 -1.5361 -0.5475
 1203TIP3   OH225099   1.891   3.105  33.439  0.1879 -0.6149  0.0349
 1203TIP3    H125100   1.888   3.187  33.391  0.2491 -0.9647 -0.5732
 1203TIP3    H225101   1.967   3.114  33.497 -0.2274  0.0345  0.4901
 1204TIP3   OH225102   3.469   0.882   7.589 -0.8206 -0.3066 -0.5763
 1204TIP3    H125103   3.529   0.808   7.592 -0.0255  0.1912 -2.4426
 1204TIP3    H225104   3.523   0.955   7.558 -1.9546  0.6566 -0.3522
 1205TIP3   OH225105   2.215   2.106  37.329  0.0611 -0.6845 -0.3793
 1205TIP3    H125106   2.244   2.016  37.344  1.1082 -0.1983  0.7337
 1205TIP3    H225107   2.157   2.125  37.404 -2.1873 -1.2028 -1.8868
 1206TIP3   OH225108   0.002   3.424  41.327 -0.8008 -0.2465  0.6560
 1206TIP3    H125109   0.089   3.427  41.286 -0.8508 -0.1548  0.5560
 1206TIP3    H225110  -0.015   3.331  41.340 -1.4260 -0.3772 -0.9077
 1207TIP3   OH225111   2.019   1.455  18.227  0.8070  0.0854 -0.0067
 1207TIP3    H125112   2.005   1.375  18.277 -0.2434  1.7100  2.4884
 1207TIP3    H225113   2.106   1.445  18.189  0.8911 -2.0126  0.6265
 1208TIP3   OH225114   3.904   3.216  30.931  0.4361  0.4854  0.0883
 1208TIP3    H125115   3.851   3.143  30.963  2.2808 -1.0414 -0.1709
 1208TIP3    H225116   3.908   3.276  31.006  0.6147 -0.6841  1.0604
 1209TIP3   OH225117   1.462   4.052  13.551 -0.4454  0.5756  0.7093
 1209TIP3    H125118   1.536   4.113  13.553 -0.6343  0.8334  0.0014
 1209TIP3    H225119   1.385   4.107  13.563 -0.4620  0.1296  3.1771
 1210TIP3   OH225120   0.215   3.016   5.641 -0.0430 -0.0983  0.0434
 1210TIP3    H125121   0.210   3.106   5.609  2.0467 -0.4002 -1.3181
 1210TIP3    H225122   0.184   3.022   5.732 -1.1236  1.7415 -0.3874
 1211TIP3   OH225123   1.288   3.361  40.486  0.0266 -0.0629 -0.6832
 1211TIP3    H125124   1.377   3.339  40.458  1.1548 -0.0281  2.5245
 1211TIP3    H225125   1.239   3.279  40.474  1.5636 -1.3689  1.2264
 1212TIP3   OH225126   2.766   2.011   3.694 -0.5886  0.4403  0.2707
 1212TIP3    H125127   2.798   1.947   3.631 -0.0359  0.4100  0.5726
 1212TIP3    H225128   2.845   2.057   3.723 -1.0693  1.9840 -0.7134
 1213TIP3   OH225129   1.910   1.074  33.915  0.3310 -0.0932  0.2535
 1213TIP3    H125130   1.907   1.114  34.002  1.4591  0.1255  0.1999
 1213TIP3    H225131   1.966   1.132  33.863  1.2042 -1.2203 -0.0898
 1214TIP3   OH225132   3.217   0.372  32.658  0.6197  0.2954  0.4799
 1214TIP3    H125133   3.122   0.369  32.660  0.5852 -1.8210 -0.8175
 1214TIP3    H225134   3.239   0.399  32.569  1.2293 -0.0163  0.5289
 1215TIP3   OH225135   1.025   1.587  17.678 -0.2683  0.3106 -0.3051
 1215TIP3    H125136   1.002   1.672  17.641  0.2343  0.9207  0.7498
 1215TIP3    H225137   1.110   1.601  17.719 -0.5815 -0.4692  0.6387
 1216TIP3   OH225138   2.070   0.259  42.692 -0.7672  0.7405 -0.5055
 1216TIP3    H125139   2.018   0.179  42.695 -1.3340  1.1156  0.2673
 1216TIP3    H225140   2.062   0.290  42.602 -0.9695  0.1981 -0.6781
 1217TIP3   OH225141   1.403   0.391   9.656 -0.0102 -0.3783 -0.6470
 1217TIP3    H125142   1.308   0.381   9.670 -0.3141  2.4238 -0.1505
 1217TIP3    H225143   1.411   0.455   9.586  1.5110 -0.1471 -0.3018
 1218TIP3   OH225144   2.807   1.924  47.214  0.1152 -0.2223 -0.6942
 1218TIP3    H125145   2.728   1.974  47.194 -1.0762 -1.7132  0.0177
 1218TIP3    H225146   2.865   1.986  47.257 -0.6698  0.9178 -1.2477
 1219TIP3   OH225147   0.680   3.263  46.886 -0.2631  0.4921  0.1192
 1219TIP3    H125148   0.756   3.221  46.845  0.0710  1.5018 -0.3274
 1219TIP3    H225149   0.716   3.314  46.958 -0.6253  0.2985  0.4437
 1220TIP3   OH225150   3.416   1.555   4.258 -0.0430  0.1199 -0.5986
 1220TIP3    H125151   3.333   1.524   4.295  0.2747  0.0571  0.0885
 1220TIP3    H225152   3.402   1.648   4.242 -0.5245 -0.0690 -1.2972
 1221TIP3   OH225153   1.935   1.110  14.849  0.1884 -0.0865  0.0906
 1221TIP3    H125154   1.877   1.108  14.925 -0.8068 -1.3019 -0.6486
 1221TIP3    H225155   1.955   1.202  14.836 -1.9382  0.4241  0.1465
 1222TIP3   OH225156   0.450   1.064  38.227 -0.5247 -0.5418 -0.1815
 1222TIP3    H125157   0.368   1.100  38.262  0.3919  1.3880  0.0746
 1222TIP3    H225158   0.430   1.042  38.137 -1.3020  0.0412 -0.1615
 1223TIP3   OH225159   3.527   0.360   2.495 -0.2439 -0.2210 -0.6360
 1223TIP3    H125160   3.444   0.407   2.494 -1.1183 -1.6857 -0.6328
 1223TIP3    H225161   3.518   0.298   2.568  0.4335 -1.0912 -1.2631
 1224TIP3   OH225162   1.795   2.939  42.696 -0.5932  0.2169 -0.4351
 1224TIP3    H125163   1.826   3.002  42.631 -0.5154  0.7474  0.1032
 1224TIP3    H225164   1.729   2.887  42.649 -2.4399  2.2657 -0.2750
 1225TIP3   OH225165   2.527   0.402   4.106  0.4163 -0.0093  0.3513
 1225TIP3    H125166   2.463   0.352   4.158  0.2527  0.7192  0.8669
 1225TIP3    H225167   2.574   0.455   4.170  0.0536  1.0853 -0.2524
 1226TIP3   OH225168   2.959   3.007  42.878 -0.1039 -0.2232 -0.3367
 1226TIP3    H125169   3.004   2.975  42.956 -0.4152  0.7247  0.2562
 1226TIP3    H225170   2.921   2.929  42.838  1.0259 -0.8746 -0.1803
 1227TIP3   OH225171   1.551   0.997   8.410  0.2560 -0.3339  0.6355
 1227TIP3    H125172   1.577   1.088   8.422  1.8202 -0.6235 -0.3036
 1227TIP3    H225173   1.498   0.998   8.330  1.7258 -0.4828 -0.3608
 1228TIP3   OH225174   3.537   3.151  45.889  0.2854  0.0765 -0.0480
 1228TIP3    H125175   3.599   3.170  45.819 -0.1190  1.8628  0.0369
 1228TIP3    H225176   3.487   3.232  45.900 -0.3470 -0.4948  1.6121
 1229TIP3   OH225177   1.444   3.604  37.653  0.0784  0.0152 -0.1373
 1229TIP3    H125178   1.499   3.533  37.686 -0.3213 -0.3044 -0.1375
 1229TIP3    H225179   1.422   3.656  37.730  0.1376 -0.0296 -0.0888
 1230TIP3   OH225180   2.510   0.815   8.628 -0.5258 -0.1316  0.4385
 1230TIP3    H125181   2.452   0.740   8.613  0.3121 -1.0130  1.4102
 1230TIP3    H225182   2.599   0.778   8.624 -0.1138  0.6587  1.6149
 1231TIP3   OH225183   0.255   1.634  32.388 -0.6897  0.1639  0.1346
 1231TIP3    H125184   0.345   1.639  32.355 -0.2715 -1.1461  1.0145
 1231TIP3    H225185   0.207   1.699  32.337  0.4999  0.0416 -1.1918
 1232TIP3   OH225186   3.091   2.948  38.775  0.4643  0.1542  0.9443
 1232TIP3    H125187   3.080   3.029  38.825 -0.8734  1.5575 -1.4090
 1232TIP3    H225188   3.152   2.972  38.705  0.4200 -1.0093  0.4900
 1233TIP3   OH225189   2.703   0.890  37.708  0.3372  0.6023  0.0124
 1233TIP3    H125190   2.643   0.950  37.663 -0.4743  0.8873  1.4004
 1233TIP3    H225191   2.659   0.872  37.792  0.8096 -1.5146 -0.1497
 1234TIP3   OH225192   0.468   1.924  15.139  0.2911 -0.0895 -0.0294
 1234TIP3    H125193   0.388   1.878  15.113 -0.5901 -0.6918  3.2678
 1234TIP3    H225194   0.527   1.854  15.167  0.4355  0.5530  1.3105
 1235TIP3   OH225195   2.557   3.447  11.916 -0.1519  0.5845 -0.1933
 1235TIP3    H125196   2.525   3.427  11.828  0.7841  0.7042 -0.5735
 1235TIP3    H225197   2.568   3.361  11.957  0.7165  0.4356 -0.6873
 1236TIP3   OH225198   2.642   1.232  39.284  0.2926  0.7033 -0.4143
 1236TIP3    H125199   2.599   1.147  39.290 -0.4717  1.0721 -0.5538
 1236TIP3    H225200   2.699   1.235  39.362 -0.0258  0.2635 -0.1560
 1237TIP3   OH225201   0.394   1.123   9.889  0.2462  0.1907  0.3873
 1237TIP3    H125202   0.324   1.152   9.948  0.6312  0.0258  0.9433
 1237TIP3    H225203   0.454   1.076   9.947  0.3350 -0.4868 -0.2512
 1238TIP3   OH225204   0.785   0.276  30.833 -1.0135 -0.0343 -0.1671
 1238TIP3    H125205   0.706   0.302  30.880 -0.1831 -0.6842  1.7346
 1238TIP3    H225206   0.823   0.359  30.803 -2.4413  0.2726 -1.2144
 1239TIP3   OH225207   3.951   1.209  39.367 -0.0944  0.0388  0.7518
 1239TIP3    H125208   3.883   1.157  39.326  0.2875  0.7865 -0.9208
 1239TIP3    H225209   4.032   1.184  39.321  0.5952 -0.0426  1.9543
 1240TIP3   OH225210   1.620   0.653   4.502 -0.1123  0.1926 -0.2220
 1240TIP3    H125211   1.715   0.663   4.508 -0.0883  0.2219 -0.6068
 1240TIP3    H225212   1.597   0.692   4.418 -0.5514  0.7729  0.1534
 1241TIP3   OH225213   0.742   3.346  46.025  0.3095 -0.4298 -0.0205
 1241TIP3    H125214   0.835   3.338  46.046  0.1569  1.5243  1.7836
 1241TIP3    H225215   0.740   3.391  45.941  1.0469  0.8836  0.6268
 1242TIP3   OH225216   0.756   0.700  25.945  0.2481 -0.1144  0.1223
 1242TIP3    H125217   0.852   0.692  25.948  0.3602  0.9630 -0.2260
 1242TIP3    H225218   0.733   0.676  25.855  0.3624  1.0953 -0.2535
 1243TIP3   OH225219   1.614   0.645  43.220 -0.4177  0.0601 -0.4060
 1243TIP3    H125220   1.556   0.643  43.297  1.5126 -0.2769  1.1449
 1243TIP3    H225221   1.591   0.567  43.171 -0.9521 -0.3307  0.4363
 1244TIP3   OH225222   3.281   3.194   9.601  0.2905 -0.3343 -0.4978
 1244TIP3    H125223   3.250   3.106   9.577  0.5186 -0.1222 -1.6040
 1244TIP3    H225224   3.283   3.193   9.697  0.4490 -1.5939 -0.4974
 1245TIP3   OH225225   0.436   2.883  36.202  0.2789 -1.1803  1.0052
 1245TIP3    H125226   0.520   2.918  36.233 -0.7977  0.4500  2.2757
 1245TIP3    H225227   0.459   2.801  36.157  2.8455  0.5660 -1.1772
 1246TIP3   OH225228   3.726   2.714  12.070 -0.5371 -0.4116  0.4503
 1246TIP3    H125229   3.652   2.695  12.127 -0.1996 -1.1167  0.6527
 1246TIP3    H225230   3.691   2.702  11.981 -1.3066  1.5314  0.4414
 1247TIP3   OH225231   0.024   0.956  32.117  0.0430  0.0365  0.1911
 1247TIP3    H125232  -0.016   0.908  32.189  0.2190  0.8170  0.8130
 1247TIP3    H225233   0.030   0.892  32.046 -2.0296 -0.2012  0.1676
 1248TIP3   OH225234   2.693   0.952  40.007  0.6131 -0.0252  0.1883
 1248TIP3    H125235   2.786   0.973  40.006  0.8835 -1.1791 -0.5580
 1248TIP3    H225236   2.653   1.018  39.951  1.1785 -0.3111 -0.5706
 1249TIP3   OH225237   0.853   3.414  42.862 -0.1576  0.3744  0.3378
 1249TIP3    H125238   0.772   3.423  42.911 -0.3023 -0.1861  0.2169
 1249TIP3    H225239   0.878   3.322  42.875  0.0643  0.3526 -0.2279
 1250TIP3   OH225240   1.859   3.754  36.778 -0.8486 -0.1834  0.2329
 1250TIP3    H125241   1.834   3.665  36.755  0.9159 -0.4145 -0.9705
 1250TIP3    H225242   1.917   3.782  36.707 -0.3873  1.4729  1.2081
 1251TIP3   OH225243   3.593   2.835  41.196 -0.1783  0.1181 -0.0498
 1251TIP3    H125244   3.498   2.846  41.203 -0.2212 -0.2172 -0.0931
 1251TIP3    H225245   3.620   2.801  41.281  0.1751  2.0110  0.6440
 1252TIP3   OH225246   4.041   2.989  42.766 -0.1122  0.4105  0.2655
 1252TIP3    H125247   4.013   3.049  42.697  0.9018  1.1502  0.4715
 1252TIP3    H225248   3.999   2.906  42.744  0.0516  0.6734 -1.1483
 1253TIP3   OH225249   0.514   3.843  34.350  0.0635  0.3342 -0.5761
 1253TIP3    H125250   0.571   3.767  34.341 -0.8113 -0.7487  2.0276
 1253TIP3    H225251   0.539   3.882  34.434 -1.4925  1.1194 -0.4384
 1254TIP3   OH225252   3.580   0.809  14.347 -0.2740 -0.9275  0.3640
 1254TIP3    H125253   3.512   0.862  14.389  1.3732  1.6498  0.0358
 1254TIP3    H225254   3.592   0.850  14.261  0.5528 -2.3481 -0.2247
 1255TIP3   OH225255   4.099   1.916  35.291 -0.1939  0.1219 -0.3584
 1255TIP3    H125256   4.179   1.968  35.283 -0.1991  0.0596 -0.7923
 1255TIP3    H225257   4.041   1.949  35.222 -0.6663  0.3860  0.1525
 1256TIP3   OH225258   1.240   1.293   4.193  0.1002 -0.1478  0.4020
 1256TIP3    H125259   1.241   1.335   4.107 -0.8398 -1.1816 -0.1388
 1256TIP3    H225260   1.332   1.273   4.211  0.6841  2.5638  0.9365
 1257TIP3   OH225261   3.803   0.570  32.701 -0.6731 -0.0260 -0.0763
 1257TIP3    H125262   3.822   0.659  32.674  1.3240 -0.4425 -0.2147
 1257TIP3    H225263   3.712   0.573  32.732  0.4627  2.9636  3.6799
 1258TIP3   OH225264   2.974   1.426  41.395 -0.4533  0.2439  0.3489
 1258TIP3    H125265   3.038   1.356  41.385 -0.3167  0.4128  0.0190
 1258TIP3    H225266   3.010   1.499  41.344 -0.9820  0.2909  0.0384
 1259TIP3   OH225267   3.865   0.978  37.776  0.3210 -0.4119 -0.2896
 1259TIP3    H125268   3.782   0.931  37.771  0.3580 -0.6259  0.9401
 1259TIP3    H225269   3.894   0.967  37.866  0.6985  1.3563 -0.1661
 1260TIP3   OH225270   0.321   2.840  14.119  0.0264  0.0720 -0.2508
 1260TIP3    H125271   0.246   2.844  14.179  0.2543  0.0641  0.0376
 1260TIP3    H225272   0.352   2.930  14.113  0.0804  0.0524 -0.2617
 1261TIP3   OH225273   1.570   2.112  16.106 -0.7040  0.8781 -0.1611
 1261TIP3    H125274   1.503   2.052  16.072  0.4165  0.3326 -1.4919
 1261TIP3    H225275   1.605   2.068  16.183  0.5622 -0.5490 -1.4914
 1262TIP3   OH225276   0.465   0.124  32.879 -0.4061  0.9263  0.5736
 1262TIP3    H125277   0.412   0.057  32.921 -0.3725  1.0248  0.7717
 1262TIP3    H225278   0.501   0.081  32.802  0.7494  0.2974  1.4528
 1263TIP3   OH225279   1.288   0.907   0.631 -0.3782  0.9650  0.6559
 1263TIP3    H125280   1.329   0.863   0.706 -1.8417  0.6149  1.2904
 1263TIP3    H225281   1.276   0.997   0.659 -0.1099  1.0511  0.4970
 1264TIP3   OH225282   2.102   0.019   5.652 -0.0670 -0.2409  0.1805
 1264TIP3    H125283   2.048  -0.061   5.645  0.4906 -0.5079 -1.4415
 1264TIP3    H225284   2.172  -0.005   5.712  0.6169 -1.3129 -1.0016
 1265TIP3   OH225285   3.616   2.595  32.682  0.8947  0.4633 -0.0291
 1265TIP3    H125286   3.526   2.564  32.675  1.0382 -0.5655  1.8781
 1265TIP3    H225287   3.667   2.531  32.632  0.8847 -0.9188  1.6414
 1266TIP3   OH225288   2.616   3.579  32.039  0.2931  0.4311  0.0095
 1266TIP3    H125289   2.595   3.670  32.016 -1.7879 -0.2611 -1.1716
 1266TIP3    H225290   2.711   3.576  32.044  0.4020  2.6766  0.1096
 1267TIP3   OH225291   1.573   1.203  16.762 -0.3738  1.2563 -0.0320
 1267TIP3    H125292   1.638   1.273  16.762  1.1162 -0.0745 -0.9666
 1267TIP3    H225293   1.601   1.144  16.692  0.0600 -1.7176  2.4505
 1268TIP3   OH225294   2.080   1.831  15.458  0.1639 -0.5594 -0.7607
 1268TIP3    H125295   2.002   1.859  15.506 -0.2996 -0.0141 -1.7950
 1268TIP3    H225296   2.145   1.815  15.526 -0.1932  1.0727  0.0244
 1269TIP3   OH225297   1.733   2.240  16.373 -0.1801 -0.2435 -0.1650
 1269TIP3    H125298   1.765   2.247  16.463  1.0067 -0.7938 -0.5255
 1269TIP3    H225299   1.711   2.330  16.349  2.3270  0.4035 -0.3106
 1270TIP3   OH225300   4.108   1.337   7.280  0.3242 -0.3996 -0.3294
 1270TIP3    H125301   4.189   1.309   7.324 -0.2703 -0.5390  0.7084
 1270TIP3    H225302   4.124   1.428   7.257  0.9324 -0.5415 -0.4995
 1271TIP3   OH225303   1.903   0.692  46.242 -0.0148  0.3397  0.2508
 1271TIP3    H125304   1.981   0.746  46.227 -1.2385  2.2327  0.3133
 1271TIP3    H225305   1.838   0.753  46.276 -1.0111 -1.5238  1.9081
 1272TIP3   OH225306   3.818   1.121   3.280 -0.0023  0.0716  0.6396
 1272TIP3    H125307   3.751   1.137   3.346  0.2215  1.2544  0.6172
 1272TIP3    H225308   3.819   1.201   3.227  1.0056 -0.1675  0.2689
 1273TIP3   OH225309   3.993   0.814  34.829  0.2311 -0.6750 -0.3035
 1273TIP3    H125310   4.026   0.897  34.862  1.5715 -2.1440  2.3831
 1273TIP3    H225311   4.040   0.801  34.746  1.3323  0.4367  0.1201
 1274TIP3   OH225312   0.038   3.000  44.741 -0.0225  0.0985  0.6415
 1274TIP3    H125313   0.092   3.061  44.691 -0.5506 -1.8469 -2.6089
 1274TIP3    H225314  -0.048   3.041  44.744  0.5314  1.2210  1.9636
 1275TIP3   OH225315   3.664   3.936   4.897 -0.5028 -0.2843 -0.2175
 1275TIP3    H125316   3.702   3.915   4.812 -0.9052  0.4638 -0.5937
 1275TIP3    H225317   3.698   3.869   4.956  1.3778  0.3279 -0.5384
 1276TIP3   OH225318   0.015   1.515   6.781  0.5594 -0.1939  0.0353
 1276TIP3    H125319  -0.019   1.493   6.868  0.2405  1.3705  0.3392
 1276TIP3    H225320   0.096   1.563   6.798  0.7131 -0.2301 -0.5587
 1277TIP3   OH225321   3.713   1.442  10.768 -0.2617  0.3667 -0.3000
 1277TIP3    H125322   3.707   1.537  10.783  1.9181  0.5365 -0.2357
 1277TIP3    H225323   3.737   1.406  10.853  2.7503  0.2554 -1.0979
 1278TIP3   OH225324   3.556   2.273   9.620 -0.0215 -0.0663  0.3484
 1278TIP3    H125325   3.505   2.353   9.635  0.1249  0.2097 -0.5562
 1278TIP3    H225326   3.528   2.214   9.690 -0.9776  0.3675  0.3592
 1279TIP3   OH225327   3.980   2.021  42.534  0.0996 -0.2298  0.2983
 1279TIP3    H125328   4.039   1.968  42.479  0.2142  0.0142  0.1815
 1279TIP3    H225329   4.038   2.062  42.599 -0.0762 -0.7357  0.7726
 1280TIP3   OH225330   1.514   1.909  42.676  1.1127  0.0682  0.5554
 1280TIP3    H125331   1.510   1.818  42.702  0.8464 -1.4516 -3.8806
 1280TIP3    H225332   1.607   1.928  42.666  1.1153 -0.3671 -0.3015
 1281TIP3   OH225333   2.093   2.884  33.214 -0.0039 -0.3772  0.2390
 1281TIP3    H125334   2.141   2.851  33.289  0.8802  0.0308 -0.1372
 1281TIP3    H225335   2.136   2.845  33.138 -1.4856 -1.5629 -0.0488
 1282TIP3   OH225336   3.314   3.405  30.914  0.0300 -0.1022  0.1574
 1282TIP3    H125337   3.239   3.363  30.957  1.3830 -0.5287  2.2338
 1282TIP3    H225338   3.304   3.498  30.937 -0.3904  0.0121 -0.4492
 1283TIP3   OH225339   1.032   2.860  34.276  0.7070  0.2603 -0.3184
 1283TIP3    H125340   0.996   2.826  34.195 -1.8008  2.2977 -0.2095
 1283TIP3    H225341   0.982   2.817  34.345  0.0725  1.3732 -0.0525
 1284TIP3   OH225342   3.841   3.788  30.874 -0.6634  0.0033 -0.3092
 1284TIP3    H125343   3.793   3.710  30.846 -1.0576  0.2851 -0.4306
 1284TIP3    H225344   3.917   3.792  30.816  0.0617 -0.9987  0.5204
 1285TIP3   OH225345   1.637   2.748   0.105  0.1627  0.5163  0.3284
 1285TIP3    H125346   1.681   2.696   0.173 -0.4709  0.6029  0.8118
 1285TIP3    H225347   1.607   2.683   0.042  1.8267  0.5265 -0.5293
 1286TIP3   OH225348   1.010   0.545  37.876  0.2791  0.0104 -0.1093
 1286TIP3    H125349   0.940   0.574  37.935 -0.5172 -0.5508 -0.7557
 1286TIP3    H225350   1.070   0.496  37.932 -0.3704 -0.3601  0.2630
 1287TIP3   OH225351   0.399   2.560   2.271  0.3876 -0.4087  0.2529
 1287TIP3    H125352   0.485   2.556   2.312 -0.3814 -1.8126  1.8422
 1287TIP3    H225353   0.386   2.653   2.252  0.9524  0.2968  2.9140
 1288TIP3   OH225354   1.551   3.538  33.451  0.4813 -0.0478  0.2972
 1288TIP3    H125355   1.477   3.528  33.390  0.0926  0.9317  0.5855
 1288TIP3    H225356   1.550   3.630  33.474 -0.2140 -0.6146  2.8212
 1289TIP3   OH225357   2.582   0.925  37.949 -0.1772 -0.4104  0.1824
 1289TIP3    H125358   2.503   0.975  37.927  0.5057  0.7437  0.2993
 1289TIP3    H225359   2.573   0.907  38.043 -1.0590 -1.6960 -0.1140
 1290TIP3   OH225360   2.222   3.904  43.014 -0.1346 -0.2974  0.1015
 1290TIP3    H125361   2.231   3.835  43.080  0.0775  0.7437  1.1963
 1290TIP3    H225362   2.157   3.964  43.051  1.6578  1.5235  0.4716
 1291TIP3   OH225363   3.780   3.247  35.807 -0.0765  0.4076 -0.6242
 1291TIP3    H125364   3.791   3.309  35.878  0.1827  0.4406 -0.6879
 1291TIP3    H225365   3.687   3.227  35.805  0.1722 -1.1466  1.0409
 1292TIP3   OH225366   1.185   1.012  30.898 -0.0538  0.8489  0.1732
 1292TIP3    H125367   1.100   1.007  30.941 -0.3415  0.6115 -0.4169
 1292TIP3    H225368   1.215   0.922  30.892 -0.0891  0.8646 -0.2664
 1293TIP3   OH225369   0.995   1.949  31.236  0.2349  0.0648  0.0699
 1293TIP3    H125370   1.073   1.896  31.222  0.2178  0.3348 -1.2270
 1293TIP3    H225371   0.995   2.011  31.163 -0.7285  0.6357  0.5352
 1294TIP3   OH225372   1.181   0.882  10.527 -0.1354 -0.4331  0.0102
 1294TIP3    H125373   1.093   0.908  10.553 -0.4420 -0.8490 -0.6048
 1294TIP3    H225374   1.227   0.869  10.609 -1.1515 -1.9550  0.3789
 1295TIP3   OH225375   2.737   1.625   5.212  0.4071  1.0533  0.1040
 1295TIP3    H125376   2.784   1.565   5.269  0.4728  0.6146 -0.4129
 1295TIP3    H225377   2.803   1.659   5.152  0.2055  0.9895 -0.1554
 1296TIP3   OH225378   0.843   2.619  32.933  0.0369  0.0634 -0.2959
 1296TIP3    H125379   0.885   2.545  32.889  1.2689  0.5973 -0.0456
 1296TIP3    H225380   0.880   2.619  33.021 -0.5469  0.5012 -0.0487
 1297TIP3   OH225381   0.497   0.208  27.216  0.2472 -0.5017 -0.3508
 1297TIP3    H125382   0.559   0.179  27.149 -0.1424 -0.3907 -0.7628
 1297TIP3    H225383   0.552   0.227  27.292  0.7486 -0.2357 -0.7669
 1298TIP3   OH225384   2.720   1.407   9.988 -0.9959 -0.3544 -0.3286
 1298TIP3    H125385   2.771   1.348  10.043 -0.8785 -0.3408 -0.4244
 1298TIP3    H225386   2.632   1.369   9.989 -1.2577  0.2451  0.7553
 1299TIP3   OH225387   0.672   3.556  15.505 -0.2544  0.3856  0.0467
 1299TIP3    H125388   0.657   3.462  15.520 -1.2007  0.7298  1.5293
 1299TIP3    H225389   0.590   3.588  15.468 -0.6849  0.9729  1.4452
 1300TIP3   OH225390   2.607   0.645  46.794  0.2368  0.2197 -0.5821
 1300TIP3    H125391   2.574   0.597  46.870 -1.2728  1.6761 -0.2834
 1300TIP3    H225392   2.551   0.618  46.722  0.7915 -0.1060 -0.9033
 1301TIP3   OH225393   1.286   1.170   6.783  0.2862  0.4040 -0.1008
 1301TIP3    H125394   1.324   1.167   6.871  0.2547  0.1602 -0.0957
 1301TIP3    H225395   1.229   1.247   6.785  1.5515  1.3792 -0.4287
 1302TIP3   OH225396   2.232   2.587  13.594 -0.4759  0.0080 -0.4995
 1302TIP3    H125397   2.273   2.611  13.511 -0.9385 -0.0006 -0.7341
 1302TIP3    H225398   2.283   2.512  13.625  1.0234  1.2816  0.2790
 1303TIP3   OH225399   0.109   0.488  12.559  0.5351 -0.4397  0.4416
 1303TIP3    H125400   0.172   0.560  12.560  1.2213 -0.9831 -0.8971
 1303TIP3    H225401   0.157   0.414  12.523 -0.4647 -1.2764  0.7675
 1304TIP3   OH225402   0.536   1.719  32.644  0.0587  0.0190  0.2852
 1304TIP3    H125403   0.594   1.747  32.715 -1.5683  0.6584  1.4431
 1304TIP3    H225404   0.538   1.623  32.647 -0.0892  0.0397  1.3089
 1305TIP3   OH225405   3.189   1.165  38.901 -0.3771  0.2161 -0.7220
 1305TIP3    H125406   3.164   1.128  38.986  1.3018  0.6130 -0.0164
 1305TIP3    H225407   3.123   1.233  38.884 -1.7984 -1.0737 -0.6542
 1306TIP3   OH225408   1.390   3.363   9.243 -0.3445 -0.2451 -0.0666
 1306TIP3    H125409   1.352   3.356   9.155  2.1693  1.6928 -1.4426
 1306TIP3    H225410   1.366   3.451   9.273  0.7937  0.0286  0.1139
 1307TIP3   OH225411   0.075   3.407   4.179  0.4430 -0.4854 -0.5148
 1307TIP3    H125412   0.132   3.472   4.220  1.8622 -1.2085 -1.2804
 1307TIP3    H225413   0.101   3.324   4.219  0.0581 -0.8583 -1.0286
 1308TIP3   OH225414   0.478   1.275  34.832  0.1631  0.1384 -0.0704
 1308TIP3    H125415   0.452   1.183  34.843 -0.4123  0.4315  1.2101
 1308TIP3    H225416   0.488   1.286  34.737  2.0937 -1.7244 -0.1713
 1309TIP3   OH225417   1.103   0.527  43.513 -0.4499  0.2693  0.3424
 1309TIP3    H125418   1.157   0.459  43.552 -1.5149  0.1661  1.7289
 1309TIP3    H225419   1.013   0.504  43.538 -0.9432  1.5434 -0.1493
 1310TIP3   OH225420   2.211   0.158   3.052 -0.3210 -0.3283  0.3081
 1310TIP3    H125421   2.262   0.237   3.070  0.4260 -0.7396  0.0531
 1310TIP3    H225422   2.138   0.162   3.114  0.8604 -0.5007  1.7840
 1311TIP3   OH225423   1.103   2.795   5.113  0.3116 -0.1706  0.5695
 1311TIP3    H125424   1.168   2.814   5.181  1.1323  0.6006 -0.4021
 1311TIP3    H225425   1.108   2.869   5.053 -0.1806 -0.9814 -0.5103
 1312TIP3   OH225426   2.667   1.651  39.359  0.0576 -0.0457  0.2087
 1312TIP3    H125427   2.729   1.585  39.327 -0.5190 -1.2368  1.4331
 1312TIP3    H225428   2.611   1.670  39.284  0.2112 -0.9988 -0.1628
 1313TIP3   OH225429   1.963   0.151  39.133  0.1173 -0.3515  0.2004
 1313TIP3    H125430   2.026   0.223  39.140  0.4446 -0.7119  1.2074
 1313TIP3    H225431   2.017   0.075  39.112  0.0847 -0.7307  1.4264
 1314TIP3   OH225432   3.172   2.269  41.456  0.4360  0.1022  0.1920
 1314TIP3    H125433   3.134   2.248  41.371  0.6806  0.1646  0.0678
 1314TIP3    H225434   3.165   2.188  41.506  2.4129 -0.6549 -0.6626
 1315TIP3   OH225435   2.515   2.948   8.555 -0.4323 -0.0205 -0.5202
 1315TIP3    H125436   2.462   2.991   8.622  0.8678 -0.5261  0.9005
 1315TIP3    H225437   2.585   3.010   8.536 -0.7205  0.0644 -1.3195
 1316TIP3   OH225438   0.604   3.662   3.810 -0.0467  0.2762 -0.7825
 1316TIP3    H125439   0.590   3.653   3.904  1.3499 -1.6303 -0.7071
 1316TIP3    H225440   0.526   3.708   3.779  0.5831  3.3245  1.6214
 1317TIP3   OH225441   3.758   0.982   8.064 -0.3104  0.3917  0.0432
 1317TIP3    H125442   3.759   0.979   8.160  1.0464  0.9171  0.0627
 1317TIP3    H225443   3.708   0.904   8.039 -1.1532  0.5439  1.1783
 1318TIP3   OH225444   2.227   2.745  37.612 -0.0899  0.5265  0.0450
 1318TIP3    H125445   2.243   2.839  37.601  1.0530  0.1439 -2.1268
 1318TIP3    H225446   2.306   2.714  37.657  0.7401  0.2593 -1.5120
 1319TIP3   OH225447   3.870   2.368  46.224  0.3436 -0.2309  0.3085
 1319TIP3    H125448   3.862   2.424  46.301  2.6727 -0.2802  0.6447
 1319TIP3    H225449   3.946   2.402  46.177 -0.3428 -0.9162 -1.4152
 1320TIP3   OH225450   2.235   4.036  31.589 -0.1449 -0.4869 -0.0160
 1320TIP3    H125451   2.225   3.948  31.624 -0.6881  0.3929  2.2421
 1320TIP3    H225452   2.273   4.086  31.661  0.5704  1.0471 -1.3885
 1321TIP3   OH225453   3.770   3.796  29.990 -0.7416 -0.1067  0.0411
 1321TIP3    H125454   3.728   3.862  30.046 -1.0236 -1.7223  1.8429
 1321TIP3    H225455   3.809   3.847  29.919 -1.4672  1.9346  1.0055
 1322TIP3   OH225456   1.422   1.065  35.432  0.6579 -0.3233  0.2368
 1322TIP3    H125457   1.416   1.043  35.525  0.0428  2.1481  0.8627
 1322TIP3    H225458   1.462   1.152  35.431 -0.3835  0.1862 -1.7147
 1323TIP3   OH225459   3.377   3.307  25.851  0.1943 -0.2995  0.1884
 1323TIP3    H125460   3.452   3.296  25.910 -0.8862 -2.8524  1.2747
 1323TIP3    H225461   3.307   3.339  25.908  0.0580  0.6623 -0.5024
 1324TIP3   OH225462   3.424   2.077  45.701  0.1345 -0.2432 -0.1611
 1324TIP3    H125463   3.411   2.167  45.733  0.4794 -0.5324  0.8134
 1324TIP3    H225464   3.335   2.047  45.680  0.0856  0.5764 -1.2374
 1325TIP3   OH225465   0.127   1.099  13.101 -0.2057 -0.2819  0.0933
 1325TIP3    H125466   0.176   1.019  13.123  0.4580 -0.0854 -0.6396
 1325TIP3    H225467   0.184   1.147  13.041 -0.9095  0.4014 -0.0492
 1326TIP3   OH225468   1.730   1.763  33.921 -0.1286 -0.0564  0.4118
 1326TIP3    H125469   1.823   1.746  33.934 -0.6327 -2.6393  1.3825
 1326TIP3    H225470   1.717   1.854  33.946  1.7471 -0.3338  2.6450
 1327TIP3   OH225471   3.761   2.253  10.215  0.0732 -0.3277  0.0038
 1327TIP3    H125472   3.789   2.291  10.299 -1.1317 -0.9566  0.7188
 1327TIP3    H225473   3.744   2.329  10.159 -0.3027  0.1377  0.7347
 1328TIP3   OH225474   1.658   1.966   1.833  0.4654 -0.1683 -0.1248
 1328TIP3    H125475   1.695   1.898   1.888  1.9609 -0.5913 -1.5972
 1328TIP3    H225476   1.623   1.920   1.757 -0.6400  0.5016 -0.0486
 1329TIP3   OH225477   2.584   0.313  37.604 -0.2094  0.9420  0.3309
 1329TIP3    H125478   2.524   0.309  37.679  0.3275  0.2410  0.7334
 1329TIP3    H225479   2.603   0.407  37.594 -0.7450  1.0944  0.6962
 1330TIP3   OH225480   0.265   3.454   5.350  0.2639  0.0077  0.5966
 1330TIP3    H125481   0.272   3.409   5.265 -0.6798 -2.6688  1.8109
 1330TIP3    H225482   0.355   3.459   5.381  0.4020 -1.1828  0.4484
 1331TIP3   OH225483   3.391   1.780  14.089  0.1539 -0.3705 -0.4984
 1331TIP3    H125484   3.328   1.722  14.132  1.7250  0.2097  2.9163
 1331TIP3    H225485   3.474   1.763  14.134  1.4147  2.1390 -1.6757
 1332TIP3   OH225486   0.682   0.551  36.591 -0.2327 -0.5490 -0.2737
 1332TIP3    H125487   0.596   0.589  36.576  0.6175  1.1802 -1.1188
 1332TIP3    H225488   0.673   0.459  36.564 -1.6798 -0.2914 -0.7610
 1333TIP3   OH225489   0.580   2.299  17.203 -0.1187  0.0201  0.2473
 1333TIP3    H125490   0.541   2.286  17.289  2.2608 -1.5196  1.2034
 1333TIP3    H225491   0.550   2.224  17.152 -0.6556  0.3539  0.0645
 1334TIP3   OH225492   0.730   0.606  31.876 -0.3474 -0.2379 -0.2413
 1334TIP3    H125493   0.809   0.650  31.844 -1.4505  0.7230 -1.8064
 1334TIP3    H225494   0.705   0.548  31.804 -0.0178 -2.0403  1.0193
 1335TIP3   OH225495   1.513   3.310  34.696  0.0002 -0.1347  0.7242
 1335TIP3    H125496   1.594   3.273  34.660  0.6949  1.2199  0.8553
 1335TIP3    H225497   1.447   3.243  34.679  0.4562  0.0533 -2.3121
 1336TIP3   OH225498   1.909   2.591   1.314 -0.2194 -0.3147 -0.4801
 1336TIP3    H125499   1.893   2.604   1.221  1.1457 -0.9066 -0.8234
 1336TIP3    H225500   1.996   2.628   1.329  0.2734 -1.6737  0.1968
 1337TIP3   OH225501   3.988   3.804   5.466 -0.2256  0.1106 -0.6292
 1337TIP3    H125502   3.912   3.767   5.421  0.3807 -0.0309 -1.5678
 1337TIP3    H225503   4.059   3.743   5.446  0.3460  0.7526 -0.5538
 1338TIP3   OH225504   0.767   2.752  41.591  0.0834 -0.7701  0.1941
 1338TIP3    H125505   0.770   2.831  41.537  1.9844 -0.1802  1.0697
 1338TIP3    H225506   0.851   2.709  41.574  0.5645 -0.7648  2.3496
 1339TIP3   OH225507   2.795   0.312   1.109  0.9523 -0.2538 -0.0903
 1339TIP3    H125508   2.878   0.298   1.154  0.6820 -1.0774  0.1721
 1339TIP3    H225509   2.746   0.370   1.166  1.1033 -0.2674  0.0556
 1340TIP3   OH225510   2.384   3.372   6.041  0.0279  0.3155  0.1012
 1340TIP3    H125511   2.470   3.395   6.007  1.5708 -1.6597  2.4167
 1340TIP3    H225512   2.359   3.447   6.095  0.1986  0.9568 -0.6940
 1341TIP3   OH225513   3.192   3.865  42.065 -0.0033 -0.1027  0.1437
 1341TIP3    H125514   3.223   3.953  42.041 -0.2773  0.0432  0.3205
 1341TIP3    H225515   3.222   3.852  42.155  0.1443 -0.2398  0.0739
 1342TIP3   OH225516   3.769   0.779  34.368 -0.2947  0.5108 -0.6529
 1342TIP3    H125517   3.697   0.831  34.333  0.4362  1.5712 -0.6251
 1342TIP3    H225518   3.796   0.724  34.296 -1.5797 -0.4173 -0.4586
 1343TIP3   OH225519   1.612   2.254   2.086  0.1567  0.3741 -0.3650
 1343TIP3    H125520   1.595   2.304   2.166 -1.3701  2.3763 -1.8037
 1343TIP3    H225521   1.694   2.290   2.052  0.5322 -0.1091  0.0200
 1344TIP3   OH225522   2.295   1.372  20.678 -0.5232 -0.7204  0.2485
 1344TIP3    H125523   2.359   1.397  20.611 -0.3466 -1.7471  0.0156
 1344TIP3    H225524   2.214   1.416  20.651 -0.3683 -0.8449 -0.4473
 1345TIP3   OH225525   1.203   1.795   7.296 -0.5469 -0.0134  0.7672
 1345TIP3    H125526   1.294   1.797   7.266 -1.0786  0.8449 -0.9088
 1345TIP3    H225527   1.191   1.879   7.341 -0.7923  0.3172  0.0876
 1346TIP3   OH225528   1.879   2.306   7.766 -0.2192  0.1854 -0.1124
 1346TIP3    H125529   1.970   2.309   7.735  0.5019 -0.9783  1.7169
 1346TIP3    H225530   1.854   2.397   7.777  0.7502  0.5122 -0.5341
 1347TIP3   OH225531   1.901   0.420  27.270  0.0163  0.1915 -0.7598
 1347TIP3    H125532   1.824   0.363  27.269  1.4239 -1.9912  1.5567
 1347TIP3    H225533   1.931   0.422  27.180 -0.9828 -1.5070 -1.1770
 1348TIP3   OH225534   3.689   3.036  42.154 -0.0320 -0.0861  0.1620
 1348TIP3    H125535   3.778   3.048  42.187  0.6859  0.0525 -1.7028
 1348TIP3    H225536   3.656   3.125  42.143 -0.4668 -0.1398  0.9866
 1349TIP3   OH225537   1.890   3.116  12.409  0.2750 -0.3087 -0.3094
 1349TIP3    H125538   1.861   3.029  12.381  2.3500 -1.1768  0.0833
 1349TIP3    H225539   1.953   3.143  12.343 -0.3111  0.9104 -0.3992
 1350TIP3   OH225540   2.530   1.747  43.986 -0.6726 -0.0876  0.1241
 1350TIP3    H125541   2.508   1.840  43.981  1.7428  0.6269  1.5360
 1350TIP3    H225542   2.561   1.725  43.899  0.1405  0.8343  0.1672
 1351TIP3   OH225543   2.178   0.569  14.349 -0.0786  0.1754 -0.3166
 1351TIP3    H125544   2.106   0.627  14.323  0.0796 -0.1632 -1.5617
 1351TIP3    H225545   2.138   0.482  14.353  0.0277  0.1393  0.0808
 1352TIP3   OH225546   2.243   2.619  35.220 -0.5489  0.3232 -0.1752
 1352TIP3    H125547   2.241   2.624  35.124 -1.3647 -1.0866 -0.2619
 1352TIP3    H225548   2.330   2.650  35.244 -0.1525  0.2200 -1.4154
 1353TIP3   OH225549   3.006   1.425  10.119  0.5228  0.4715 -0.2181
 1353TIP3    H125550   2.934   1.436  10.181 -0.1628  0.5319 -0.9892
 1353TIP3    H225551   3.076   1.480  10.152  1.1548 -1.4736  1.8988
 1354TIP3   OH225552   0.427   3.378   4.026 -0.7182 -0.0628  0.0555
 1354TIP3    H125553   0.409   3.296   3.980 -2.9555  0.3838  0.0122
 1354TIP3    H225554   0.357   3.437   3.997 -0.2403  1.2724  1.5021
 1355TIP3   OH225555   2.239   3.607  47.263 -0.4233  0.3362  0.0653
 1355TIP3    H125556   2.167   3.544  47.258 -1.5405  1.5894 -0.2555
 1355TIP3    H225557   2.259   3.630  47.172  0.1654  0.2403  0.1655
 1356TIP3   OH225558   0.617   0.104   7.962 -0.0310 -0.4366 -0.2465
 1356TIP3    H125559   0.644   0.058   7.882  0.8161 -1.8594  0.8070
 1356TIP3    H225560   0.684   0.081   8.026 -1.5226 -0.6302  1.3102
 1357TIP3   OH225561   0.029   0.149   0.256 -0.2784  0.2986 -0.8240
 1357TIP3    H125562   0.033   0.055   0.271  0.3896  0.3260 -0.7807
 1357TIP3    H225563  -0.061   0.173   0.276 -0.1038 -0.1028  0.5683
 1358TIP3   OH225564   2.549   2.674   5.702 -0.9156 -0.5424 -0.6685
 1358TIP3    H125565   2.465   2.666   5.748 -2.1424  0.0098 -2.6620
 1358TIP3    H225566   2.533   2.741   5.635  1.8623  1.3861  0.4088
 1359TIP3   OH225567   0.894   0.793   1.907  0.3370 -0.2026 -0.3662
 1359TIP3    H125568   0.839   0.737   1.960 -1.5351 -0.9774 -2.9314
 1359TIP3    H225569   0.955   0.733   1.863  1.3915  0.3329  0.3322
 1360TIP3   OH225570   1.725   2.796  14.217 -0.1006 -0.3723 -0.1416
 1360TIP3    H125571   1.787   2.839  14.276 -0.6665 -0.0458  0.2261
 1360TIP3    H225572   1.775   2.780  14.137  0.1623  0.9193 -0.2660
 1361TIP3   OH225573   2.404   2.473  42.760  0.2188  0.1002  0.0236
 1361TIP3    H125574   2.444   2.415  42.825  0.7690 -0.6015 -0.9110
 1361TIP3    H225575   2.322   2.502  42.801  0.6142 -0.2186  1.0700
 1362TIP3   OH225576   1.315   2.623   1.032  0.9982  0.9320  0.3253
 1362TIP3    H125577   1.325   2.660   1.120 -1.3881  1.9378  0.2403
 1362TIP3    H225578   1.285   2.534   1.048  0.9830  0.9702  0.5168
 1363TIP3   OH225579   2.327   1.706  14.203 -0.1400  0.1958  0.0829
 1363TIP3    H125580   2.406   1.731  14.155  1.3845 -0.0299  2.3273
 1363TIP3    H225581   2.327   1.611  14.202  0.0405  0.1840  0.7131
 1364TIP3   OH225582   2.227   1.758  41.116 -0.4967 -0.0967  0.0923
 1364TIP3    H125583   2.282   1.826  41.156 -2.1958  2.1009 -1.1197
 1364TIP3    H225584   2.157   1.743  41.180 -1.2444  0.8102 -0.4997
 1365TIP3   OH225585   0.164   3.852  34.917 -0.1862 -0.5331 -0.3903
 1365TIP3    H125586   0.156   3.801  34.836 -0.0606  1.1826 -1.5492
 1365TIP3    H225587   0.153   3.788  34.987  0.8295 -2.2928 -1.7442
 1366TIP3   OH225588   3.090   1.254  39.810 -0.1977 -0.3271  0.0819
 1366TIP3    H125589   3.113   1.298  39.893  1.2970 -0.2565 -0.3319
 1366TIP3    H225590   3.100   1.322  39.744  1.2506 -1.0311 -0.4573
 1367TIP3   OH225591   3.780   3.683  44.084 -0.2534  0.1711  0.1186
 1367TIP3    H125592   3.686   3.695  44.073 -0.1411 -0.4397 -2.0349
 1367TIP3    H225593   3.789   3.610  44.145 -1.1310  0.9091  1.1609
 1368TIP3   OH225594   3.116   0.286  43.814  0.2234  0.0148 -0.1965
 1368TIP3    H125595   3.023   0.307  43.820 -0.1246 -1.5133  0.3616
 1368TIP3    H225596   3.118   0.191  43.798  1.6750 -0.2263  1.1048
 1369TIP3   OH225597   2.681   1.929  43.662 -0.2188  0.6009  0.6559
 1369TIP3    H125598   2.731   2.007  43.636  1.3099 -0.3139  0.7496
 1369TIP3    H225599   2.626   1.959  43.734 -1.4823  2.1812 -0.8817
 1370TIP3   OH225600   2.505   2.089  13.192 -0.2923 -0.0095  0.1575
 1370TIP3    H125601   2.480   2.046  13.110  0.4843  0.0389 -0.1164
 1370TIP3    H225602   2.472   2.031  13.260 -1.9359  0.5152 -0.1612
 1371TIP3   OH225603   3.409   0.186  43.826  0.0023  0.0789 -0.0908
 1371TIP3    H125604   3.394   0.127  43.900 -0.9571  0.6914  0.2225
 1371TIP3    H225605   3.321   0.206  43.794  0.3953  0.0627 -1.2109
 1372TIP3   OH225606   1.116   1.487   1.520  0.5678  0.3083 -0.5212
 1372TIP3    H125607   1.128   1.557   1.584 -0.6270  0.3185 -0.2786
 1372TIP3    H225608   1.112   1.532   1.436 -0.1979  0.5456 -0.3660
 1373TIP3   OH225609   1.738   3.995   4.695 -0.6923  0.5028 -0.0824
 1373TIP3    H125610   1.778   3.971   4.778 -0.6459 -1.4421 -0.6299
 1373TIP3    H225611   1.672   4.060   4.718 -0.8350 -0.1693  1.4908
 1374TIP3   OH225612   0.824   2.590  41.843  0.1861  0.6983  0.0032
 1374TIP3    H125613   0.731   2.585  41.821  0.0659  0.4969  0.5577
 1374TIP3    H225614   0.863   2.514  41.798  0.2306  1.2459 -0.9123
 1375TIP3   OH225615   0.636   1.591  41.776  0.0255 -0.3785 -0.5808
 1375TIP3    H125616   0.727   1.618  41.765  0.1205 -0.7493 -0.7032
 1375TIP3    H225617   0.585   1.666  41.747  0.2918 -0.1313 -0.4156
 1376TIP3   OH225618   2.200   3.222  38.547 -0.0396  0.1897 -0.1439
 1376TIP3    H125619   2.216   3.316  38.536 -1.4760  0.6524  1.2256
 1376TIP3    H225620   2.237   3.182  38.469  0.8633  1.8641 -0.6301
 1377TIP3   OH225621   0.792   2.154  33.696 -0.0556 -0.1040  0.5695
 1377TIP3    H125622   0.766   2.067  33.667  0.0423 -1.1770  3.3977
 1377TIP3    H225623   0.711   2.205  33.696 -0.4177 -0.6753  0.4603
 1378TIP3   OH225624   3.932   1.717  46.388  0.7483  0.2165  0.6016
 1378TIP3    H125625   3.981   1.723  46.306 -0.3745  0.1288 -0.1015
 1378TIP3    H225626   3.920   1.623  46.402  0.3726  0.2512  0.5158
 1379TIP3   OH225627   3.481   2.379   9.910  0.1980 -0.2779  0.2214
 1379TIP3    H125628   3.482   2.300   9.965  1.0432  0.3592  1.1504
 1379TIP3    H225629   3.435   2.444   9.962  0.4539  0.1583 -0.0944
 1380TIP3   OH225630   0.402   3.393  39.519 -0.0327 -0.0909  0.7592
 1380TIP3    H125631   0.413   3.345  39.436  0.8603 -1.4868  1.6366
 1380TIP3    H225632   0.473   3.360  39.575 -0.1548  1.3904  1.8279
 1381TIP3   OH225633   0.255   1.858   0.530 -0.5464 -0.4004 -0.0784
 1381TIP3    H125634   0.254   1.869   0.625  0.6055 -0.8427  0.0015
 1381TIP3    H225635   0.163   1.862   0.504 -0.8979 -0.5935  1.0939
 1382TIP3   OH225636   0.737   2.216   9.507 -0.2637  0.0390 -0.9450
 1382TIP3    H125637   0.653   2.210   9.552  0.2648  0.2131  0.0958
 1382TIP3    H225638   0.735   2.301   9.463  0.0700  0.8969  0.6023
 1383TIP3   OH225639   1.388   1.189   2.391  0.2757 -0.0868  0.2006
 1383TIP3    H125640   1.316   1.161   2.447  0.9635  0.1622  1.2364
 1383TIP3    H225641   1.345   1.234   2.318 -0.6068  0.8229  1.2208
 1384TIP3   OH225642   0.520   3.369  13.579 -0.4480 -0.3614 -0.1706
 1384TIP3    H125643   0.457   3.361  13.508 -1.2062  0.3884  0.4026
 1384TIP3    H225644   0.598   3.324  13.546 -1.1148 -0.8996 -1.0704
 1385TIP3   OH225645   2.870   3.429  37.029 -0.7560 -0.1141 -0.3629
 1385TIP3    H125646   2.878   3.463  36.940  2.5158  0.3444 -0.0275
 1385TIP3    H225647   2.905   3.340  37.025 -1.3366 -0.3915  0.3387
 1386TIP3   OH225648   3.277   1.820  15.711  0.0882 -0.1917  0.1579
 1386TIP3    H125649   3.242   1.847  15.626  0.7212  2.2740  0.5864
 1386TIP3    H225650   3.210   1.846  15.774  0.8565  0.7561  0.6219
 1387TIP3   OH225651   3.947   4.044   4.701 -0.1450 -0.3490 -0.1370
 1387TIP3    H125652   3.916   4.134   4.700  1.9228  0.4116 -0.0237
 1387TIP3    H225653   3.873   3.993   4.669 -0.5297  1.6403 -2.7092
 1388TIP3   OH225654   4.107   3.369  33.868 -0.3911  0.3254 -0.1888
 1388TIP3    H125655   4.097   3.464  33.880  1.9408  0.7268 -0.9387
 1388TIP3    H225656   4.069   3.352  33.782 -1.1732  0.4738  0.1124
 1389TIP3   OH225657   3.277   1.993   1.889  0.0083 -0.4205  0.4787
 1389TIP3    H125658   3.296   1.909   1.849 -0.4915 -0.2440 -0.1437
 1389TIP3    H225659   3.327   2.057   1.838 -0.5933 -0.2005  0.1531
 1390TIP3   OH225660   2.566   2.552  19.080 -0.1362  0.4245 -0.6387
 1390TIP3    H125661   2.595   2.570  19.169 -0.0273  0.6820 -0.7245
 1390TIP3    H225662   2.625   2.483  19.049 -1.5557 -1.2382  0.2389
 1391TIP3   OH225663   3.432   3.703  12.028 -0.0002  0.6089  0.2427
 1391TIP3    H125664   3.339   3.693  12.004  0.0045  1.3872 -0.1616
 1391TIP3    H225665   3.442   3.797  12.044  1.0251  0.7759 -1.1279
 1392TIP3   OH225666   2.161   0.074  42.291 -0.1630  0.0940 -0.0684
 1392TIP3    H125667   2.210   0.024  42.226 -0.5175 -1.3120  0.6981
 1392TIP3    H225668   2.070   0.045  42.279  0.1543 -2.8328  3.2145
 1393TIP3   OH225669   0.997   1.190  32.385 -0.1187  0.2269 -0.0700
 1393TIP3    H125670   0.951   1.235  32.314 -1.4899 -0.4436  0.3607
 1393TIP3    H225671   1.040   1.260  32.434  1.9144  0.6080 -2.2432
 1394TIP3   OH225672   0.873   2.183  20.155  0.0899 -0.0420 -0.2983
 1394TIP3    H125673   0.791   2.139  20.176 -0.2073 -0.6523 -2.4914
 1394TIP3    H225674   0.846   2.272  20.131  0.3795  0.5044  1.2361
 1395TIP3   OH225675   0.485   2.873  42.315  0.1605  0.2436  0.0131
 1395TIP3    H125676   0.566   2.865  42.264 -0.0196  1.5854 -0.5325
 1395TIP3    H225677   0.455   2.962  42.297 -0.7454  0.2049  1.2494
 1396TIP3   OH225678   1.827   2.394  12.392 -0.9106  0.6544  0.1738
 1396TIP3    H125679   1.882   2.432  12.323 -0.6549 -0.1233 -0.0574
 1396TIP3    H225680   1.737   2.412  12.363 -0.8805  4.2447  1.8224
 1397TIP3   OH225681   1.528   2.170  44.072 -0.1942 -0.7980 -0.0634
 1397TIP3    H125682   1.537   2.243  44.133  2.0705  0.2058 -1.4418
 1397TIP3    H225683   1.449   2.189  44.022 -0.0582  0.3239  0.1294
 1398TIP3   OH225684   2.817   3.328  40.624 -0.1448 -0.1115  0.8043
 1398TIP3    H125685   2.870   3.248  40.627 -0.1737 -0.1200  1.2364
 1398TIP3    H225686   2.807   3.347  40.531 -0.0310 -0.5414  0.7002
 1399TIP3   OH225687   1.927   2.855  14.386 -0.5425 -0.3792 -0.2176
 1399TIP3    H125688   2.018   2.826  14.393 -0.5749 -0.5837 -0.5866
 1399TIP3    H225689   1.930   2.948  14.408 -0.3351 -0.5124  0.3393
 1400TIP3   OH225690   3.720   3.520  41.708  0.3413  0.1207  0.0212
 1400TIP3    H125691   3.694   3.485  41.623  1.3028 -0.8465  0.1139
 1400TIP3    H225692   3.805   3.562  41.691  1.9170 -2.4669  1.0061
 1401TIP3   OH225693   1.005   3.347   0.667  0.4708 -0.4758  0.0411
 1401TIP3    H125694   1.006   3.286   0.593 -0.0682 -0.4273 -0.0136
 1401TIP3    H225695   1.057   3.421   0.638  0.4865 -0.5739 -0.1890
 1402TIP3   OH225696   3.771   3.085   9.071 -0.1172 -0.0692 -0.1789
 1402TIP3    H125697   3.805   3.171   9.096  0.9084 -0.5479  0.1179
 1402TIP3    H225698   3.764   3.088   8.976 -1.2628  0.7591 -0.0848
 1403TIP3   OH225699   0.814   2.237   4.955  0.4014 -0.2642 -0.8009
 1403TIP3    H125700   0.876   2.267   5.022  1.6148  1.3381 -2.5484
 1403TIP3    H225701   0.863   2.174   4.903 -0.8021 -2.1489  0.2212
 1404TIP3   OH225702   2.368   1.962  16.150  0.3662 -0.4640  0.0818
 1404TIP3    H125703   2.335   2.036  16.203 -0.0211 -1.0983  0.7478
 1404TIP3    H225704   2.455   1.990  16.122  0.6866 -0.1969  1.2656
 1405TIP3   OH225705   1.806   1.519  35.086  0.3352  0.1479 -0.3600
 1405TIP3    H125706   1.851   1.440  35.056  0.3984  0.4435 -1.0787
 1405TIP3    H225707   1.859   1.591  35.051 -0.8635  0.5080 -1.5183
 1406TIP3   OH225708   1.118   1.860  38.681 -0.1540  0.3322 -0.1887
 1406TIP3    H125709   1.172   1.830  38.608  0.8604 -0.4034  0.8410
 1406TIP3    H225710   1.101   1.782  38.733 -1.8485  0.6358 -0.2293
 1407TIP3   OH225711   3.113   1.973  37.450  0.2685  0.0989  0.0748
 1407TIP3    H125712   3.122   1.903  37.386 -0.1307 -1.8282  1.9771
 1407TIP3    H225713   3.188   1.960  37.509 -0.9190 -0.0732  1.6159
 1408TIP3   OH225714   1.377   0.563  40.955  0.1875  0.2072  0.3444
 1408TIP3    H125715   1.306   0.622  40.929  2.4561  3.0078 -0.0712
 1408TIP3    H225716   1.349   0.525  41.038 -1.8656  1.0319  0.0734
 1409TIP3   OH225717   0.782   2.754   0.396  0.2214 -0.1805 -0.0687
 1409TIP3    H125718   0.732   2.760   0.314 -0.1360  1.6355  0.2326
 1409TIP3    H225719   0.869   2.726   0.369  0.1633  0.5872 -1.1137
 1410TIP3   OH225720   0.416   3.530  40.805 -0.0741  0.0849  0.3077
 1410TIP3    H125721   0.493   3.527  40.862 -0.3428  1.4921  0.7801
 1410TIP3    H225722   0.450   3.514  40.717  0.8692  1.2518  0.4345
 1411TIP3   OH225723   2.755   0.851  34.937  0.1380  0.6855  0.2867
 1411TIP3    H125724   2.669   0.862  34.898 -0.3577  0.0396  1.1662
 1411TIP3    H225725   2.790   0.940  34.943  0.3393  0.8091 -1.7867
 1412TIP3   OH225726   2.468   1.098  41.351  0.2385 -0.5007  0.1775
 1412TIP3    H125727   2.377   1.076  41.369  0.6475 -2.4008  0.0609
 1412TIP3    H225728   2.464   1.154  41.273 -0.7342 -1.9867 -0.8813
 1413TIP3   OH225729   0.436   1.501  12.420 -0.2733  0.0029  0.6510
 1413TIP3    H125730   0.373   1.429  12.431  0.6279 -0.9639 -0.2696
 1413TIP3    H225731   0.491   1.496  12.498  2.6383 -3.3075 -1.3065
 1414TIP3   OH225732   2.665   3.045  35.429 -0.5740  0.5066  0.1402
 1414TIP3    H125733   2.689   3.135  35.453 -0.0794  0.6865 -0.9784
 1414TIP3    H225734   2.668   2.997  35.512 -0.0548  1.3507  0.6301
 1415TIP3   OH225735   2.848   0.193   4.292  0.0677  0.2778 -0.1718
 1415TIP3    H125736   2.898   0.213   4.371  1.4213  2.2407 -1.3956
 1415TIP3    H225737   2.915   0.190   4.223 -1.2313  0.3262 -1.4747
 1416TIP3   OH225738   2.425   1.893  44.271  0.2326 -0.0980 -0.1839
 1416TIP3    H125739   2.442   1.970  44.325 -0.5622  0.0230 -0.0971
 1416TIP3    H225740   2.510   1.847  44.267  0.1487 -0.5352  1.8141
 1417TIP3   OH225741   1.452   4.084  44.627  0.0833  0.0195 -0.3485
 1417TIP3    H125742   1.435   4.013  44.566 -0.6725  0.6290 -0.8726
 1417TIP3    H225743   1.376   4.085  44.685 -0.6134  1.2638 -1.2228
 1418TIP3   OH225744   1.764   1.467   6.136  0.7239  0.1702 -0.3730
 1418TIP3    H125745   1.793   1.558   6.135  0.1099  0.3622 -1.2058
 1418TIP3    H225746   1.669   1.472   6.129  0.7003 -0.5482 -0.6127
 1419TIP3   OH225747   3.326   2.707  15.862  0.2217 -0.0223  0.5406
 1419TIP3    H125748   3.275   2.731  15.940  0.6168  2.0474  0.2187
 1419TIP3    H225749   3.402   2.765  15.865  1.0712 -1.0544 -0.5447
 1420TIP3   OH225750   0.363   1.834  20.809 -0.5598 -0.2460  0.5208
 1420TIP3    H125751   0.449   1.868  20.833 -0.1678 -1.2258  0.5348
 1420TIP3    H225752   0.320   1.816  20.893  0.3500 -2.5136  0.5787
 1421TIP3   OH225753   2.435   0.605  34.217  0.0312 -0.1500 -0.2917
 1421TIP3    H125754   2.360   0.634  34.268  0.6397  1.8767 -0.4649
 1421TIP3    H225755   2.426   0.649  34.132  1.7772  0.7790 -0.0479
 1422TIP3   OH225756   3.433   2.802  45.609  0.0433  0.3369 -0.2179
 1422TIP3    H125757   3.433   2.814  45.704 -0.2576  2.8543 -0.4819
 1422TIP3    H225758   3.497   2.865  45.577  0.6818 -0.9765 -1.6773
 1423TIP3   OH225759   1.095   0.055  10.815  0.2572 -0.6551 -0.2580
 1423TIP3    H125760   1.098  -0.020  10.874 -0.5475 -1.0551 -0.7005
 1423TIP3    H225761   1.039   0.026  10.743 -2.7355  1.4067  1.0505
 1424TIP3   OH225762   1.265   2.893  33.218 -0.2845  0.4071 -0.2859
 1424TIP3    H125763   1.361   2.892  33.214  0.0158  2.2155  2.7529
 1424TIP3    H225764   1.241   2.808  33.254  0.3412  0.4773  0.3245
 1425TIP3   OH225765   0.092   3.362   6.340  0.3662 -0.4948  0.5124
 1425TIP3    H125766   0.100   3.290   6.401 -2.3098 -1.0113  0.3711
 1425TIP3    H225767   0.159   3.425   6.367 -0.6700 -0.7053  3.9628
 1426TIP3   OH225768   0.850   3.598   2.260 -0.6268 -0.2728 -0.2524
 1426TIP3    H125769   0.915   3.552   2.314 -1.5072 -0.3708  0.7370
 1426TIP3    H225770   0.886   3.686   2.249 -0.3855 -0.2843  0.4043
 1427TIP3   OH225771   0.285   3.393  34.262 -0.3135  0.1182  0.7064
 1427TIP3    H125772   0.251   3.473  34.303 -1.6768  0.8099 -1.5633
 1427TIP3    H225773   0.208   3.354  34.220  0.4036 -2.2602  1.4800
 1428TIP3   OH225774   2.362   0.934  33.758  0.1114  0.9706 -0.6469
 1428TIP3    H125775   2.378   0.841  33.739 -0.4518  0.3151  1.6985
 1428TIP3    H225776   2.271   0.948  33.733  0.3383  1.0414 -1.4582
 1429TIP3   OH225777   3.085   0.136  41.339  0.0407  0.2936  0.2061
 1429TIP3    H125778   3.144   0.175  41.275  0.7243 -0.5794  0.2800
 1429TIP3    H225779   3.016   0.095  41.287  1.2514 -1.4893 -0.0844
 1430TIP3   OH225780   1.455   1.595   7.731  0.1555 -0.0091 -0.3445
 1430TIP3    H125781   1.533   1.650   7.730 -1.4902  2.5177  0.6831
 1430TIP3    H225782   1.484   1.511   7.696  3.2878  0.8475 -0.0599
 1431TIP3   OH225783   1.384   3.102   3.208 -0.3670 -0.3754 -0.4866
 1431TIP3    H125784   1.443   3.139   3.274  1.3290 -2.2798 -0.8403
 1431TIP3    H225785   1.384   3.165   3.136  0.2114  0.2517  0.0542
 1432TIP3   OH225786   1.625   0.101   3.289 -0.4610  0.0907  0.0233
 1432TIP3    H125787   1.654   0.027   3.235 -2.6080 -0.0511 -1.0536
 1432TIP3    H225788   1.669   0.177   3.251  2.3194 -0.5929  1.5676
 1433TIP3   OH225789   3.858   2.936  33.895 -0.2817  0.7959 -0.2171
 1433TIP3    H125790   3.916   2.994  33.944 -0.3747  2.0521 -1.5336
 1433TIP3    H225791   3.916   2.868  33.860  0.5741  2.3432 -1.9824
 1434TIP3   OH225792   3.755   1.312  37.762  0.1039 -0.2630 -0.2678
 1434TIP3    H125793   3.714   1.381  37.710  0.5037  0.5265  0.4231
 1434TIP3    H225794   3.826   1.279  37.707 -0.5028 -0.5921 -0.8640
 1435TIP3   OH225795   3.766   3.882  41.724 -0.1681  0.3248 -0.0427
 1435TIP3    H125796   3.748   3.943  41.796  0.7087  0.4833  0.0489
 1435TIP3    H225797   3.859   3.894  41.706 -0.6553  1.2932 -2.1494
 1436TIP3   OH225798   1.097   3.748   5.741  0.5803 -0.4475  0.4854
 1436TIP3    H125799   1.044   3.695   5.802  0.8472 -1.4800 -0.1491
 1436TIP3    H225800   1.183   3.754   5.782  1.1760 -2.3096 -0.3605
 1437TIP3   OH225801   2.023   2.979   9.204 -0.3262  0.0072  0.0964
 1437TIP3    H125802   2.057   2.893   9.229  0.2359  0.1277 -0.2559
 1437TIP3    H225803   2.094   3.020   9.156 -1.3537 -0.1876 -1.6728
 1438TIP3   OH225804   4.096   0.538  41.226  0.0660  0.0703 -0.2659
 1438TIP3    H125805   4.067   0.509  41.313  0.7177  0.2872  0.0292
 1438TIP3    H225806   4.016   0.569  41.184  0.0656  2.2107  1.1428
 1439TIP3   OH225807   2.184   3.043  41.854 -0.0967 -0.0532 -0.7316
 1439TIP3    H125808   2.257   2.986  41.831  1.3039  1.4087 -0.0669
 1439TIP3    H225809   2.166   3.024  41.946  0.7204  0.9009 -0.3555
 1440TIP3   OH225810   1.245   1.904   6.279 -0.1234 -0.5827  0.5041
 1440TIP3    H125811   1.209   1.994   6.279  0.6403 -0.2713  0.1647
 1440TIP3    H225812   1.177   1.852   6.321 -0.6932  0.1154  0.4775
 1441TIP3   OH225813   3.787   1.014   8.329  0.1681  0.1490 -0.1176
 1441TIP3    H125814   3.773   1.097   8.374 -0.2166 -0.7929  1.6077
 1441TIP3    H225815   3.882   1.007   8.320  0.2171  0.6177  0.0194
 1442TIP3   OH225816   1.139   2.335   5.926  0.2633 -1.2929  0.8657
 1442TIP3    H125817   1.148   2.356   5.833 -2.3948  1.1995  1.0610
 1442TIP3    H225818   1.066   2.273   5.929  1.3159 -2.5749  1.2505
 1443TIP3   OH225819   1.347   3.429  32.916  0.1330  0.0307 -0.1527
 1443TIP3    H125820   1.395   3.504  32.952  1.8085  0.2683 -2.5614
 1443TIP3    H225821   1.320   3.378  32.992  0.7559  1.9887  1.4801
 1444TIP3   OH225822   3.316   1.732  43.110  0.0394 -0.0834  0.1147
 1444TIP3    H125823   3.311   1.688  43.194  0.9837  2.4804  1.6177
 1444TIP3    H225824   3.398   1.782  43.113 -0.8965  1.6897 -1.4807
 1445TIP3   OH225825   3.816   3.931  39.962  0.9942  0.0537 -0.3167
 1445TIP3    H125826   3.858   3.960  39.881  1.2004 -0.3877 -0.3720
 1445TIP3    H225827   3.872   3.965  40.032  2.2859 -1.7373 -0.4044
 1446TIP3   OH225828   3.028   3.351   9.728  0.9335  0.5802 -0.3436
 1446TIP3    H125829   3.101   3.411   9.712  1.4886 -0.1043 -0.4762
 1446TIP3    H225830   3.070   3.269   9.755  0.2013  0.2207 -0.2555
 1447TIP3   OH225831   1.332   3.615  40.725  0.4484 -0.2915  0.6411
 1447TIP3    H125832   1.369   3.688  40.775 -0.5033  0.8885 -0.3178
 1447TIP3    H225833   1.289   3.656  40.650 -2.1644 -1.5909  1.2809
 1448TIP3   OH225834   0.943   0.799  40.895 -0.2749 -0.6990 -0.0611
 1448TIP3    H125835   0.876   0.754  40.845 -1.3316  1.2129 -0.4732
 1448TIP3    H225836   0.901   0.823  40.977  0.2837 -0.5446  0.1905
 1449TIP3   OH225837   2.221   1.457  42.067  0.2930 -0.1110  0.2794
 1449TIP3    H125838   2.202   1.378  42.016 -0.3683 -1.7638  2.9065
 1449TIP3    H225839   2.314   1.451  42.087  0.6644  0.7912 -1.0381
 1450TIP3   OH225840   1.729   1.675  47.084  0.1593  0.5843 -0.9109
 1450TIP3    H125841   1.820   1.669  47.054  1.0859  0.1915  1.6924
 1450TIP3    H225842   1.682   1.611  47.031  1.6570 -0.0611 -1.5146
 1451TIP3   OH225843   3.274   4.076  37.221  1.0735  0.1202 -0.1117
 1451TIP3    H125844   3.368   4.065  37.209  1.3019  0.6910  1.0386
 1451TIP3    H225845   3.262   4.171  37.228  0.3077  0.1055 -1.0290
 1452TIP3   OH225846   2.909   3.909  13.555 -0.1395  0.3144 -0.1503
 1452TIP3    H125847   2.987   3.855  13.565 -1.6478 -1.9119  0.5092
 1452TIP3    H225848   2.877   3.889  13.467 -0.5968  0.2614  0.0207
 1453TIP3   OH225849   3.314   3.905   4.717  0.0185 -0.0360 -0.0800
 1453TIP3    H125850   3.230   3.863   4.700 -0.0535  0.4191 -0.9319
 1453TIP3    H225851   3.293   3.982   4.770 -0.1634  0.2632 -0.5673
 1454TIP3   OH225852   2.219   1.679  34.587 -0.6439 -0.1795 -0.0486
 1454TIP3    H125853   2.167   1.612  34.631 -1.8983  2.0299  2.1138
 1454TIP3    H225854   2.160   1.714  34.520 -0.1516 -0.8960 -0.8717
 1455TIP3   OH225855   1.735   2.328   0.848 -0.2247 -0.0135  0.0671
 1455TIP3    H125856   1.717   2.394   0.916 -2.5631 -1.0536  0.5317
 1455TIP3    H225857   1.814   2.284   0.879  0.9931  2.0265  0.1043
 1456TIP3   OH225858   2.613   0.387  36.728 -0.3712  0.7352  0.3568
 1456TIP3    H125859   2.569   0.466  36.761  0.4125  0.1844  2.9322
 1456TIP3    H225860   2.599   0.390  36.633 -1.5511  3.2284  0.5218
 1457TIP3   OH225861   0.398   2.131   4.534 -0.8474  0.1818  0.4762
 1457TIP3    H125862   0.449   2.200   4.577 -0.5356 -0.6529  1.4949
 1457TIP3    H225863   0.444   2.114   4.452 -1.3348  1.6615 -0.1473
 1458TIP3   OH225864   0.034   1.815  19.411 -0.4948 -0.0598 -0.1446
 1458TIP3    H125865   0.101   1.872  19.373  1.1825 -0.5075  1.9623
 1458TIP3    H225866   0.076   1.775  19.488 -2.9072 -1.0498  0.7744
 1459TIP3   OH225867   2.212   1.529  15.896 -0.0353  0.0154  0.2995
 1459TIP3    H125868   2.138   1.571  15.851  0.0368 -1.1999 -1.0020
 1459TIP3    H225869   2.278   1.598  15.900 -0.8428  0.8078  0.5409
 1460TIP3   OH225870   3.419   2.294  40.528  0.1485 -0.6921  0.4571
 1460TIP3    H125871   3.478   2.219  40.523  1.2110 -0.0184  2.0038
 1460TIP3    H225872   3.364   2.276  40.604 -1.6338 -1.2609 -0.9098
 1461TIP3   OH225873   1.802   3.113   4.331  0.0268  0.0141  0.2864
 1461TIP3    H125874   1.747   3.178   4.374 -1.9449 -1.9627  0.9490
 1461TIP3    H225875   1.864   3.086   4.398  0.4909  0.7845  0.1783
 1462TIP3   OH225876   2.573   0.381  14.022  0.1213  0.1794 -0.3063
 1462TIP3    H125877   2.510   0.374  13.951 -1.8957 -1.1503  1.4859
 1462TIP3    H225878   2.527   0.432  14.089  0.9642 -0.7591  1.0291
 1463TIP3   OH225879   3.570   2.635  37.338 -0.4407 -0.2676  0.1489
 1463TIP3    H125880   3.489   2.584  37.336  0.0337 -1.0394  0.2168
 1463TIP3    H225881   3.614   2.608  37.418  0.5644 -0.9581 -0.6096
 1464TIP3   OH225882   0.601   1.613   7.528  0.1066 -0.3309  0.1325
 1464TIP3    H125883   0.616   1.660   7.609  1.3083  1.6236 -1.1429
 1464TIP3    H225884   0.663   1.540   7.531 -0.1238 -0.4929  1.1161
 1465TIP3   OH225885   1.126   2.972   1.192 -0.3886 -0.2991  0.0096
 1465TIP3    H125886   1.138   2.974   1.287 -1.2352 -2.1271  0.2188
 1465TIP3    H225887   1.070   2.895   1.177 -0.1368 -0.1567 -1.9852
 1466TIP3   OH225888   3.716   2.473  15.692  0.4662  0.1564  0.0238
 1466TIP3    H125889   3.784   2.537  15.672  1.6193 -0.5766  1.5099
 1466TIP3    H225890   3.707   2.475  15.787  0.2339 -1.6024  0.0731
 1467TIP3   OH225891   3.636   3.639  13.639 -0.6681  0.1894 -0.1619
 1467TIP3    H125892   3.715   3.586  13.626  0.0801  1.4047 -0.7602
 1467TIP3    H225893   3.571   3.598  13.582  0.0899  0.2616 -1.1228
 1468TIP3   OH225894   1.029   3.910  11.613 -0.3779  0.4633 -0.5664
 1468TIP3    H125895   0.995   3.905  11.702 -0.2631 -0.7009 -0.5678
 1468TIP3    H225896   1.115   3.869  11.617  0.0926  1.3685 -1.0167
 1469TIP3   OH225897   2.180   2.563   9.653 -0.3864  0.1612 -0.0561
 1469TIP3    H125898   2.273   2.543   9.663 -0.6492 -2.4246 -1.9378
 1469TIP3    H225899   2.139   2.479   9.636 -3.3997  0.9854  2.3387
 1470TIP3   OH225900   3.585   3.613   6.717  0.4538 -0.0829 -0.5420
 1470TIP3    H125901   3.673   3.642   6.691  0.3829  0.0373 -0.6432
 1470TIP3    H225902   3.536   3.693   6.732  1.6570  0.0818  4.1708
 1471TIP3   OH225903   2.174   1.654  33.498  0.1353 -0.8107 -0.3223
 1471TIP3    H125904   2.169   1.653  33.593 -0.3309 -0.7533 -0.3461
 1471TIP3    H225905   2.121   1.730  33.471  0.3080 -0.7925 -0.6233
 1472TIP3   OH225906   0.441   3.251  33.426 -0.2049 -0.6271  0.4439
 1472TIP3    H125907   0.364   3.305  33.410 -2.4932 -3.6367  0.5222
 1472TIP3    H225908   0.436   3.229  33.518  1.0468 -0.5091  0.5538
 1473TIP3   OH225909   3.051   0.531  35.274  0.0198  0.5153  0.4078
 1473TIP3    H125910   2.966   0.550  35.313  0.2366  1.6932  0.3409
 1473TIP3    H225911   3.110   0.520  35.349 -0.8388 -4.1346  0.6743
 1474TIP3   OH225912   3.092   0.109   2.647  0.1125 -0.3738  0.9498
 1474TIP3    H125913   3.103   0.031   2.593  1.2591  0.8577 -0.6782
 1474TIP3    H225914   3.173   0.115   2.697  0.8086  0.7008 -0.2467
 1475TIP3   OH225915   0.039   2.706  11.342 -0.4686  0.0585  0.2111
 1475TIP3    H125916  -0.042   2.671  11.379 -0.5196 -0.3893 -0.3064
 1475TIP3    H225917   0.098   2.631  11.338 -0.1753  0.2883  0.1766
 1476TIP3   OH225918   1.818   0.773  34.833  1.1439  0.1049  0.3409
 1476TIP3    H125919   1.829   0.868  34.835 -0.0983  0.2892 -0.4913
 1476TIP3    H225920   1.731   0.760  34.795  1.5953 -1.3873 -0.2455
 1477TIP3   OH225921   2.990   1.969   4.806  0.5655 -0.0927  0.0101
 1477TIP3    H125922   2.912   1.929   4.843 -0.6859  0.7543 -1.5809
 1477TIP3    H225923   3.055   1.899   4.802  0.4081 -0.4800  2.6522
 1478TIP3   OH225924   2.043   3.630   7.811 -0.3407  0.0374 -0.1541
 1478TIP3    H125925   2.039   3.701   7.746 -1.2105 -0.3606 -0.5527
 1478TIP3    H225926   2.117   3.654   7.868  0.2539  0.5533 -1.1041
 1479TIP3   OH225927   0.510   1.002   4.563 -0.5327  0.1456 -0.2628
 1479TIP3    H125928   0.526   1.095   4.554 -0.6355  0.1515 -0.3880
 1479TIP3    H225929   0.432   0.996   4.618 -0.7081  0.1412 -0.5100
 1480TIP3   OH225930   0.036   3.097   5.181  0.2340 -0.0956  0.1662
 1480TIP3    H125931  -0.053   3.107   5.147  0.2144 -0.0008  0.2452
 1480TIP3    H225932   0.036   3.012   5.225  0.3616 -0.3840 -0.3862
 1481TIP3   OH225933   3.648   0.051  34.328  0.9052 -0.5406  0.2683
 1481TIP3    H125934   3.656   0.123  34.391  1.7631  0.1385 -0.5785
 1481TIP3    H225935   3.679  -0.026  34.375  2.3891  0.1221  0.4265
 1482TIP3   OH225936   1.266   3.179   2.042 -0.5527 -0.1204  0.7940
 1482TIP3    H125937   1.277   3.145   2.131 -0.8264 -1.6569  0.2600
 1482TIP3    H225938   1.172   3.180   2.028 -0.5273  0.4673  0.6399
 1483TIP3   OH225939   1.164   1.132   0.186  0.0580  0.1201  0.7386
 1483TIP3    H125940   1.163   1.059   0.248 -0.5165  0.5742  1.2838
 1483TIP3    H225941   1.226   1.106   0.118  0.2821 -0.6268  1.2216
 1484TIP3   OH225942   3.184   0.923  30.473 -0.1174  0.3219  0.4784
 1484TIP3    H125943   3.224   0.913  30.386 -1.6693 -0.4695 -0.1755
 1484TIP3    H225944   3.216   0.848  30.523 -0.9989 -0.4997 -0.1492
 1485TIP3   OH225945   3.804   3.288  40.876  0.2957  0.7179  0.1281
 1485TIP3    H125946   3.708   3.291  40.873  0.2397 -0.8962 -1.8501
 1485TIP3    H225947   3.824   3.213  40.932  0.3499  0.2351 -0.5239
 1486TIP3   OH225948   1.132   3.088  39.676 -0.3691  0.3629 -0.7969
 1486TIP3    H125949   1.182   3.090  39.595  1.1272  0.8033  0.1025
 1486TIP3    H225950   1.190   3.048  39.740 -1.5070  0.0594  0.0850
 1487TIP3   OH225951   0.136   3.137  38.230  0.4450 -0.5077 -0.2133
 1487TIP3    H125952   0.059   3.117  38.284 -0.3079  0.5218 -0.8732
 1487TIP3    H225953   0.122   3.088  38.149 -0.2228  0.7546 -0.8822
 1488TIP3   OH225954   0.293   1.978  13.509  0.4490 -0.1922  0.1998
 1488TIP3    H125955   0.329   1.996  13.595  0.9088  0.3839 -0.1003
 1488TIP3    H225956   0.339   1.900  13.479  1.0481  0.2076  0.0558
 1489TIP3   OH225957   1.098   3.300  47.088  0.2082 -0.4556  0.2817
 1489TIP3    H125958   1.142   3.373  47.132 -0.3701 -1.4630  2.6646
 1489TIP3    H225959   1.167   3.257  47.039  0.6752  1.3199 -0.7038
 1490TIP3   OH225960   3.403   0.404  40.367 -0.3276 -0.8186  0.0847
 1490TIP3    H125961   3.441   0.352  40.297  1.3510 -1.5795  1.5029
 1490TIP3    H225962   3.423   0.494  40.344 -1.7534 -0.8528 -1.5075
 1491TIP3   OH225963   3.550   1.877  42.803  0.1033  0.0266 -0.3648
 1491TIP3    H125964   3.487   1.894  42.873  1.3637 -0.8481  1.0352
 1491TIP3    H225965   3.585   1.963  42.780 -0.8768  0.4026 -0.4693
 1492TIP3   OH225966   0.938   4.082   3.756 -0.4970  0.2707  0.0540
 1492TIP3    H125967   0.960   4.016   3.690  1.9841  0.3330  0.7013
 1492TIP3    H225968   0.877   4.038   3.815  3.5181 -2.9223  2.4197
 1493TIP3   OH225969   3.321   3.608   7.615  0.1271 -0.5859 -0.6652
 1493TIP3    H125970   3.236   3.566   7.602  0.6533 -0.9524 -3.5953
 1493TIP3    H225971   3.333   3.664   7.539  2.1523  0.1383  0.1059
 1494TIP3   OH225972   2.387   0.164  36.139 -0.4323 -0.3083  0.3490
 1494TIP3    H125973   2.424   0.196  36.057 -2.0903 -0.4791 -0.5189
 1494TIP3    H225974   2.462   0.150  36.197  0.5420  3.1532  0.0956
 1495TIP3   OH225975   3.442   0.549   2.145  0.0482 -0.0906  0.0997
 1495TIP3    H125976   3.397   0.633   2.141  1.9157  0.9952 -3.9516
 1495TIP3    H225977   3.384   0.489   2.098  1.4574  0.7314 -2.9648
 1496TIP3   OH225978   1.811   2.737   7.507  0.5087  0.0636  0.0763
 1496TIP3    H125979   1.868   2.754   7.432  0.2987  0.3025 -0.0349
 1496TIP3    H225980   1.835   2.804   7.571 -0.6109  1.1049 -0.5266
 1497TIP3   OH225981   3.481   1.223  38.900 -0.1327 -0.3622 -0.3625
 1497TIP3    H125982   3.389   1.236  38.881 -0.7296 -2.9918  0.2774
 1497TIP3    H225983   3.485   1.207  38.995  0.9177 -0.5403 -0.4151
 1498TIP3   OH225984   1.245   1.343   4.942  0.1581 -0.5128  0.3113
 1498TIP3    H125985   1.258   1.422   4.994 -0.5613 -1.3193  1.7529
 1498TIP3    H225986   1.308   1.351   4.870  0.7292  0.9208  0.9472
 1499TIP3   OH225987   1.243   3.612  37.449 -0.2550 -0.2064  0.2145
 1499TIP3    H125988   1.296   3.580  37.376 -0.3581  0.6123 -0.2448
 1499TIP3    H225989   1.302   3.614  37.524  0.2847  0.4053 -0.2210
 1500TIP3   OH225990   0.654   3.039  47.328 -0.6400 -0.2157  0.0559
 1500TIP3    H125991   0.678   2.962  47.275  1.7902  0.9633 -0.6784
 1500TIP3    H225992   0.560   3.048  47.314 -0.7589 -2.2503 -0.9398
 1501TIP3   OH225993   1.586   2.388   9.019  0.1971 -0.2188 -0.1762
 1501TIP3    H125994   1.585   2.386   8.924  2.2752 -0.2257 -0.2264
 1501TIP3    H225995   1.610   2.478   9.041  0.7971 -0.4977  0.3284
 1502TIP3   OH225996   3.388   1.125  41.208 -0.3598  0.2021  0.3698
 1502TIP3    H125997   3.366   1.045  41.255  0.0634  0.5017  1.1007
 1502TIP3    H225998   3.453   1.098  41.144  0.0031  0.0073  0.8147
 1503TIP3   OH225999   1.383   3.737   7.789  0.3483 -0.0086 -0.5292
 1503TIP3    H126000   1.324   3.692   7.850  0.9132 -1.4861 -1.0318
 1503TIP3    H226001   1.369   3.830   7.807  0.4718 -0.3698  1.8614
 1504TIP3   OH226002   0.321   4.012   2.251  0.5028 -0.0033  0.2008
 1504TIP3    H126003   0.338   3.919   2.232  2.9186  0.7683 -2.0599
 1504TIP3    H226004   0.318   4.054   2.165 -0.3020  2.0724  1.1837
 1505TIP3   OH226005   1.874   1.836   2.640 -0.5645 -0.3875 -0.1858
 1505TIP3    H126006   1.917   1.823   2.555 -2.5100  0.3092 -1.3735
 1505TIP3    H226007   1.880   1.931   2.655  2.0371 -0.7557  1.8390
 1506TIP3   OH226008   2.148   0.458  41.109 -0.0946  0.9134  0.4258
 1506TIP3    H126009   2.131   0.376  41.155 -1.0341  1.1637  0.5487
 1506TIP3    H226010   2.230   0.443  41.062 -0.5698 -0.3060 -0.0476
 1507TIP3   OH226011   2.367   2.774  47.448 -0.0442  0.3809  0.0373
 1507TIP3    H126012   2.416   2.850  47.417  1.2533 -1.0513 -1.6398
 1507TIP3    H226013   2.366   2.783  47.543  0.7154  2.0952 -0.0870
 1508TIP3   OH226014   2.654   4.048   4.945 -0.4990 -0.0059  0.0096
 1508TIP3    H126015   2.587   4.090   4.999 -0.8401 -0.0530 -0.3703
 1508TIP3    H226016   2.731   4.104   4.955  0.1954 -1.2646  2.4028
 1509TIP3   OH226017   1.646   3.811   2.431 -0.6192 -0.2863 -0.1774
 1509TIP3    H126018   1.659   3.854   2.347 -0.2438 -2.3803 -1.2595
 1509TIP3    H226019   1.615   3.723   2.408 -5.6177  0.5600  1.9465
 1510TIP3   OH226020   0.501   0.904  44.059 -1.1082 -0.2056  0.4206
 1510TIP3    H126021   0.408   0.919  44.078 -1.8060 -2.1897 -1.0390
 1510TIP3    H226022   0.522   0.970  43.993 -1.5804  0.0508  0.5162
 1511TIP3   OH226023   1.900   2.423   4.997 -0.4015  0.1718  0.4311
 1511TIP3    H126024   1.927   2.476   5.072  3.5458  0.4378 -0.9379
 1511TIP3    H226025   1.941   2.338   5.013  0.9837  0.4055 -1.6021
 1512TIP3   OH226026   3.156   1.762   8.093 -0.6842  0.4744 -0.0501
 1512TIP3    H126027   3.126   1.687   8.041 -0.5250 -0.1468  0.7345
 1512TIP3    H226028   3.204   1.817   8.031  1.2699 -1.2528 -0.1986
 1513TIP3   OH226029   4.034   4.068   5.473  0.3481 -0.1169  0.0674
 1513TIP3    H126030   4.129   4.072   5.482  0.4281  1.5972 -1.1883
 1513TIP3    H226031   4.013   3.975   5.483  2.2913 -0.7162 -0.9888
 1514TIP3   OH226032   1.175   3.793  24.685 -0.1605  0.2844 -0.2349
 1514TIP3    H126033   1.113   3.837  24.743 -0.1283 -1.3300  1.0908
 1514TIP3    H226034   1.200   3.860  24.621  1.1306  2.6960  2.5826
 1515TIP3   OH226035   1.518   3.079  13.128 -0.0706  0.2004  0.2353
 1515TIP3    H126036   1.543   3.088  13.036 -1.8050  3.1147 -0.1025
 1515TIP3    H226037   1.469   3.160  13.147 -0.0232 -0.4296  3.6457
 1516TIP3   OH226038   3.492   0.300  33.499 -0.3343 -0.3664 -0.3805
 1516TIP3    H126039   3.574   0.320  33.452 -0.1908  0.1895  0.1003
 1516TIP3    H226040   3.521   0.266  33.583 -0.5548  2.3790  0.8979
 1517TIP3   OH226041   2.720   0.797  25.038 -0.4830 -0.1986 -0.3962
 1517TIP3    H126042   2.657   0.729  25.063 -0.6207 -0.5269 -1.5692
 1517TIP3    H226043   2.736   0.846  25.118 -1.0998 -1.0400  0.2542
 1518TIP3   OH226044   0.218   0.345  32.975  0.0610  0.2320 -0.1357
 1518TIP3    H126045   0.230   0.409  32.905 -2.2518 -0.0022 -0.8203
 1518TIP3    H226046   0.269   0.268  32.947 -1.8724 -0.3577 -2.3055
 1519TIP3   OH226047   1.022   0.754  15.246 -0.1945 -0.0126  0.4112
 1519TIP3    H126048   1.094   0.718  15.297  1.5466  1.9382 -0.5415
 1519TIP3    H226049   0.967   0.798  15.310  0.4154 -0.0102  0.9445
 1520TIP3   OH226050   2.269   1.585  33.801 -0.0556 -1.0173  0.1330
 1520TIP3    H126051   2.299   1.500  33.768  3.3473 -0.2897  0.9788
 1520TIP3    H226052   2.325   1.603  33.876  1.0031  2.9300 -1.3374
 1521TIP3   OH226053   2.249   1.727  39.235 -0.7314 -0.2544  0.5333
 1521TIP3    H126054   2.291   1.723  39.321  1.9157  0.8412 -0.6082
 1521TIP3    H226055   2.174   1.784  39.248 -1.9302 -2.1297  2.6269
 1522TIP3   OH226056   3.555   1.941  40.824 -0.2077 -0.0980 -0.2874
 1522TIP3    H126057   3.491   2.001  40.861 -0.1642 -0.1583 -0.1100
 1522TIP3    H226058   3.514   1.855  40.831 -0.0650 -0.1502 -0.0709
 1523TIP3   OH226059   0.855   3.805  30.264  0.1908 -0.3430  0.4142
 1523TIP3    H126060   0.786   3.857  30.222  0.8854  0.1243 -0.1756
 1523TIP3    H226061   0.809   3.728  30.298 -0.2202 -1.4704 -2.4338
 1524TIP3   OH226062   2.239   1.630  41.615  0.3117  0.7910 -0.2872
 1524TIP3    H126063   2.188   1.560  41.657 -2.0715  1.6471 -1.5996
 1524TIP3    H226064   2.308   1.584  41.567 -0.1710 -0.5269  0.2350
 1525TIP3   OH226065   0.299   0.993  40.382  0.9129  0.5526  0.4738
 1525TIP3    H126066   0.329   1.001  40.472  0.9669  0.6874  0.4454
 1525TIP3    H226067   0.272   1.082  40.358 -2.5827 -0.0638  1.5714
 1526TIP3   OH226068   1.430   2.488  43.120 -0.6944 -0.1264 -0.2037
 1526TIP3    H126069   1.402   2.547  43.050  0.7734 -0.5800 -1.2349
 1526TIP3    H226070   1.486   2.543  43.176 -0.6439 -0.1370 -0.2432
 1527TIP3   OH226071   1.070   0.927   0.878 -0.1522 -0.5268 -0.7607
 1527TIP3    H126072   1.164   0.933   0.862 -0.2124 -0.1951 -0.9884
 1527TIP3    H226073   1.062   0.860   0.947  0.4453  1.1218  1.0026
 1528TIP3   OH226074   2.260   0.097  12.632  0.4449  0.2522  0.3681
 1528TIP3    H126075   2.344   0.140  12.618  0.6053 -0.2004 -0.0875
 1528TIP3    H226076   2.276   0.035  12.703  0.9156 -0.9216 -0.7118
 1529TIP3   OH226077   3.118   3.408  45.415 -0.3351 -0.2752 -0.7137
 1529TIP3    H126078   3.064   3.415  45.336 -1.5793 -0.3062  0.0964
 1529TIP3    H226079   3.147   3.316  45.417 -0.0778 -0.2066 -1.2658
 1530TIP3   OH226080   0.081   3.860  36.140  0.0648 -0.5392 -0.3554
 1530TIP3    H126081   0.076   3.792  36.073 -0.4281  0.4576 -1.3672
 1530TIP3    H226082   0.107   3.939  36.092 -1.1345  0.3890  0.4808
 1531TIP3   OH226083   3.112   1.686  41.330 -0.3020  0.0943  0.2589
 1531TIP3    H126084   3.036   1.738  41.355 -0.3122  0.5739 -0.7019
 1531TIP3    H226085   3.172   1.695  41.404 -1.5667 -1.1555  1.5039
 1532TIP3   OH226086   0.477   0.021  33.173 -0.0674  0.2105 -0.1722
 1532TIP3    H126087   0.423   0.070  33.110  0.0274  1.0266  0.3607
 1532TIP3    H226088   0.432   0.032  33.257  1.7558  2.3354  0.6251
 1533TIP3   OH226089   3.004   0.348  43.447  0.5266  0.4148  0.0891
 1533TIP3    H126090   3.004   0.424  43.505  1.0222  1.9688 -1.8507
 1533TIP3    H226091   3.088   0.353  43.401 -0.2717 -0.1468 -1.5066
 1534TIP3   OH226092   4.006   2.940  12.908  0.5780  1.0430 -0.3209
 1534TIP3    H126093   3.996   3.020  12.857 -1.5825 -0.2406 -2.0674
 1534TIP3    H226094   3.931   2.886  12.883  1.1330 -0.9297  1.9440
 1535TIP3   OH226095   1.624   0.452  46.590  0.6077 -0.0058 -0.2333
 1535TIP3    H126096   1.715   0.483  46.594  0.1862  1.1592  1.3149
 1535TIP3    H226097   1.610   0.409  46.675  0.0549 -1.2607 -0.9384
 1536TIP3   OH226098   0.106   0.440  46.759 -0.0473  0.1726  0.0754
 1536TIP3    H126099   0.053   0.515  46.785  0.5565 -0.0908  2.2449
 1536TIP3    H226100   0.075   0.418  46.671 -3.2968  0.2414  1.0835
 1537TIP3   OH226101   0.500   0.808  42.188 -0.0388 -0.5709 -0.5708
 1537TIP3    H126102   0.477   0.835  42.099  2.4220  1.7738 -0.6188
 1537TIP3    H226103   0.555   0.730  42.176 -1.8154 -1.8264 -0.8708
 1538TIP3   OH226104   0.200   0.686   0.444  0.3164  0.0278  0.6199
 1538TIP3    H126105   0.226   0.772   0.476 -1.6630  1.3069 -0.9155
 1538TIP3    H226106   0.210   0.692   0.348 -0.9141 -1.0303  0.3989
 1539TIP3   OH226107   3.764   1.859  15.737  0.1206 -0.1944  0.5535
 1539TIP3    H126108   3.771   1.899  15.651 -1.5360  0.6350  0.7659
 1539TIP3    H226109   3.841   1.890  15.785  0.6312 -0.0276 -0.3573
 1540TIP3   OH226110   3.566   2.684  40.951  0.0223  0.7513  0.3944
 1540TIP3    H126111   3.625   2.610  40.946  2.1762  2.4262 -0.6875
 1540TIP3    H226112   3.593   2.732  41.030 -1.9661 -0.0114  1.6355
 1541TIP3   OH226113   1.599   2.660  35.939 -0.1381  0.1183  0.4668
 1541TIP3    H126114   1.691   2.634  35.933 -0.2411 -0.0710 -0.6134
 1541TIP3    H226115   1.563   2.604  36.007  0.3552 -0.4384  0.2822
 1542TIP3   OH226116   2.738   2.867  12.524 -0.3483  0.6026 -0.6502
 1542TIP3    H126117   2.724   2.799  12.457 -3.0932 -1.7679  1.9977
 1542TIP3    H226118   2.818   2.840  12.569  0.1491  0.8032 -1.3928
 1543TIP3   OH226119   3.776   0.191   2.471  0.7165 -0.5862 -0.3063
 1543TIP3    H126120   3.852   0.169   2.524  0.3858  0.1638  0.4984
 1543TIP3    H226121   3.762   0.284   2.485 -0.5807 -0.7806 -0.1277
 1544TIP3   OH226122   0.727   3.608  41.770  0.1852  0.6245  0.4314
 1544TIP3    H126123   0.717   3.596  41.864  1.7240  0.1765  0.5674
 1544TIP3    H226124   0.688   3.694  41.753 -2.5672 -0.4289  0.9810
 1545TIP3   OH226125   1.504   0.784   7.302  0.1667 -0.7534 -0.4004
 1545TIP3    H126126   1.533   0.820   7.386 -1.7411 -1.6187  0.6858
 1545TIP3    H226127   1.582   0.788   7.247  1.3483  0.3184  1.2278
 1546TIP3   OH226128   2.190   1.312  42.357  0.5367 -0.2374  0.3915
 1546TIP3    H126129   2.190   1.408  42.349  0.8093 -0.3466 -1.1361
 1546TIP3    H226130   2.283   1.289  42.358  0.7053 -0.7719 -4.2905
 1547TIP3   OH226131   0.576   0.006  14.453 -0.3421 -0.0408  0.7116
 1547TIP3    H126132   0.636   0.076  14.478 -0.2444 -0.4220  1.5889
 1547TIP3    H226133   0.501   0.018  14.512 -2.2124  1.8124 -1.8066
 1548TIP3   OH226134   3.582   2.278  47.527  0.0565  0.4692 -0.5595
 1548TIP3    H126135   3.653   2.254  47.586 -0.6190  1.3489  0.6616
 1548TIP3    H226136   3.502   2.266  47.579 -0.5029  2.0726 -0.9644
 1549TIP3   OH226137   3.551   2.994   7.324  0.1504  0.0528 -0.5826
 1549TIP3    H126138   3.622   3.058   7.315  0.5459 -0.4339 -0.9949
 1549TIP3    H226139   3.596   2.911   7.342 -0.2952 -0.2939 -1.0336
 1550TIP3   OH226140   3.125   0.946   2.323 -0.4049  0.3237  0.1362
 1550TIP3    H126141   3.168   0.955   2.408 -2.7260  2.6966  1.2346
 1550TIP3    H226142   3.033   0.934   2.344 -0.7551 -1.7318 -2.1068
 1551TIP3   OH226143   0.500   3.188   7.598  0.7044  0.2971 -0.3709
 1551TIP3    H126144   0.565   3.119   7.592  2.3241  1.6128  1.1225
 1551TIP3    H226145   0.418   3.142   7.618  1.2372 -1.3322 -1.6855
 1552TIP3   OH226146   3.614   3.518  32.089 -0.0459  0.1852  0.2526
 1552TIP3    H126147   3.622   3.582  32.018  0.5181 -0.8483 -0.6403
 1552TIP3    H226148   3.618   3.570  32.168  0.4889  1.2605 -0.4577
 1553TIP3   OH226149   3.315   2.352   1.225  0.1986 -0.6624 -0.5914
 1553TIP3    H126150   3.288   2.291   1.156 -2.2204  0.0202 -0.3646
 1553TIP3    H226151   3.244   2.347   1.290  2.0981 -0.8284  1.5812
 1554TIP3   OH226152   0.385   0.291  34.942 -0.1576  0.2582 -0.2745
 1554TIP3    H126153   0.360   0.250  34.859 -0.4449  1.2407 -0.6922
 1554TIP3    H226154   0.450   0.232  34.979 -0.8119 -0.7529 -0.6804
 1555TIP3   OH226155   1.784   3.865   6.263  0.0983  0.0673 -0.0502
 1555TIP3    H126156   1.875   3.842   6.280  0.3291 -0.7204 -2.0777
 1555TIP3    H226157   1.786   3.909   6.178 -1.2746  1.1170  0.4268
 1556TIP3   OH226158   2.944   0.747  32.149  0.4328  0.2002  0.3366
 1556TIP3    H126159   3.031   0.738  32.188  1.5667  1.6034 -1.6968
 1556TIP3    H226160   2.917   0.657  32.129  1.6749 -0.2212  0.4696
 1557TIP3   OH226161   3.729   1.171  13.065 -0.1702 -0.5241  0.4954
 1557TIP3    H126162   3.755   1.081  13.045  3.1839  0.4814 -0.3229
 1557TIP3    H226163   3.636   1.175  13.043 -0.2600 -3.5846 -0.0534
 1558TIP3   OH226164   3.297   3.676  42.650  0.0808 -1.3142  0.0782
 1558TIP3    H126165   3.256   3.652  42.567  0.7721 -2.3852  0.0332
 1558TIP3    H226166   3.384   3.708  42.625 -0.6972  1.0586  0.1594
 1559TIP3   OH226167   0.731   2.989  37.945  0.0785  0.1576 -0.0966
 1559TIP3    H126168   0.736   3.084  37.947 -0.8994  0.2157  1.4642
 1559TIP3    H226169   0.727   2.967  37.852 -3.0445  1.8837 -0.5232
 1560TIP3   OH226170   2.527   3.420  10.848  0.9042 -0.3656  0.1489
 1560TIP3    H126171   2.456   3.463  10.801  2.0300  0.4381 -0.8698
 1560TIP3    H226172   2.483   3.353  10.901 -0.7892  1.3382  1.0182
 1561TIP3   OH226173   1.888   2.267  12.637  0.1791 -0.0517 -0.2060
 1561TIP3    H126174   1.859   2.320  12.711  2.2471  1.4319 -0.3449
 1561TIP3    H226175   1.866   2.319  12.560  1.4924  0.2805 -0.3907
 1562TIP3   OH226176   1.909   3.602  13.296 -0.3550 -0.2778  0.4708
 1562TIP3    H126177   1.871   3.516  13.318 -0.0643 -0.7819 -0.9266
 1562TIP3    H226178   1.988   3.581  13.248 -0.8883  0.7717 -0.8993
 1563TIP3   OH226179   2.118   1.276  46.684  0.0023 -0.1834  0.3029
 1563TIP3    H126180   2.123   1.212  46.755  1.4974  1.5162  1.8540
 1563TIP3    H226181   2.077   1.353  46.724 -0.2431  0.4174 -1.0408
 1564TIP3   OH226182   2.236   2.682  42.187  0.0620 -0.2143 -0.2835
 1564TIP3    H126183   2.262   2.754  42.129 -0.2724  1.4699  1.5079
 1564TIP3    H226184   2.154   2.713  42.227  1.2992 -0.2750  2.5755
 1565TIP3   OH226185   1.753   1.302   3.287  0.4007 -0.0597  0.5300
 1565TIP3    H126186   1.707   1.385   3.300  2.5013  0.9455  2.3168
 1565TIP3    H226187   1.714   1.242   3.350 -0.7047 -0.2825 -0.3371
 1566TIP3   OH226188   1.492   0.774  34.865 -0.0273  0.1525 -0.2671
 1566TIP3    H126189   1.449   0.701  34.909  2.1826 -0.4183  1.0942
 1566TIP3    H226190   1.456   0.852  34.907  0.7452 -0.3292  1.3806
 1567TIP3   OH226191   1.972   3.109  42.997  0.2670  0.3048  0.1642
 1567TIP3    H126192   1.902   3.056  42.958  0.2436 -0.0684  0.7020
 1567TIP3    H226193   1.976   3.187  42.942 -1.4524  0.9346  0.8468
 1568TIP3   OH226194   2.010   0.846  15.466 -0.1366  0.4846 -0.4567
 1568TIP3    H126195   2.012   0.750  15.475  2.7606  0.4764 -0.3582
 1568TIP3    H226196   1.995   0.878  15.555  0.6031  0.1359 -0.2050
 1569TIP3   OH226197   0.240   3.415  43.915 -0.1201 -0.3547 -0.2259
 1569TIP3    H126198   0.292   3.357  43.860 -0.1002  1.4772 -2.2655
 1569TIP3    H226199   0.273   3.503  43.895 -1.4003  0.5341  1.3349
 1570TIP3   OH226200   1.802   3.954  13.666  0.8253 -0.2435 -0.4037
 1570TIP3    H126201   1.795   4.017  13.594  0.8417  1.6158  1.1447
 1570TIP3    H226202   1.858   3.997  13.730  1.3762 -2.1366  0.4492
 1571TIP3   OH226203   0.717   0.359  32.573 -0.5883 -0.1583  0.0158
 1571TIP3    H126204   0.790   0.418  32.552 -1.1485  0.8541  0.8188
 1571TIP3    H226205   0.674   0.343  32.489 -1.0264  1.4342 -0.1004
 1572TIP3   OH226206   0.110   1.284   5.481 -0.4852  0.6074 -0.1747
 1572TIP3    H126207   0.145   1.371   5.459  1.1847  0.4799  1.6163
 1572TIP3    H226208   0.169   1.223   5.437  0.9970  0.4037  1.9144
 1573TIP3   OH226209   2.834   3.097  46.073 -0.0903 -0.3811  0.2054
 1573TIP3    H126210   2.832   3.093  46.168 -2.4624  1.3498  0.3147
 1573TIP3    H226211   2.744   3.117  46.047  0.8784  1.4990 -2.2381
 1574TIP3   OH226212   0.423   2.159  40.443  0.3009 -0.3329 -0.0131
 1574TIP3    H126213   0.498   2.185  40.497  1.6009 -0.1722 -1.8097
 1574TIP3    H226214   0.359   2.126  40.506  0.9503  1.6438  1.8014
 1575TIP3   OH226215   1.902   2.998   6.076  0.3272  0.0259  0.0299
 1575TIP3    H126216   1.955   3.077   6.083 -0.3823  0.7856 -2.3810
 1575TIP3    H226217   1.943   2.948   6.005 -1.9509  0.5378 -1.7507
 1576TIP3   OH226218   0.476   1.182  17.011  0.1335 -0.3422 -0.0846
 1576TIP3    H126219   0.522   1.255  16.968  0.0952  0.8092  1.7168
 1576TIP3    H226220   0.539   1.149  17.075 -0.0610 -1.5751 -0.4928
 1577TIP3   OH226221   0.947   4.003   8.469  0.3325 -0.5949  0.2587
 1577TIP3    H126222   0.863   4.016   8.424  1.3791  0.7599 -1.4236
 1577TIP3    H226223   0.954   3.908   8.480 -1.7884 -0.6923  1.2200
 1578TIP3   OH226224   1.270   1.752  39.488  0.1204  0.0417 -0.2141
 1578TIP3    H126225   1.267   1.846  39.470 -0.7112  0.2000  0.6870
 1578TIP3    H226226   1.245   1.711  39.405  0.7791  0.5894 -0.7000
 1579TIP3   OH226227   3.612   2.501  11.798  0.1921  0.1703 -0.3173
 1579TIP3    H126228   3.615   2.427  11.859 -0.6386  1.9495  2.0501
 1579TIP3    H226229   3.701   2.510  11.766  0.2723 -1.9205 -0.8069
 1580TIP3   OH226230   4.100   0.927  33.710  0.4120 -0.0249 -0.4537
 1580TIP3    H126231   4.059   0.842  33.725  0.6066 -0.0195  0.1759
 1580TIP3    H226232   4.187   0.919  33.750  0.6283  0.2971 -0.8530
 1581TIP3   OH226233   2.831   3.748   9.811  0.0015 -0.1406  0.8341
 1581TIP3    H126234   2.874   3.798   9.742 -1.9397 -0.0377 -0.3977
 1581TIP3    H226235   2.765   3.808   9.847 -1.0750 -1.1594  0.6412
 1582TIP3   OH226236   1.025   3.168  45.809 -0.7449  0.2454  0.4127
 1582TIP3    H126237   1.009   3.079  45.840  0.9508  0.2082  1.2797
 1582TIP3    H226238   1.064   3.157  45.722  1.2194  0.0248  1.2823
 1583TIP3   OH226239   0.617   0.291   4.204  0.2674  0.8437 -0.1852
 1583TIP3    H126240   0.569   0.214   4.172 -0.1950  1.3115 -0.6506
 1583TIP3    H226241   0.548   0.351   4.232  0.6527  0.6575  1.2262
 1584TIP3   OH226242   0.645   1.442   0.483  0.4057 -0.3056  0.1706
 1584TIP3    H126243   0.577   1.375   0.484  1.3614 -1.3477  2.1780
 1584TIP3    H226244   0.604   1.520   0.518  0.4007 -1.1922  2.3083
 1585TIP3   OH226245   0.210   1.561  45.182  0.4646  0.1685 -0.0484
 1585TIP3    H126246   0.166   1.646  45.181  0.3067  0.0895  0.1523
 1585TIP3    H226247   0.233   1.544  45.091  1.2116  0.8060  0.0034
 1586TIP3   OH226248   2.430   1.065   2.844  0.0492  0.4043 -0.5762
 1586TIP3    H126249   2.516   1.104   2.861  0.4118 -0.2352 -0.9013
 1586TIP3    H226250   2.446   0.970   2.846 -1.0626  0.1896  1.5910
 1587TIP3   OH226251   3.399   3.244   0.108 -0.1252 -0.1556  0.0660
 1587TIP3    H126252   3.455   3.225   0.033  0.5620 -0.1859  0.5687
 1587TIP3    H226253   3.448   3.309   0.158 -0.5430 -0.1821  0.5211
 1588TIP3   OH226254   1.979   2.463   0.225  0.3790 -0.3650  0.0689
 1588TIP3    H126255   1.913   2.523   0.262  0.7172  0.5918 -0.8175
 1588TIP3    H226256   1.992   2.397   0.293 -0.9544 -0.1606  0.5588
 1589TIP3   OH226257   2.990   1.078   4.138  0.2099  0.2579 -0.8176
 1589TIP3    H126258   2.987   0.984   4.120 -0.6543 -0.0690  0.8780
 1589TIP3    H226259   3.082   1.102   4.127  0.4124 -0.7477 -1.3913
 1590TIP3   OH226260   2.365   3.950  27.284 -0.5908 -0.3754 -0.1006
 1590TIP3    H126261   2.348   3.876  27.227  0.0348 -0.4048 -0.2557
 1590TIP3    H226262   2.354   4.027  27.228  0.8702 -0.4323 -0.4986
 1591TIP3   OH226263   2.607   1.968  35.978 -0.7927  0.7011  0.0180
 1591TIP3    H126264   2.666   1.901  36.013 -0.4181  0.1146 -1.6239
 1591TIP3    H226265   2.520   1.926  35.978 -0.8427  0.8078  0.5099
 1592TIP3   OH226266   3.964   3.634  47.368 -0.2939 -0.1411 -0.1794
 1592TIP3    H126267   3.978   3.725  47.341  1.5152 -0.0858  0.7595
 1592TIP3    H226268   3.999   3.631  47.457 -1.2206 -1.5377  0.1550
 1593TIP3   OH226269   1.391   3.984  39.280 -0.2195  0.3499 -0.7591
 1593TIP3    H126270   1.401   3.984  39.185 -0.7081  1.8818 -0.8264
 1593TIP3    H226271   1.297   3.988  39.294 -0.1416  0.3178 -0.2039
 1594TIP3   OH226272   3.395   1.076  36.772  0.0431 -0.5072  0.2978
 1594TIP3    H126273   3.426   1.136  36.705 -0.2355 -0.3664  0.2921
 1594TIP3    H226274   3.316   1.118  36.807 -0.7367 -1.3451 -0.4041
 1595TIP3   OH226275   3.195   1.465  40.375 -0.1787 -0.3270  0.0636
 1595TIP3    H126276   3.157   1.385  40.338 -0.1516 -1.2737  1.9627
 1595TIP3    H226277   3.263   1.490  40.313 -1.1771 -0.9288 -1.3262
 1596TIP3   OH226278   0.099   1.884  44.081  0.4853  0.1557 -0.6004
 1596TIP3    H126279   0.026   1.873  44.142 -0.2068  0.2155 -1.4079
 1596TIP3    H226280   0.177   1.877  44.136 -0.0230 -2.4463 -0.0794
 1597TIP3   OH226281   0.996   3.830  34.851  0.2047 -0.5233  0.4859
 1597TIP3    H126282   0.942   3.764  34.807 -0.3128  1.1407 -1.5272
 1597TIP3    H226283   1.085   3.813  34.821  0.0824 -0.3703  0.0316
 1598TIP3   OH226284   3.774   3.269  32.821 -0.2800 -0.4362 -0.2893
 1598TIP3    H126285   3.701   3.279  32.882 -0.3799  0.4054 -0.5453
 1598TIP3    H226286   3.837   3.215  32.869 -1.2725 -1.6343 -0.2531
 1599TIP3   OH226287   1.266   0.552  33.527 -0.0726  1.0186  0.4978
 1599TIP3    H126288   1.344   0.569  33.476 -1.0024 -2.6630 -2.6274
 1599TIP3    H226289   1.298   0.535  33.616  1.9243  4.6483  0.6499
 1600TIP3   OH226290   2.647   1.287  40.202 -0.0508 -0.6082  0.0671
 1600TIP3    H126291   2.729   1.272  40.155 -0.1063 -1.4692  0.2175
 1600TIP3    H226292   2.598   1.346  40.146  0.4610 -0.4945 -0.2753
 1601TIP3   OH226293   1.913   2.406  13.087 -0.4426 -0.3150 -0.3909
 1601TIP3    H126294   1.964   2.395  13.168 -2.1381  1.6838  1.0748
 1601TIP3    H226295   1.975   2.446  13.025  0.7270 -1.3015  0.1038
 1602TIP3   OH226296   1.700   1.510  44.696 -0.5684  0.2599  0.3400
 1602TIP3    H126297   1.788   1.544  44.711  0.4512 -1.5948 -0.9788
 1602TIP3    H226298   1.643   1.571  44.741  1.2734  2.3759  0.0091
 1603TIP3   OH226299   3.018   2.546  43.258  0.2201 -0.2614 -0.5310
 1603TIP3    H126300   3.013   2.591  43.174  0.5896  1.3047  0.2500
 1603TIP3    H226301   3.049   2.612  43.319 -0.6964 -1.1817  0.9954
 1604TIP3   OH226302   0.608   3.625   9.428  0.4884 -0.2898  0.3012
 1604TIP3    H126303   0.603   3.630   9.524  1.5857  0.4783  0.3410
 1604TIP3    H226304   0.699   3.602   9.410  0.8155  1.5071 -0.5818
 1605TIP3   OH226305   0.602   3.704  27.506  0.0169  0.1533 -0.0026
 1605TIP3    H126306   0.691   3.702  27.471 -0.0653 -0.7220 -0.1710
 1605TIP3    H226307   0.568   3.616  27.491 -1.4176  0.8828 -1.2997
 1606TIP3   OH226308   3.576   3.026  45.247  0.0598  0.1096 -0.2150
 1606TIP3    H126309   3.583   2.957  45.181 -1.3783 -1.1544  0.8885
 1606TIP3    H226310   3.643   3.004  45.311 -1.4520 -1.2601  0.9595
 1607TIP3   OH226311   2.620   3.483  38.206  0.5778  0.1860  0.0055
 1607TIP3    H126312   2.529   3.456  38.216  0.0922  2.2704  1.7523
 1607TIP3    H226313   2.616   3.564  38.156  1.4665  0.3267  0.1518
 1608TIP3   OH226314   1.145   2.680  47.709 -0.1754  0.3373  0.3772
 1608TIP3    H126315   1.199   2.759  47.708 -0.6643  0.6941  1.0533
 1608TIP3    H226316   1.082   2.692  47.639 -0.0997  0.4388  0.3260
 1609TIP3   OH226317   1.566   0.142  37.859 -0.5276  0.1946  0.1858
 1609TIP3    H126318   1.620   0.064  37.845 -0.2609  0.5578 -0.8432
 1609TIP3    H226319   1.480   0.118  37.824 -0.4138  0.3966 -0.2374
 1610TIP3   OH226320   0.338   3.384  36.304  0.3280  0.2380  0.5580
 1610TIP3    H126321   0.302   3.439  36.234 -2.1837 -0.0570  1.5356
 1610TIP3    H226322   0.415   3.343  36.264  0.1030  1.5515 -1.3954
 1611TIP3   OH226323   1.744   3.763  29.917  0.0432  0.8917 -0.1608
 1611TIP3    H126324   1.753   3.847  29.963 -1.0672  2.0606 -1.9463
 1611TIP3    H226325   1.791   3.776  29.835 -1.2195  0.2503 -1.0136
 1612TIP3   OH226326   3.738   1.956   6.774 -0.0361  0.5413 -0.4755
 1612TIP3    H126327   3.707   1.871   6.807 -0.5006  0.3835 -1.3058
 1612TIP3    H226328   3.815   1.935   6.721 -0.8083  0.5090 -1.5995
 1613TIP3   OH226329   3.533   3.054  45.554  0.3779  0.2789  0.3130
 1613TIP3    H126330   3.553   3.132  45.606 -0.5842  0.3361  0.6040
 1613TIP3    H226331   3.468   3.083  45.490  1.8843  0.3346 -1.2941
 1614TIP3   OH226332   0.456   3.345  10.698 -0.2663 -0.4237  0.0896
 1614TIP3    H126333   0.511   3.267  10.706 -0.2993 -0.4850 -0.2689
 1614TIP3    H226334   0.374   3.322  10.741 -0.4326 -0.7380 -0.3839
 1615TIP3   OH226335   0.662   3.470  39.414 -1.0835 -1.0264  0.1071
 1615TIP3    H126336   0.663   3.413  39.491  0.2411  0.4924  1.2952
 1615TIP3    H226337   0.751   3.463  39.378 -0.8726  0.2881  0.3124
 1616TIP3   OH226338   2.989   1.133  33.430 -0.2329  0.1129  0.1418
 1616TIP3    H126339   3.067   1.127  33.375  0.0719 -0.9694  0.6739
 1616TIP3    H226340   2.944   1.050  33.418 -2.1437  1.2893 -1.3312
 1617TIP3   OH226341   1.569   0.511  10.282  0.1435 -0.6404  0.4786
 1617TIP3    H126342   1.518   0.592  10.276  0.0863 -0.6192  1.1143
 1617TIP3    H226343   1.613   0.503  10.198 -1.0474 -0.7453 -0.1473
 1618TIP3   OH226344   2.270   3.133   0.465 -0.4561 -0.1829 -0.4587
 1618TIP3    H126345   2.274   3.118   0.370  0.5454  0.0520 -0.4598
 1618TIP3    H226346   2.276   3.046   0.503 -5.1989 -0.8291 -0.6362
 1619TIP3   OH226347   0.068   1.641  17.784 -0.2422  0.0024 -0.5334
 1619TIP3    H126348   0.066   1.737  17.788  1.9544  0.0923 -0.3206
 1619TIP3    H226349   0.072   1.621  17.691 -3.1519 -0.0507 -0.7366
 1620TIP3   OH226350   3.259   3.630  26.262  0.1157  0.3805 -0.2548
 1620TIP3    H126351   3.181   3.577  26.247 -1.0491  0.3408  4.3980
 1620TIP3    H226352   3.331   3.568  26.256 -0.8066 -0.8465  0.8596
 1621TIP3   OH226353   3.943   0.012  11.685  0.2384  0.2612  0.3937
 1621TIP3    H126354   3.961  -0.073  11.724 -1.9151 -0.5719 -0.3255
 1621TIP3    H226355   3.966   0.001  11.593  0.2725  0.5623  0.3657
 1622TIP3   OH226356   1.263   2.046   7.410  0.1637  0.4674 -0.3319
 1622TIP3    H126357   1.241   2.138   7.395  0.1725  0.8640  1.7599
 1622TIP3    H226358   1.310   2.046   7.494  0.9387 -1.3535 -0.7123
 1623TIP3   OH226359   3.213   0.760  37.655 -0.4157 -0.5952 -0.0365
 1623TIP3    H126360   3.175   0.685  37.609 -2.1584 -0.1225  0.5680
 1623TIP3    H226361   3.198   0.742  37.748  1.7655 -0.8436  0.3136
 1624TIP3   OH226362   3.621   2.339  42.003  0.0285  0.1779 -0.0810
 1624TIP3    H126363   3.612   2.426  41.964  3.1092  0.3110 -0.7363
 1624TIP3    H226364   3.715   2.320  42.000 -0.4770 -3.0532  0.3730
 1625TIP3   OH226365   2.664   0.682  43.434 -0.3231  0.4054 -0.7541
 1625TIP3    H126366   2.596   0.614  43.445  1.3233 -1.3236 -0.7021
 1625TIP3    H226367   2.680   0.714  43.522 -1.6508  1.4818 -0.8667
 1626TIP3   OH226368   2.962   1.790  35.548  0.3675  0.5227  0.0104
 1626TIP3    H126369   2.878   1.785  35.595  0.2482  0.0562 -0.2498
 1626TIP3    H226370   2.971   1.705  35.506  0.7259  0.7561 -0.3904
 1627TIP3   OH226371   0.345   0.741  45.838 -0.0741  0.3150 -0.0903
 1627TIP3    H126372   0.385   0.753  45.924  1.3199  0.8558 -0.7927
 1627TIP3    H226373   0.419   0.740  45.777 -1.0960  0.8144 -1.3839
 1628TIP3   OH226374   3.048   0.335  27.899 -0.1970 -1.1019 -0.1728
 1628TIP3    H126375   3.042   0.304  27.809 -0.4006  0.3521 -0.6991
 1628TIP3    H226376   2.985   0.407  27.905 -0.6568 -1.5875  1.3277
 1629TIP3   OH226377   1.780   3.724  27.176 -0.6814  0.2610  0.0243
 1629TIP3    H126378   1.720   3.664  27.218  1.5783 -1.2465  1.3394
 1629TIP3    H226379   1.820   3.772  27.248 -1.6783  2.6896 -0.9379
 1630TIP3   OH226380   2.420   2.026   4.899  0.6113 -0.5145  0.3378
 1630TIP3    H126381   2.479   1.951   4.885  1.7516  0.4572 -0.2187
 1630TIP3    H226382   2.441   2.086   4.827  1.7527  1.6221  2.3407
 1631TIP3   OH226383   1.954   0.990  42.934  0.0361 -0.5972 -0.3596
 1631TIP3    H126384   1.955   1.063  42.996  1.0026  1.6184 -2.7966
 1631TIP3    H226385   1.862   0.975  42.915 -0.1424  1.3095 -1.1942
 1632TIP3   OH226386   3.275   2.469  41.635  0.3032  0.2962 -0.7524
 1632TIP3    H126387   3.253   2.393  41.581  0.9027  0.3374 -1.0608
 1632TIP3    H226388   3.190   2.507  41.658 -0.0576 -1.0556  0.2641
 1633TIP3   OH226389   2.759   3.834  39.757  0.1281 -0.0211 -0.2899
 1633TIP3    H126390   2.773   3.740  39.770 -0.6296 -0.2316 -0.9516
 1633TIP3    H226391   2.819   3.857  39.686  0.9638  0.1948  0.4649
 1634TIP3   OH226392   1.063   0.408   1.256  0.2499 -0.4216 -0.3358
 1634TIP3    H126393   1.080   0.369   1.342  0.2790  1.3428  0.5139
 1634TIP3    H226394   0.968   0.400   1.245  0.1386  0.0232  0.2291
 1635TIP3   OH226395   3.442   0.357  47.451  0.1740  0.4749  0.0478
 1635TIP3    H126396   3.450   0.267  47.481  0.0413  0.2908 -0.4477
 1635TIP3    H226397   3.468   0.411  47.525 -1.2751  0.0771  0.8831
 1636TIP3   OH226398   1.021   1.153  10.500 -0.3042 -0.0863  0.1820
 1636TIP3    H126399   1.113   1.179  10.492 -0.3389 -0.1490 -0.4938
 1636TIP3    H226400   0.993   1.136  10.410 -0.9946 -0.0220  0.3777
 1637TIP3   OH226401   0.416   1.392  45.584  0.0240 -0.3370 -0.5802
 1637TIP3    H126402   0.418   1.296  45.579  1.1753 -0.2728 -1.5013
 1637TIP3    H226403   0.491   1.415  45.639 -0.5932  0.0263  0.1316
 1638TIP3   OH226404   0.603   1.599   9.932  0.1269 -0.0750  0.2775
 1638TIP3    H126405   0.518   1.558   9.952  0.3141 -1.4129 -1.4995
 1638TIP3    H226406   0.621   1.575   9.841  1.1195  2.5272 -0.2892
 1639TIP3   OH226407   0.032   1.223  16.892  0.1622 -0.0477 -0.4277
 1639TIP3    H126408   0.020   1.269  16.809 -1.7381 -0.5524 -0.4611
 1639TIP3    H226409  -0.030   1.151  16.890 -1.7301  1.2743  2.3939
 1640TIP3   OH226410   3.005   2.721  42.514  0.4128  0.0201 -0.1355
 1640TIP3    H126411   3.024   2.814  42.514  0.2421  0.0543 -0.2680
 1640TIP3    H226412   2.977   2.701  42.424 -3.0229  0.5542  0.6567
 1641TIP3   OH226413   3.030   2.958  13.129 -0.4637  0.0931 -0.5353
 1641TIP3    H126414   2.971   2.942  13.203  0.2264 -0.7935 -0.1508
 1641TIP3    H226415   3.008   2.890  13.065 -0.6107  0.4489 -0.8640
 1642TIP3   OH226416   1.083   1.180  35.640  0.2321  0.2614  0.6336
 1642TIP3    H126417   1.115   1.136  35.562 -1.1899 -1.1660  0.7926
 1642TIP3    H226418   0.992   1.201  35.620  0.2083  1.0171  1.4614
 1643TIP3   OH226419   3.208   3.500  37.177 -0.0816 -0.0584 -0.3870
 1643TIP3    H126420   3.208   3.414  37.218 -1.0574  0.3522  0.5336
 1643TIP3    H226421   3.168   3.558  37.242  0.3909  1.0578 -1.0587
 1644TIP3   OH226422   2.596   0.756  14.264  0.2688 -0.0601 -0.3014
 1644TIP3    H126423   2.629   0.730  14.350  2.5609  1.1335 -0.7343
 1644TIP3    H226424   2.655   0.716  14.201 -0.8173 -0.1559 -1.3088
 1645TIP3   OH226425   0.386   3.802  32.002 -0.5218 -0.1737 -0.7314
 1645TIP3    H126426   0.443   3.840  31.935 -1.0218  1.5907 -0.1975
 1645TIP3    H226427   0.398   3.708  31.992  1.0157  0.1025 -1.8962
 1646TIP3   OH226428   3.546   1.288   6.205  0.1120  0.0211 -0.3090
 1646TIP3    H126429   3.524   1.299   6.112  1.8337  0.8740 -0.6591
 1646TIP3    H226430   3.601   1.364   6.226 -2.1186  1.1500  2.0767
 1647TIP3   OH226431   3.747   3.294  25.733 -0.2005 -0.6488  0.0747
 1647TIP3    H126432   3.713   3.260  25.816 -0.8029  0.9366  0.5018
 1647TIP3    H226433   3.841   3.278  25.738 -0.4811 -2.4982  0.1191
 1648TIP3   OH226434   2.899   3.374   2.489 -0.4126  0.1186  0.2163
 1648TIP3    H126435   2.981   3.351   2.532  0.0073  1.5587  0.2208
 1648TIP3    H226436   2.884   3.465   2.512 -2.0040 -0.0954  0.1737
 1649TIP3   OH226437   0.431   1.345   6.018  0.0325 -0.1955  0.0022
 1649TIP3    H126438   0.472   1.410   5.960 -0.5492 -0.1347 -0.3532
 1649TIP3    H226439   0.485   1.266   6.008  1.0970  0.3953  0.8944
 1650TIP3   OH226440   1.909   0.479   1.642 -0.2165  0.3172  0.4288
 1650TIP3    H126441   1.944   0.421   1.710  1.3567 -0.1798 -0.7543
 1650TIP3    H226442   1.937   0.439   1.560 -0.8330  1.6892 -0.4756
 1651TIP3   OH226443   1.554   3.500  10.087 -0.7321  0.8332 -0.9198
 1651TIP3    H126444   1.573   3.406  10.076  0.6069  1.0756 -0.9042
 1651TIP3    H226445   1.631   3.534  10.133 -0.7267  2.1348 -1.8584
 1652TIP3   OH226446   3.355   2.253  16.027 -0.1450 -0.4549  0.0826
 1652TIP3    H126447   3.290   2.286  15.965  1.6488  0.0963 -1.5898
 1652TIP3    H226448   3.395   2.331  16.065 -0.5060 -0.7871  1.1861
 1653TIP3   OH226449   2.585   1.671   1.495 -0.6459  0.1743 -0.4378
 1653TIP3    H126450   2.525   1.597   1.500 -1.0265  0.4293 -1.0910
 1653TIP3    H226451   2.539   1.742   1.541  0.1566 -0.2581  1.0995
 1654TIP3   OH226452   2.026   1.971  38.570  0.0288  0.1880 -0.0237
 1654TIP3    H126453   1.950   1.984  38.513 -0.1938  1.2109  0.4755
 1654TIP3    H226454   2.024   2.046  38.630  0.9800 -0.1931  0.5102
 1655TIP3   OH226455   2.534   2.608  36.823  0.2851  0.5305 -0.6173
 1655TIP3    H126456   2.488   2.603  36.907  2.6924 -1.7058  0.7069
 1655TIP3    H226457   2.597   2.679  36.835  1.1032 -0.2380 -0.2043
 1656TIP3   OH226458   3.338   0.450   9.824  0.0612  0.0161 -0.3014
 1656TIP3    H126459   3.372   0.511   9.890 -1.1656  0.2706  0.1189
 1656TIP3    H226460   3.376   0.365   9.848 -1.2859 -0.1425  1.4996
 1657TIP3   OH226461   3.779   2.674  34.407 -0.2969  0.1714 -0.3567
 1657TIP3    H126462   3.695   2.628  34.407 -1.4422  2.0787  0.8421
 1657TIP3    H226463   3.810   2.668  34.317 -1.3726 -1.1901 -0.6583
 1658TIP3   OH226464   2.737   3.638   6.824  0.3190  0.6367 -0.1455
 1658TIP3    H126465   2.711   3.580   6.896 -2.1141  0.9828 -0.6574
 1658TIP3    H226466   2.816   3.597   6.787  0.2254 -0.8427  1.2006
 1659TIP3   OH226467   3.419   0.732  36.378  0.5048 -0.1010  0.1494
 1659TIP3    H126468   3.433   0.824  36.397 -1.3549  0.2339  0.0839
 1659TIP3    H226469   3.386   0.695  36.460  0.5218 -0.5528 -0.0417
 1660TIP3   OH226470   0.198   1.754   8.120 -0.4612 -0.3577  0.3696
 1660TIP3    H126471   0.222   1.847   8.128 -2.2176  0.1011  0.9069
 1660TIP3    H226472   0.270   1.714   8.072  0.2317  1.3339 -0.0658
 1661TIP3   OH226473   2.659   4.052  15.647  0.1242  0.0820  0.4308
 1661TIP3    H126474   2.655   3.972  15.595  0.9375  0.5681 -0.3933
 1661TIP3    H226475   2.582   4.102  15.620  1.7686  1.4212 -2.1784
 1662TIP3   OH226476   1.796   3.582  11.497 -0.0565  0.0401 -0.0332
 1662TIP3    H126477   1.870   3.623  11.451  0.0560 -0.4430 -0.2938
 1662TIP3    H226478   1.722   3.594  11.439  0.0032 -0.2322 -0.1667
 1663TIP3   OH226479   3.966   2.673  41.050 -0.5719  0.0169  0.4943
 1663TIP3    H126480   3.918   2.597  41.016 -1.3688  0.4059  0.7188
 1663TIP3    H226481   3.954   2.668  41.145  1.4486 -0.9362  0.7527
 1664TIP3   OH226482   1.425   2.006  45.605 -0.3802  0.2490  0.1399
 1664TIP3    H126483   1.519   2.015  45.592 -0.4374  2.1964  0.6690
 1664TIP3    H226484   1.386   2.031  45.521 -0.4535 -1.1218 -0.2663
 1665TIP3   OH226485   2.280   0.168  13.069  0.1572  0.0287  0.0371
 1665TIP3    H126486   2.319   0.106  13.008  0.2988 -0.1656  0.3205
 1665TIP3    H226487   2.185   0.162  13.053  0.2087  0.1292 -0.3016
 1666TIP3   OH226488   2.946   3.297   9.300 -0.0335 -0.4071  0.5559
 1666TIP3    H126489   2.975   3.376   9.255  2.3860 -0.1645  2.3170
 1666TIP3    H226490   2.873   3.327   9.356  0.6916  0.5604  1.0194
 1667TIP3   OH226491   1.815   3.604  31.980  0.2268  0.4037  0.1764
 1667TIP3    H126492   1.817   3.512  31.954 -0.5475  0.6876 -0.9954
 1667TIP3    H226493   1.747   3.609  32.046  0.4153  0.1014  0.3946
 1668TIP3   OH226494   0.842   1.697  42.325  0.1482  0.6202 -0.4381
 1668TIP3    H126495   0.826   1.790  42.336  0.7703  1.0428 -2.4939
 1668TIP3    H226496   0.938   1.690  42.321  0.1339 -0.2132  0.3562
 1669TIP3   OH226497   3.352   3.717  27.433  0.3896  0.0570  0.8431
 1669TIP3    H126498   3.339   3.732  27.339 -2.1797 -0.9849  0.9553
 1669TIP3    H226499   3.369   3.804  27.469  0.3713  0.6162 -0.4268
 1670TIP3   OH226500   3.527   0.105   0.821  0.7120  0.3516  0.1150
 1670TIP3    H126501   3.480   0.188   0.813 -0.0330 -0.0346  0.4910
 1670TIP3    H226502   3.552   0.101   0.913 -0.2406 -0.3727  0.3496
 1671TIP3   OH226503   2.807   3.208   9.710 -0.4240  0.7117 -0.4312
 1671TIP3    H126504   2.881   3.269   9.706 -0.7544  1.1623  0.0843
 1671TIP3    H226505   2.738   3.251   9.660 -0.0819 -0.0909 -1.6135
 1672TIP3   OH226506   2.123   0.776  32.482  0.3843  0.3042  0.6827
 1672TIP3    H126507   2.183   0.845  32.509  3.6983 -2.8678  2.4317
 1672TIP3    H226508   2.078   0.750  32.562 -2.7448  1.8443 -0.3955
 1673TIP3   OH226509   3.133   1.299   1.986  0.2211 -0.0823 -0.0282
 1673TIP3    H126510   3.207   1.289   1.927 -0.7997 -2.6213 -1.0292
 1673TIP3    H226511   3.056   1.300   1.929 -0.6628  0.4127  1.1031
 1674TIP3   OH226512   1.367   2.256  15.557  0.5656  0.1857  0.1034
 1674TIP3    H126513   1.364   2.262  15.652 -1.3036 -1.2930  0.2176
 1674TIP3    H226514   1.378   2.162  15.540  0.2254  0.3576 -1.1285
 1675TIP3   OH226515   1.796   3.617   1.405 -0.6513 -0.5982 -0.4655
 1675TIP3    H126516   1.788   3.712   1.411  0.9855 -0.3019 -2.0920
 1675TIP3    H226517   1.776   3.586   1.493 -1.4302  1.2277  0.0462
 1676TIP3   OH226518   1.197   3.980  28.787 -0.1863 -0.0986  0.4339
 1676TIP3    H126519   1.227   3.905  28.839  0.1061 -1.5660 -1.7011
 1676TIP3    H226520   1.270   4.041  28.789  0.3857 -0.7716  0.5762
 1677TIP3   OH226521   3.750   1.716  32.076  0.4518 -0.3981 -0.6910
 1677TIP3    H126522   3.675   1.701  32.019  0.4111  1.3368 -1.1474
 1677TIP3    H226523   3.721   1.685  32.162 -1.2900  1.3250 -0.5702
 1678TIP3   OH226524   0.105   1.994   6.604 -0.1961 -0.4401  0.0273
 1678TIP3    H126525   0.097   1.938   6.526  1.5895 -1.6243  0.6398
 1678TIP3    H226526   0.161   2.067   6.576  1.7134 -1.6398  0.5231
 1679TIP3   OH226527   1.445   2.073  10.331 -0.2076  0.2472  0.3213
 1679TIP3    H126528   1.504   2.093  10.403 -2.2031  0.8721  1.8771
 1679TIP3    H226529   1.405   1.989  10.356 -1.1385  0.6181  0.1269
 1680TIP3   OH226530   2.423   3.238  39.759 -0.0373 -0.2284  0.3444
 1680TIP3    H126531   2.510   3.223  39.795 -0.3689  1.4220  1.9363
 1680TIP3    H226532   2.377   3.289  39.825 -1.2864  1.3972 -1.6224
 1681TIP3   OH226533   1.494   1.749  21.291 -0.2537 -0.6161 -0.1890
 1681TIP3    H126534   1.407   1.737  21.253 -0.4464  1.4868 -0.5522
 1681TIP3    H226535   1.479   1.802  21.369  0.7875  1.2123 -1.1502
 1682TIP3   OH226536   3.894   0.347  43.700  0.4874  0.0737  0.2071
 1682TIP3    H126537   3.819   0.402  43.724  0.3562 -0.4560  1.0677
 1682TIP3    H226538   3.892   0.343  43.605 -0.7586 -0.1784  0.2309
 1683TIP3   OH226539   2.422   0.831   8.049  0.4845 -0.9852 -0.1037
 1683TIP3    H126540   2.404   0.906   8.106  0.0790 -0.9142 -0.3207
 1683TIP3    H226541   2.337   0.789   8.037  0.4531 -0.6611 -1.1190
 1684TIP3   OH226542   1.163   1.548  15.792 -0.0969 -0.2893  0.8062
 1684TIP3    H126543   1.126   1.594  15.868 -0.6092 -0.5544  0.7253
 1684TIP3    H226544   1.088   1.532  15.735  0.2136 -0.4780  0.4433
 1685TIP3   OH226545   0.519   1.939  37.513  0.3864  0.4229 -0.7454
 1685TIP3    H126546   0.529   2.010  37.577  2.4196  0.3030 -0.8554
 1685TIP3    H226547   0.466   1.873  37.558 -0.3576  1.4171 -0.1334
 1686TIP3   OH226548   2.543   2.630   3.441 -0.9380  0.4495  0.4246
 1686TIP3    H126549   2.557   2.717   3.478 -2.4101  0.1538  1.7773
 1686TIP3    H226550   2.490   2.644   3.363  1.1818  0.9694 -1.0185
 1687TIP3   OH226551   1.817   3.696   4.494 -0.1952 -0.3223  0.0079
 1687TIP3    H126552   1.769   3.739   4.423 -2.2233  0.4162  1.7333
 1687TIP3    H226553   1.890   3.756   4.514 -1.0106  0.6569  0.1126
 1688TIP3   OH226554   0.421   1.279   1.217  0.0881 -0.1031 -0.4680
 1688TIP3    H126555   0.402   1.231   1.298 -0.5508 -1.1951 -1.2515
 1688TIP3    H226556   0.508   1.249   1.192  0.1394 -0.0281 -0.3834
 1689TIP3   OH226557   2.845   3.434  31.391 -0.0503 -0.0337 -0.3178
 1689TIP3    H126558   2.930   3.416  31.352 -0.0801 -2.7528  0.6415
 1689TIP3    H226559   2.795   3.478  31.321  1.1584 -1.1256 -1.9452
 1690TIP3   OH226560   2.229   0.455  32.884  0.1649 -0.2380  0.2923
 1690TIP3    H126561   2.153   0.397  32.874  0.6566 -1.9061  4.2917
 1690TIP3    H226562   2.305   0.399  32.865  0.5554  0.8206 -1.5116
 1691TIP3   OH226563   2.219   2.738   6.720 -0.3663 -0.1377  0.0575
 1691TIP3    H126564   2.148   2.722   6.781  0.0741 -2.5473  0.0293
 1691TIP3    H226565   2.177   2.771   6.641 -0.9996  2.4278  1.3545
 1692TIP3   OH226566   2.661   3.756   0.962 -0.4052 -0.0603 -0.1306
 1692TIP3    H126567   2.694   3.793   1.043  0.7857  1.5372 -1.2723
 1692TIP3    H226568   2.618   3.829   0.918 -1.1659 -0.9303 -0.8935
 1693TIP3   OH226569   2.566   1.019  42.540  0.6341 -0.7124 -0.2643
 1693TIP3    H126570   2.541   0.927  42.539 -0.0428 -0.5339 -0.2997
 1693TIP3    H226571   2.603   1.033  42.627  0.4321 -0.9332 -0.1437
 1694TIP3   OH226572   0.590   2.667   4.762  0.0002  0.0433  0.1125
 1694TIP3    H126573   0.608   2.587   4.712  0.0259  0.0980  0.0341
 1694TIP3    H226574   0.496   2.681   4.750  0.1648  0.5277 -0.6193
 1695TIP3   OH226575   0.643   3.054  43.917 -0.6613  0.5291 -0.4770
 1695TIP3    H126576   0.730   3.071  43.879 -0.6019  0.9122 -0.1788
 1695TIP3    H226577   0.599   3.139  43.914 -1.0553  0.3163 -0.6996
 1696TIP3   OH226578   3.507   1.578  14.821 -0.1918 -1.0807 -0.5238
 1696TIP3    H126579   3.439   1.642  14.801  0.0281 -0.4796  0.5213
 1696TIP3    H226580   3.459   1.498  14.843 -0.7567 -0.0853  2.3286
 1697TIP3   OH226581   0.678   1.327  12.191  0.5187 -0.1583  0.6096
 1697TIP3    H126582   0.603   1.387  12.186  0.0011 -0.8427 -0.1597
 1697TIP3    H226583   0.659   1.270  12.265  0.7473  0.2704  1.0030
 1698TIP3   OH226584   1.101   3.854   4.320  0.6096 -0.3413  0.1037
 1698TIP3    H126585   1.011   3.878   4.342  1.1060  1.1045  0.6658
 1698TIP3    H226586   1.140   3.936   4.289  1.9833 -0.7356  0.7377
 1699TIP3   OH226587   1.124   3.841  45.678 -0.1718  0.0085  0.3073
 1699TIP3    H126588   1.115   3.749  45.701 -0.0639 -0.0145  0.2593
 1699TIP3    H226589   1.183   3.841  45.602  2.6806  0.3320  2.3232
 1700TIP3   OH226590   1.500   0.388  26.215  0.1923 -0.2774 -0.1142
 1700TIP3    H126591   1.431   0.349  26.161  0.0951  1.0807 -1.0135
 1700TIP3    H226592   1.467   0.382  26.304 -1.1824  0.4900 -0.5448
 1701TIP3   OH226593   2.552   0.069  40.817  0.4489 -0.4759  0.1031
 1701TIP3    H126594   2.610   0.141  40.791 -0.4713  0.5791  0.8831
 1701TIP3    H226595   2.464   0.102  40.801  0.0130 -1.8902 -0.6334
 1702TIP3   OH226596   0.972   4.053  33.834 -0.3070  0.1482 -0.1602
 1702TIP3    H126597   0.907   4.122  33.822  0.0040  0.5953  0.6754
 1702TIP3    H226598   0.921   3.977  33.864 -0.4301  0.5412  0.6343
 1703TIP3   OH226599   0.168   0.407  14.238  0.5386 -0.1585  0.9284
 1703TIP3    H126600   0.091   0.455  14.267 -0.0794 -0.5941  0.0476
 1703TIP3    H226601   0.173   0.332  14.297 -3.1010 -3.3546 -2.2481
 1704TIP3   OH226602   1.808   0.904  14.180 -0.1142 -0.6486 -0.1763
 1704TIP3    H126603   1.720   0.871  14.160 -0.7905  1.6607 -1.4778
 1704TIP3    H226604   1.823   0.880  14.271 -3.5691  1.6716  1.2485
 1705TIP3   OH226605   3.918   0.266  31.354  0.4124  0.3221  0.4652
 1705TIP3    H126606   3.832   0.234  31.326  0.4530  1.1065 -0.6055
 1705TIP3    H226607   3.899   0.344  31.406  0.4158 -0.3695  1.5482
 1706TIP3   OH226608   3.919   0.632  34.567  0.2324  0.1974 -0.5262
 1706TIP3    H126609   3.832   0.606  34.596  0.5999  0.4483  0.8522
 1706TIP3    H226610   3.908   0.719  34.529 -0.2186 -0.0332 -0.9236
 1707TIP3   OH226611   0.258   3.454  45.839  0.5024  0.2267  0.4508
 1707TIP3    H126612   0.225   3.411  45.917 -0.7766  0.2017 -0.0816
 1707TIP3    H226613   0.234   3.395  45.767  4.0195 -1.1570  0.1818
 1708TIP3   OH226614   1.509   3.937  42.205 -0.4359 -0.0179 -0.6486
 1708TIP3    H126615   1.524   3.980  42.289 -0.6221 -0.5597 -0.3368
 1708TIP3    H226616   1.419   3.960  42.182 -0.3438  0.2332 -0.7636
 1709TIP3   OH226617   0.122   1.972  44.590  0.1399 -0.2290 -0.0269
 1709TIP3    H126618   0.048   1.925  44.551 -1.3885  1.4455  0.7109
 1709TIP3    H226619   0.082   2.045  44.637  1.9950 -1.0231  3.1159
 1710TIP3   OH226620   0.561   1.298  41.196  0.0983 -0.5679 -0.3243
 1710TIP3    H126621   0.641   1.348  41.209 -0.6058  0.4673  0.1401
 1710TIP3    H226622   0.588   1.222  41.144  1.3719 -0.2502 -0.1585
 1711TIP3   OH226623   2.055   3.697  24.762 -0.2027 -0.2865  0.4671
 1711TIP3    H126624   2.129   3.732  24.812  1.5951 -0.1537 -2.0655
 1711TIP3    H226625   2.004   3.775  24.737  0.0340 -0.1501  0.4072
 1712TIP3   OH226626   0.898   0.886   3.550  0.3491 -0.0022 -0.5223
 1712TIP3    H126627   0.840   0.960   3.568 -0.6250 -0.3655 -1.9824
 1712TIP3    H226628   0.918   0.850   3.637 -1.0793  0.5404  0.0696
 1713TIP3   OH226629   2.725   3.987  30.618  0.0252  0.3200 -0.0077
 1713TIP3    H126630   2.815   3.975  30.647 -0.1776  0.1198  0.5480
 1713TIP3    H226631   2.732   4.048  30.544  0.8393 -1.3505 -1.3852
 1714TIP3   OH226632   1.904   1.208   4.054 -0.2596  0.0765 -0.2003
 1714TIP3    H126633   1.834   1.169   4.106  0.4126  0.2227  0.8505
 1714TIP3    H226634   1.872   1.295   4.032 -0.1365  0.4164  0.8958
 1715TIP3   OH226635   2.037   2.740  35.343 -0.0494 -0.0112 -0.3968
 1715TIP3    H126636   2.080   2.822  35.318 -0.3606  0.5075  0.7012
 1715TIP3    H226637   2.103   2.672  35.326 -0.5697  0.1404 -3.5088
 1716TIP3   OH226638   2.621   0.491  11.450  0.4074  0.2211 -0.2873
 1716TIP3    H126639   2.666   0.463  11.370  0.7940  0.4248 -0.1449
 1716TIP3    H226640   2.688   0.483  11.519  0.6907  1.9768 -0.3296
 1717TIP3   OH226641   3.404   3.338  28.985 -0.6873  0.0383  0.3019
 1717TIP3    H126642   3.390   3.268  29.048 -0.1586 -1.2983 -1.0084
 1717TIP3    H226643   3.478   3.308  28.931 -0.9013  1.2747 -0.7481
 1718TIP3   OH226644   3.600   0.555   7.876 -0.0316  0.0845 -0.0827
 1718TIP3    H126645   3.690   0.570   7.846 -0.3204  1.9981 -0.1233
 1718TIP3    H226646   3.545   0.593   7.807 -0.8359  0.0974  0.5548
 1719TIP3   OH226647   3.088   2.192  10.524 -0.2310  0.4287 -0.2562
 1719TIP3    H126648   3.105   2.195  10.430  1.2091 -1.7682 -0.1544
 1719TIP3    H226649   3.070   2.099  10.542  3.0057  0.0786  2.0947
 1720TIP3   OH226650   1.319   2.814  44.284 -0.1164 -0.4082 -1.0717
 1720TIP3    H126651   1.239   2.762  44.291  0.7846 -1.6287  3.2073
 1720TIP3    H226652   1.387   2.751  44.261  0.3062 -0.3755  0.0172
 1721TIP3   OH226653   1.812   0.412  42.848  0.4062 -0.3616 -0.4213
 1721TIP3    H126654   1.759   0.406  42.928 -1.2944 -1.1640 -1.5501
 1721TIP3    H226655   1.854   0.498  42.853 -1.9512  0.8296  0.0151
 1722TIP3   OH226656   2.292   2.368  44.123 -0.0922 -0.4341 -0.7082
 1722TIP3    H126657   2.359   2.364  44.192 -0.5050  0.1861 -0.2644
 1722TIP3    H226658   2.250   2.282  44.126  0.7198 -0.8529 -1.0330
 1723TIP3   OH226659   2.429   0.930  42.059  0.0240  0.0890 -0.0344
 1723TIP3    H126660   2.518   0.963  42.072  1.4184 -1.4845 -4.0192
 1723TIP3    H226661   2.395   0.979  41.984 -0.8432 -2.0040 -1.1073
 1724TIP3   OH226662   1.381   0.801  14.588  0.1119  0.2999 -0.4207
 1724TIP3    H126663   1.441   0.791  14.661 -0.0373 -0.5533 -0.4065
 1724TIP3    H226664   1.302   0.753  14.615 -0.6329  1.4919 -0.3825
 1725TIP3   OH226665   0.011   3.243  32.542  0.0621  0.3665  0.1277
 1725TIP3    H126666   0.061   3.269  32.619 -0.4358 -1.7658  1.2314
 1725TIP3    H226667  -0.032   3.162  32.567  0.4042 -0.7857 -2.6057
 1726TIP3   OH226668   3.869   1.245  36.276  0.2799 -0.0488 -0.5941
 1726TIP3    H126669   3.867   1.164  36.327 -0.8108 -0.1393 -0.7606
 1726TIP3    H226670   3.960   1.274  36.282  0.1477  0.1402  1.7025
 1727TIP3   OH226671   1.961   0.529  47.466  0.3147  0.1791 -0.3523
 1727TIP3    H126672   2.003   0.526  47.552  1.9414  0.7588 -1.0889
 1727TIP3    H226673   1.883   0.475  47.476  0.0743  0.8236  1.6817
 1728TIP3   OH226674   2.805   2.039  32.785 -0.1420  0.3001 -0.5156
 1728TIP3    H126675   2.823   2.037  32.690  3.7447 -1.4146  0.0611
 1728TIP3    H226676   2.851   2.117  32.816 -0.1593  0.0608  0.1237
 1729TIP3   OH226677   1.668   0.886   0.709  0.2040  0.1531 -0.4446
 1729TIP3    H126678   1.664   0.955   0.642 -2.6496 -1.4053 -2.0836
 1729TIP3    H226679   1.630   0.926   0.787 -0.7530  0.7203 -1.1644
 1730TIP3   OH226680   4.049   0.437  14.625  0.5679 -0.3339 -0.4404
 1730TIP3    H126681   4.015   0.366  14.571  1.5140 -1.3676  0.2762
 1730TIP3    H226682   4.099   0.393  14.694  3.1659  1.0775 -1.3040
 1731TIP3   OH226683   0.127   3.225  45.015 -0.0102 -0.3601 -0.0370
 1731TIP3    H126684   0.062   3.214  45.084 -0.6070 -0.6086 -0.6295
 1731TIP3    H226685   0.092   3.294  44.959  0.7316  0.2258  0.1944
 1732TIP3   OH226686   3.636   0.723  45.638 -0.5199  0.0140 -0.3525
 1732TIP3    H126687   3.723   0.710  45.600  1.4449 -0.0561  3.6168
 1732TIP3    H226688   3.590   0.641  45.621  0.2138 -0.0357 -2.3526
 1733TIP3   OH226689   3.479   3.711  41.915 -0.0259 -0.1476 -0.3005
 1733TIP3    H126690   3.505   3.621  41.938  1.2237  0.1352 -0.5255
 1733TIP3    H226691   3.545   3.766  41.956  2.9317  0.3676 -5.0155
 1734TIP3   OH226692   0.986   1.160  33.166 -0.9454  0.2098 -0.5125
 1734TIP3    H126693   1.033   1.180  33.247  1.0267 -1.0755 -1.2640
 1734TIP3    H226694   1.023   1.220  33.101 -1.0211 -0.1760 -0.9162
 1735TIP3   OH226695   1.534   1.725  20.406  0.2651  0.3343 -0.4483
 1735TIP3    H126696   1.544   1.755  20.316  1.6235 -1.8012 -1.0813
 1735TIP3    H226697   1.617   1.748  20.448 -0.2531  1.0633  0.1896
 1736TIP3   OH226698   1.512   1.710   8.462 -0.6992  0.1574 -0.0017
 1736TIP3    H126699   1.420   1.728   8.443 -0.8707 -1.1090 -0.4692
 1736TIP3    H226700   1.511   1.674   8.551 -0.7516 -0.6031 -0.3096
 1737TIP3   OH226701   0.833   3.970  40.778 -0.1700  0.0721 -0.2948
 1737TIP3    H126702   0.882   3.976  40.860 -1.2677  0.4251  0.3581
 1737TIP3    H226703   0.791   3.884  40.782 -2.6855  1.2391  1.0069
 1738TIP3   OH226704   3.511   3.151   4.166  0.4641 -0.4490 -0.2072
 1738TIP3    H126705   3.589   3.178   4.215 -0.0437  1.3879 -0.3323
 1738TIP3    H226706   3.492   3.226   4.109 -0.7053 -1.3480 -1.0400
 1739TIP3   OH226707   3.921   1.443  46.266 -0.2846 -0.3690  0.1448
 1739TIP3    H126708   3.909   1.349  46.284  0.6132 -0.3647  0.8568
 1739TIP3    H226709   3.986   1.446  46.197  0.2685 -0.2634  0.6606
 1740TIP3   OH226710   1.074   3.537  11.528 -0.1124  0.0888 -0.1923
 1740TIP3    H126711   1.021   3.484  11.468 -0.7631  0.2730  0.2048
 1740TIP3    H226712   1.079   3.623  11.486 -1.6494  0.5913  0.6034
 1741TIP3   OH226713   3.304   3.609   4.504  0.1686  0.3258 -0.2044
 1741TIP3    H126714   3.263   3.523   4.490  0.6490  0.0264  0.1997
 1741TIP3    H226715   3.234   3.663   4.540 -0.3839  0.3664 -1.3120
 1742TIP3   OH226716   2.256   0.566  13.338 -0.2372  0.2649 -0.0051
 1742TIP3    H126717   2.198   0.508  13.289  0.0600  2.0117 -2.6148
 1742TIP3    H226718   2.217   0.571  13.425 -1.4675 -2.0769 -0.3584
 1743TIP3   OH226719   2.665   1.186  13.917  0.1019 -0.5986 -0.3641
 1743TIP3    H126720   2.599   1.176  13.848  1.3218  0.4710 -1.7349
 1743TIP3    H226721   2.630   1.135  13.990 -2.5969  0.4772 -0.7644
 1744TIP3   OH226722   2.085   2.649  37.328  0.1712 -0.4285  0.0999
 1744TIP3    H126723   2.079   2.562  37.289  1.0328 -0.1207 -0.7618
 1744TIP3    H226724   2.169   2.649  37.375 -0.4785 -0.5196  1.2986
 1745TIP3   OH226725   2.064   2.299  35.730  0.0551  0.4734 -0.1046
 1745TIP3    H126726   2.041   2.350  35.808 -1.0040  1.8673 -1.2566
 1745TIP3    H226727   2.060   2.208  35.759 -1.3683  0.9022  1.2352
 1746TIP3   OH226728   2.521   1.239  11.622  0.2206  0.4954 -0.0020
 1746TIP3    H126729   2.498   1.316  11.674 -1.1114  1.2863 -1.6912
 1746TIP3    H226730   2.489   1.258  11.534 -0.4194 -2.1118 -0.4217
 1747TIP3   OH226731   3.317   0.191  43.526  0.0465 -0.6768  0.0499
 1747TIP3    H126732   3.382   0.122  43.534 -0.1892 -1.2615 -2.3390
 1747TIP3    H226733   3.235   0.151  43.555  0.0300 -1.2007 -0.7171
 1748TIP3   OH226734   3.903   0.727  33.769 -0.5091  0.4550 -0.8468
 1748TIP3    H126735   3.898   0.688  33.682  0.7992  1.1075 -1.2446
 1748TIP3    H226736   3.891   0.654  33.830  3.8996 -1.1474 -1.5038
 1749TIP3   OH226737   3.996   0.714  46.492  0.2897 -0.4523  0.3944
 1749TIP3    H126738   4.068   0.753  46.443  0.8749 -0.4547  1.2314
 1749TIP3    H226739   4.021   0.622  46.502 -0.4428 -0.7520 -0.4024
 1750TIP3   OH226740   0.428   1.065  13.171 -0.3139 -0.7402 -0.1946
 1750TIP3    H126741   0.475   1.073  13.088 -1.3845  0.7541 -0.6824
 1750TIP3    H226742   0.494   1.086  13.238  0.0411  0.0960 -0.7964
 1751TIP3   OH226743   1.359   4.093  33.743  0.3969  0.9328 -0.2198
 1751TIP3    H126744   1.376   4.117  33.834  1.2301  2.8576 -0.8393
 1751TIP3    H226745   1.309   4.167  33.708  0.4513  0.4072 -1.4461
 1752TIP3   OH226746   2.266   2.159   6.528 -0.7176  0.0897 -0.2085
 1752TIP3    H126747   2.186   2.140   6.576 -0.6689  0.4156  0.0013
 1752TIP3    H226748   2.334   2.162   6.596  0.0137 -3.0282 -0.6108
 1753TIP3   OH226749   0.767   2.142   2.629  0.6260 -0.8719 -0.2341
 1753TIP3    H126750   0.732   2.229   2.613  2.0502 -0.4418 -1.1632
 1753TIP3    H226751   0.840   2.155   2.689 -0.7081 -1.7731  1.7316
 1754TIP3   OH226752   1.679   3.806  27.691 -0.1760  0.3460 -0.7476
 1754TIP3    H126753   1.662   3.870  27.761  1.7005  0.4418 -0.3267
 1754TIP3    H226754   1.633   3.727  27.718 -0.3718  0.7268  0.0423
 1755TIP3   OH226755   3.378   1.292  19.203  0.1899 -0.2422  0.1685
 1755TIP3    H126756   3.290   1.300  19.166  0.4035 -2.9401 -1.1698
 1755TIP3    H226757   3.366   1.244  19.284  0.3052  0.6841  0.7455
 1756TIP3   OH226758   3.028   0.269  36.630 -0.0247 -0.1340  0.2762
 1756TIP3    H126759   2.992   0.199  36.574  0.6100  1.9973 -3.0596
 1756TIP3    H226760   3.122   0.263  36.618  0.0547  1.0636  0.1994
 1757TIP3   OH226761   2.613   3.840  12.488 -0.2365  0.3725 -0.0746
 1757TIP3    H126762   2.545   3.804  12.431  0.1935  0.6527 -0.7772
 1757TIP3    H226763   2.609   3.934  12.474  0.5825  0.3620 -0.4686
 1758TIP3   OH226764   1.224   2.315  18.378  0.6056  0.1373 -0.2891
 1758TIP3    H126765   1.302   2.369  18.393  1.7401 -1.2692 -0.8613
 1758TIP3    H226766   1.186   2.349  18.297  0.8149  0.6238 -0.1841
 1759TIP3   OH226767   2.882   3.618  47.039  0.2826  0.2584 -0.3679
 1759TIP3    H126768   2.838   3.581  47.116  1.0096 -0.4891 -0.2957
 1759TIP3    H226769   2.939   3.548  47.008 -1.0508 -0.0040 -2.4825
 1760TIP3   OH226770   4.049   2.773  39.282 -0.1530  0.3984 -0.1099
 1760TIP3    H126771   3.978   2.803  39.225  0.3549  0.9955 -0.4379
 1760TIP3    H226772   4.129   2.802  39.238  0.3291 -0.7822 -0.0459
 1761TIP3   OH226773   0.276   2.147   9.018 -0.4960 -0.1999  0.0138
 1761TIP3    H126774   0.211   2.133   9.086  3.3521 -2.9148  3.6513
 1761TIP3    H226775   0.305   2.238   9.030 -1.3821  0.0303  0.4678
 1762TIP3   OH226776   2.432   3.475  40.523 -0.1339  0.3205  0.3260
 1762TIP3    H126777   2.485   3.441  40.595  1.2060  1.5221 -0.0407
 1762TIP3    H226778   2.467   3.563  40.507  0.9915 -0.5957 -3.0612
 1763TIP3   OH226779   2.891   2.473  42.722 -0.3085 -0.0755  0.5718
 1763TIP3    H126780   2.876   2.428  42.806 -0.0650 -1.0306  0.1240
 1763TIP3    H226781   2.804   2.500  42.693 -0.3793  0.3777  1.1949
 1764TIP3   OH226782   0.081   3.540  36.085  0.0929 -0.2249 -0.2139
 1764TIP3    H126783  -0.006   3.560  36.121  0.6151 -0.2642  1.1629
 1764TIP3    H226784   0.077   3.447  36.062  0.2124 -0.6370  1.3086
 1765TIP3   OH226785   3.155   3.318  34.856  0.3090  0.0953  0.2123
 1765TIP3    H126786   3.241   3.296  34.890 -0.1487  0.5235  1.7406
 1765TIP3    H226787   3.096   3.310  34.932 -0.9585 -0.0145 -0.7470
 1766TIP3   OH226788   4.104   2.505  13.819 -0.4063 -0.3173  0.7297
 1766TIP3    H126789   4.149   2.429  13.782 -1.0655 -0.9853  1.2802
 1766TIP3    H226790   4.108   2.492  13.914 -1.8970 -0.4714  0.7875
 1767TIP3   OH226791   1.997   1.953  47.297  0.0199  0.5577  0.0948
 1767TIP3    H126792   1.999   1.946  47.201  1.7551 -0.8124  0.1753
 1767TIP3    H226793   2.074   1.905  47.326  0.5110  2.3910  2.1238
 1768TIP3   OH226794   2.599   1.461  22.516  0.2815 -0.5002 -0.0106
 1768TIP3    H126795   2.642   1.526  22.460 -0.8319 -0.5737 -1.0042
 1768TIP3    H226796   2.612   1.378  22.470  0.1555 -0.7054  0.3241
 1769TIP3   OH226797   1.086   2.119   6.394 -0.5303 -0.0102 -0.1772
 1769TIP3    H126798   1.091   2.205   6.352 -0.1648 -0.9965 -2.2243
 1769TIP3    H226799   1.018   2.072   6.347 -0.4112 -1.0255  0.6169
 1770TIP3   OH226800   2.201   1.431   2.714  0.2585 -0.2375 -0.0646
 1770TIP3    H126801   2.244   1.503   2.669 -1.1488  1.7197  1.5312
 1770TIP3    H226802   2.110   1.436   2.684 -0.0564 -0.7350  0.7857
 1771TIP3   OH226803   0.595   1.231  33.103  0.4472  0.4667  0.2411
 1771TIP3    H126804   0.571   1.180  33.180 -0.5047 -1.2032 -1.0924
 1771TIP3    H226805   0.554   1.316  33.116 -2.9586 -0.9929 -0.1004
 1772TIP3   OH226806   0.785   3.560   3.641 -0.1100  0.2180  0.3174
 1772TIP3    H126807   0.715   3.600   3.693 -1.7394 -1.4234 -0.4916
 1772TIP3    H226808   0.750   3.557   3.552  0.8486 -0.9638 -0.0474
 1773TIP3   OH226809   3.452   2.695  43.700 -0.1021  0.4744  0.6742
 1773TIP3    H126810   3.456   2.761  43.769  0.7224  0.4408  0.6664
 1773TIP3    H226811   3.424   2.615  43.744 -2.5582  1.1215  0.4364
 1774TIP3   OH226812   2.279   1.033  39.436 -0.0846  1.5148  0.1594
 1774TIP3    H126813   2.367   1.019  39.403 -0.3607  0.0885 -0.0505
 1774TIP3    H226814   2.226   1.049  39.358 -0.2360  1.0537  0.1664
 1775TIP3   OH226815   1.493   0.307  39.681  0.3942  0.0946 -0.2154
 1775TIP3    H126816   1.501   0.344  39.593  0.2339  0.4482 -0.0827
 1775TIP3    H226817   1.427   0.238  39.673  1.1268 -0.5792 -0.5897
 1776TIP3   OH226818   3.097   1.132   1.646 -0.7134 -0.3475 -0.2080
 1776TIP3    H126819   3.165   1.198   1.632 -1.6786  0.6373 -0.4338
 1776TIP3    H226820   3.060   1.117   1.559  0.3320 -2.1612 -0.3745
 1777TIP3   OH226821   0.973   1.402  38.261 -0.2880 -0.4611  0.0383
 1777TIP3    H126822   1.029   1.331  38.293 -0.1233  0.2478  1.3851
 1777TIP3    H226823   0.897   1.357  38.224 -0.5742 -1.3442  1.6007
 1778TIP3   OH226824   2.214   0.525  42.755  0.5192  0.7121 -0.4424
 1778TIP3    H126825   2.167   0.460  42.702  1.9396  0.8766 -1.9796
 1778TIP3    H226826   2.145   0.581  42.790 -0.4817  0.9957 -2.6929
 1779TIP3   OH226827   2.421   2.008  33.641 -0.3371  0.8509  0.1014
 1779TIP3    H126828   2.425   1.925  33.594 -1.2274 -0.6264  2.4471
 1779TIP3    H226829   2.504   2.014  33.688  0.1405  1.8179 -0.8296
 1780TIP3   OH226830   3.178   1.041  12.302 -0.4674  0.0116  0.4441
 1780TIP3    H126831   3.233   1.015  12.228  0.4085 -1.3367  1.5199
 1780TIP3    H226832   3.225   1.009  12.379 -1.6797  0.8003  1.5538
 1781TIP3   OH226833   2.733   1.886  19.726 -0.1628 -0.3421  0.3283
 1781TIP3    H126834   2.807   1.943  19.744  0.2051  0.3183 -2.7506
 1781TIP3    H226835   2.658   1.929  19.767  0.5744  0.8480  0.4590
 1782TIP3   OH226836   1.631   0.145  10.429  0.4078  0.4346  0.2593
 1782TIP3    H126837   1.674   0.100  10.502 -0.8451 -0.8860  0.2222
 1782TIP3    H226838   1.602   0.229  10.467 -0.3769 -0.2980  1.3566
 1783TIP3   OH226839   3.916   2.329  12.082  0.1002  0.7770 -0.3301
 1783TIP3    H126840   3.936   2.276  12.159 -0.6962  1.5130  0.3930
 1783TIP3    H226841   3.830   2.299  12.054  0.5308  0.2631 -1.1701
 1784TIP3   OH226842   1.978   3.691  37.434 -0.0169 -0.1685  0.2648
 1784TIP3    H126843   2.032   3.747  37.490  1.1954 -1.2375  0.2276
 1784TIP3    H226844   1.892   3.732  37.434  0.3347  0.6448  1.7551
 1785TIP3   OH226845   3.280   3.685  31.779 -0.0221  0.3702  0.7809
 1785TIP3    H126846   3.238   3.601  31.762  1.1946  0.2307 -2.2263
 1785TIP3    H226847   3.364   3.662  31.818  0.5528  0.0851 -0.5618
 1786TIP3   OH226848   3.906   3.692  13.840  0.3154 -0.2631  0.0516
 1786TIP3    H126849   3.832   3.752  13.847 -0.3913 -1.1218  0.0798
 1786TIP3    H226850   3.884   3.619  13.898  1.6456 -0.0758  0.8579
 1787TIP3   OH226851   1.981   3.446   5.114  0.3331  0.7348 -0.3330
 1787TIP3    H126852   2.055   3.452   5.054  0.3943  1.8926 -0.1754
 1787TIP3    H226853   2.010   3.491   5.193  0.1787 -0.6090  0.5041
 1788TIP3   OH226854   2.238   2.856  38.799  0.1893 -0.1480  0.6888
 1788TIP3    H126855   2.334   2.854  38.804  0.1862 -2.2225  0.8140
 1788TIP3    H226856   2.215   2.776  38.751 -1.5665 -1.1616  3.0263
 1789TIP3   OH226857   2.422   3.638  34.813  0.9742  0.4846 -0.2318
 1789TIP3    H126858   2.479   3.712  34.793  0.2047  1.2688  0.4270
 1789TIP3    H226859   2.467   3.593  34.885  1.5416  0.1750 -0.7640
 1790TIP3   OH226860   3.148   1.352  33.152  0.0011 -0.2707 -0.0371
 1790TIP3    H126861   3.170   1.303  33.231  2.2483 -0.6850 -0.8398
 1790TIP3    H226862   3.099   1.290  33.098 -3.3533  0.6067  1.7126
 1791TIP3   OH226863   0.186   3.524   4.715 -0.0624  0.8523  0.6494
 1791TIP3    H126864   0.187   3.583   4.640 -0.5785 -0.3462 -0.3263
 1791TIP3    H226865   0.093   3.517   4.739 -0.0732 -0.0263  0.3730
 1792TIP3   OH226866   1.743   3.928  42.418 -0.1608  0.2593 -0.4856
 1792TIP3    H126867   1.702   3.955  42.500  0.0352 -1.2475  0.1445
 1792TIP3    H226868   1.756   3.834  42.428  1.8747  0.3986 -1.3717
 1793TIP3   OH226869   0.361   1.998   3.273 -0.2676  0.0389  0.5505
 1793TIP3    H126870   0.424   1.944   3.226  0.3519  0.0346  1.3555
 1793TIP3    H226871   0.310   2.042   3.205  0.9400  0.4345 -0.1187
 1794TIP3   OH226872   3.318   3.272  31.232  0.1628 -0.0654 -0.3213
 1794TIP3    H126873   3.324   3.210  31.160  0.5867  0.4966 -0.7809
 1794TIP3    H226874   3.348   3.355  31.195  1.9639 -0.1071  0.9404
 1795TIP3   OH226875   2.573   0.492  12.041 -0.0450 -0.2999 -0.2208
 1795TIP3    H126876   2.609   0.549  12.109  2.4682 -0.1897 -1.5237
 1795TIP3    H226877   2.599   0.533  11.959 -1.0304 -1.6173 -1.2363
 1796TIP3   OH226878   3.702   3.598  27.258  0.1868  0.1948 -0.8898
 1796TIP3    H126879   3.711   3.597  27.163 -0.9407 -0.2626 -0.9955
 1796TIP3    H226880   3.640   3.528  27.278  1.0810 -0.3089  0.2663
 1797TIP3   OH226881   3.033   3.642  35.621  0.3039  0.2047  0.0127
 1797TIP3    H126882   3.051   3.665  35.712 -0.3223  0.1533  0.1570
 1797TIP3    H226883   2.986   3.718  35.586 -2.1843 -0.9295  0.6211
 1798TIP3   OH226884   0.941   1.784  11.496  0.3355 -0.5441 -0.0862
 1798TIP3    H126885   0.858   1.815  11.457  0.5478 -0.5642 -0.5696
 1798TIP3    H226886   0.946   1.829  11.580 -0.1258 -0.4712 -0.0934
 1799TIP3   OH226887   3.465   0.797  38.006  0.5168  0.1646 -0.1706
 1799TIP3    H126888   3.443   0.706  37.987  0.9312 -0.3736  1.7064
 1799TIP3    H226889   3.559   0.796  38.022  0.4398  0.8282  0.3677
 1800TIP3   OH226890   2.640   2.895   2.417 -0.7497  0.1764 -0.6909
 1800TIP3    H126891   2.661   2.944   2.497 -4.0531 -0.0885  0.5067
 1800TIP3    H226892   2.610   2.962   2.355 -2.1391  0.0417 -0.1986
 1801TIP3   OH226893   0.955   2.875   5.560 -0.3202 -0.3421  0.3159
 1801TIP3    H126894   0.906   2.793   5.562 -0.6650 -0.2004 -1.0669
 1801TIP3    H226895   0.985   2.882   5.469  2.8260 -0.7446  1.1891
 1802TIP3   OH226896   0.137   0.236   2.229  0.7674  0.1284 -0.0766
 1802TIP3    H126897   0.125   0.318   2.181 -0.0208 -0.6873 -1.3522
 1802TIP3    H226898   0.086   0.247   2.309  0.1417  0.6628 -0.5394
 1803TIP3   OH226899   2.385   1.349  31.225  0.6058  0.4985  0.1143
 1803TIP3    H126900   2.406   1.258  31.245  0.0159 -0.2179 -2.1205
 1803TIP3    H226901   2.455   1.378  31.166 -1.0690  0.2096 -2.1600
 1804TIP3   OH226902   0.316   2.968   6.236 -0.5385  0.4496 -0.1287
 1804TIP3    H126903   0.387   3.032   6.232 -0.9019  0.9958  1.4239
 1804TIP3    H226904   0.281   2.977   6.325 -0.9341 -1.5525 -0.0387
 1805TIP3   OH226905   2.767   3.906  26.423 -0.1219  0.0095  0.3169
 1805TIP3    H126906   2.729   3.990  26.397  0.9854  0.7437  0.9637
 1805TIP3    H226907   2.765   3.907  26.519  2.8008  0.7693  0.4664
 1806TIP3   OH226908   3.271   3.134  31.452  0.0603 -0.7796 -0.4111
 1806TIP3    H126909   3.304   3.202  31.393 -0.5784  0.6223  0.7833
 1806TIP3    H226910   3.178   3.128  31.431 -0.1581 -0.3144  0.3894
 1807TIP3   OH226911   0.475   3.230  33.712 -0.3350 -0.1921  0.0609
 1807TIP3    H126912   0.514   3.299  33.766  1.1774  0.5918 -1.8921
 1807TIP3    H226913   0.531   3.154  33.727  1.8597  0.7673 -2.2814
 1808TIP3   OH226914   3.015   2.539  10.403  0.6711 -0.1076 -0.0033
 1808TIP3    H126915   2.950   2.508  10.466  2.3728 -0.9695  1.4123
 1808TIP3    H226916   2.971   2.532  10.318 -0.7058 -1.7310  0.7770
 1809TIP3   OH226917   1.754   3.394  42.676  0.3396 -0.0141  0.4091
 1809TIP3    H126918   1.836   3.346  42.690  0.2826 -0.5297 -0.8402
 1809TIP3    H226919   1.710   3.345  42.606 -1.2609 -0.0158  1.3712
 1810TIP3   OH226920   2.359   0.403  37.187  0.7980  0.1817  0.2199
 1810TIP3    H126921   2.274   0.363  37.168 -0.4139  0.2219  4.4824
 1810TIP3    H226922   2.408   0.335  37.232  2.3809  0.7624 -0.5368
 1811TIP3   OH226923   2.097   2.292  13.249 -0.3853 -0.4503  0.4698
 1811TIP3    H126924   2.112   2.205  13.214  0.5751 -0.9389  2.0067
 1811TIP3    H226925   2.145   2.350  13.190  0.8626 -1.2053  0.7148
 1812TIP3   OH226926   0.195   3.908  46.854 -0.0829  0.3624 -0.2346
 1812TIP3    H126927   0.156   3.995  46.863  0.3142  0.4468  0.7971
 1812TIP3    H226928   0.187   3.888  46.761 -1.1369  1.0540 -0.3150
 1813TIP3   OH226929   2.510   3.075  13.403 -0.9619 -0.1853 -0.3241
 1813TIP3    H126930   2.436   3.047  13.350 -0.7211 -3.2700  0.7514
 1813TIP3    H226931   2.578   3.098  13.340 -2.1775  0.8210 -1.3078
 1814TIP3   OH226932   0.219   3.103   2.110  0.2695  0.2006 -0.0357
 1814TIP3    H126933   0.131   3.136   2.129  0.4405  1.1743 -0.8166
 1814TIP3    H226934   0.266   3.109   2.193 -0.4797 -0.6324  0.4669
 1815TIP3   OH226935   2.236   0.281  40.513  0.2171 -0.2374 -0.9769
 1815TIP3    H126936   2.268   0.251  40.598  0.1236 -1.8660 -1.4739
 1815TIP3    H226937   2.143   0.260  40.514  0.4877 -1.7206 -2.0067
 1816TIP3   OH226938   2.217   3.105  42.715 -0.9808  0.5956  0.2494
 1816TIP3    H126939   2.252   3.194  42.708 -2.2586  1.1506  0.6195
 1816TIP3    H226940   2.292   3.051  42.739 -0.3926  1.7416  1.0655
 1817TIP3   OH226941   2.699   1.446  37.414 -0.2342  0.3592  0.3230
 1817TIP3    H126942   2.715   1.527  37.463  4.8527 -0.3867  0.4304
 1817TIP3    H226943   2.676   1.382  37.481  2.0125  0.4010  1.1992
 1818TIP3   OH226944   3.398   1.566  15.752  0.0045 -0.3498  0.3463
 1818TIP3    H126945   3.390   1.661  15.749 -1.1134 -0.4553 -1.1941
 1818TIP3    H226946   3.367   1.542  15.839 -0.1656  0.6651  0.5772
 1819TIP3   OH226947   2.208   0.759   3.112 -0.4068  0.0671 -0.5051
 1819TIP3    H126948   2.160   0.681   3.083  0.0691 -0.1361 -0.7662
 1819TIP3    H226949   2.274   0.725   3.172 -0.0926  0.2482 -0.7464
 1820TIP3   OH226950   0.210   0.371  43.584 -0.3085  0.1389  0.2617
 1820TIP3    H126951   0.135   0.430  43.592  0.2939  0.6836  2.6712
 1820TIP3    H226952   0.175   0.293  43.542 -2.8887 -0.5851  3.4065
 1821TIP3   OH226953   1.626   1.285  39.220 -0.2840 -0.3232  0.0556
 1821TIP3    H126954   1.620   1.240  39.135  1.2569 -0.3910 -0.0574
 1821TIP3    H226955   1.627   1.215  39.284 -0.8038 -0.3041  0.0867
 1822TIP3   OH226956   2.374   1.567  43.567 -0.7569  0.1978 -0.2695
 1822TIP3    H126957   2.278   1.567  43.565 -0.9072 -1.6229  2.0055
 1822TIP3    H226958   2.399   1.502  43.501 -1.2649 -1.2098  0.8763
 1823TIP3   OH226959   1.247   0.073  11.261  0.0021 -0.1292 -0.1941
 1823TIP3    H126960   1.183   0.101  11.196 -0.3987 -2.1765 -0.7655
 1823TIP3    H226961   1.195   0.029  11.329  0.6133  0.0680  0.4145
 1824TIP3   OH226962   2.384   1.226  16.908 -0.0145 -0.7162  0.0530
 1824TIP3    H126963   2.434   1.179  16.975 -0.5782 -0.3633  0.7250
 1824TIP3    H226964   2.293   1.200  16.923 -0.1601 -0.5528 -0.5165
 1825TIP3   OH226965   0.092   2.115  39.542  0.0208  0.4126 -0.1482
 1825TIP3    H126966   0.086   2.185  39.478  0.6880  0.3037 -0.3373
 1825TIP3    H226967   0.032   2.142  39.612  0.1818  1.1117 -0.2695
 1826TIP3   OH226968   0.088   3.631  40.531  0.0769 -0.7634  0.7760
 1826TIP3    H126969   0.106   3.542  40.561 -0.1614 -1.1322 -0.1399
 1826TIP3    H226970   0.088   3.684  40.611 -0.4066 -1.6871  1.4062
 1827TIP3   OH226971   2.556   3.871   2.691 -0.1529 -0.0593  0.4464
 1827TIP3    H126972   2.632   3.905   2.643  0.2752 -1.9588 -0.3142
 1827TIP3    H226973   2.482   3.890   2.634 -0.0570  0.4112  0.4695
 1828TIP3   OH226974   0.013   0.038  39.496 -0.2505 -0.1718 -0.7266
 1828TIP3    H126975   0.059  -0.046  39.500 -0.6102 -0.4545 -2.2800
 1828TIP3    H226976  -0.074   0.016  39.464 -1.4291  0.4160  1.8016
 1829TIP3   OH226977   0.279   1.219   2.639  0.2644  0.5881  0.0011
 1829TIP3    H126978   0.197   1.169   2.638 -0.2628  1.4276  0.0229
 1829TIP3    H226979   0.267   1.282   2.710  1.1139  0.4348  0.2905
 1830TIP3   OH226980   3.399   1.638   3.859  0.0501 -0.6577  0.0265
 1830TIP3    H126981   3.491   1.633   3.833 -0.2085 -4.2147 -0.7772
 1830TIP3    H226982   3.352   1.652   3.777 -0.1936 -0.4596  0.2004
 1831TIP3   OH226983   2.270   2.777   4.157  0.3243  0.1629 -0.1847
 1831TIP3    H126984   2.315   2.844   4.209  1.0557 -1.1252  0.9147
 1831TIP3    H226985   2.177   2.791   4.176  0.3224  1.7897 -1.1669
 1832TIP3   OH226986   2.737   0.700  10.639  0.4185 -0.0205  0.4835
 1832TIP3    H126987   2.694   0.639  10.700  0.6222 -0.5688  0.0783
 1832TIP3    H226988   2.749   0.650  10.559  0.4732  0.5951  0.1020
 1833TIP3   OH226989   2.394   0.820   1.568 -0.1492  0.1790 -0.3637
 1833TIP3    H126990   2.462   0.801   1.503 -0.4360  0.2309 -0.6764
 1833TIP3    H226991   2.321   0.855   1.518 -0.2936  0.4223  0.0103
 1834TIP3   OH226992   3.931   1.606  33.864  0.6076  0.2921  0.4270
 1834TIP3    H126993   3.849   1.655  33.863  0.6528  0.3665 -0.3337
 1834TIP3    H226994   3.905   1.514  33.855  0.5510  0.2144  1.3258
 1835TIP3   OH226995   0.604   3.291  15.194  0.1771  0.0121 -0.1886
 1835TIP3    H126996   0.680   3.320  15.143  1.4427 -0.9444  1.0874
 1835TIP3    H226997   0.560   3.227  15.138 -0.7381  1.8031 -1.6441
 1836TIP3   OH226998   0.117   1.838  18.069  0.4546  0.0940  0.2295
 1836TIP3    H126999   0.094   1.874  17.983 -1.5089 -1.3586  0.0699
 1836TIP3    H227000   0.212   1.834  18.069  0.4917 -0.3866 -2.1161
 1837TIP3   OH227001   1.088   1.395  33.663 -0.5901 -0.2317 -0.5121
 1837TIP3    H127002   1.073   1.474  33.716 -0.8544 -0.7958  0.2707
 1837TIP3    H227003   1.173   1.410  33.622 -0.3550  0.1955  0.1156
 1838TIP3   OH227004   1.560   3.737  39.157  0.2619  0.3425 -0.1541
 1838TIP3    H127005   1.573   3.782  39.074 -2.1777  3.5969  0.9775
 1838TIP3    H227006   1.630   3.771  39.213 -0.8783  2.0373  0.3520
 1839TIP3   OH227007   2.210   3.028  41.564  0.1155 -0.3053 -0.2938
 1839TIP3    H127008   2.153   3.073  41.627  0.7445  0.3670 -0.1888
 1839TIP3    H227009   2.292   3.014  41.612  0.4546 -0.1683 -0.8289
 1840TIP3   OH227010   2.177   3.424  10.200 -0.1253  0.1390 -0.5113
 1840TIP3    H127011   2.229   3.455  10.126  0.5815 -1.7386 -0.8572
 1840TIP3    H227012   2.088   3.416  10.166 -0.2204  1.2440 -0.5528
 1841TIP3   OH227013   1.446   1.207  14.378  0.8797  0.2642 -0.4498
 1841TIP3    H127014   1.513   1.275  14.377 -1.0221  2.2595  0.4963
 1841TIP3    H227015   1.425   1.191  14.286  2.7206 -0.5314 -0.7686
 1842TIP3   OH227016   1.677   3.421  35.402  0.2873  0.0880  0.3158
 1842TIP3    H127017   1.696   3.330  35.424 -0.0489  0.1422  0.8263
 1842TIP3    H227018   1.751   3.447  35.346  1.7780  0.2875  2.2678
 1843TIP3   OH227019   1.921   1.868   4.387  0.1455 -0.0919 -0.3793
 1843TIP3    H127020   1.915   1.933   4.316  1.0999  0.5208  0.0783
 1843TIP3    H227021   1.998   1.895   4.437  0.1366 -1.1765  0.2408
 1844TIP3   OH227022   1.751   1.496  17.518 -0.1126  0.0639 -0.0760
 1844TIP3    H127023   1.808   1.461  17.450  2.2990 -2.0148  2.7625
 1844TIP3    H227024   1.799   1.569  17.555 -0.6833  0.2139  0.3876
 1845TIP3   OH227025   3.139   3.388   4.157 -0.6366 -0.2512  0.5629
 1845TIP3    H127026   3.225   3.424   4.135 -1.2121  0.0768 -1.2716
 1845TIP3    H227027   3.122   3.420   4.245  0.3375  1.1944  0.2619
 1846TIP3   OH227028   3.056   2.040  41.574 -0.6589 -0.1290  0.1473
 1846TIP3    H127029   2.976   1.987  41.571 -2.2787  2.1086 -2.8326
 1846TIP3    H227030   3.059   2.075  41.663 -1.8633 -1.8014  0.8996
 1847TIP3   OH227031   0.650   1.676   0.265 -0.4241  0.2294 -0.1589
 1847TIP3    H127032   0.610   1.715   0.342  0.4483  1.4715 -0.3020
 1847TIP3    H227033   0.667   1.750   0.206  0.2675 -0.5042 -0.9216
 1848TIP3   OH227034   3.957   2.957  39.077 -0.2950  0.1363 -0.0112
 1848TIP3    H127035   3.950   3.038  39.026 -1.8748  0.3791  0.5422
 1848TIP3    H227036   3.926   2.889  39.017  1.3601 -0.1455 -0.5966
 1849TIP3   OH227037   1.550   1.762  10.171  0.2444 -0.3063  0.3605
 1849TIP3    H127038   1.486   1.818  10.127  0.2159 -1.8303 -1.6909
 1849TIP3    H227039   1.615   1.822  10.207 -1.9115  1.2550  1.9061
 1850TIP3   OH227040   0.305   0.642  38.346 -0.1154 -0.1364 -0.0095
 1850TIP3    H127041   0.280   0.605  38.431 -1.2929  0.0342 -0.2770
 1850TIP3    H227042   0.267   0.583  38.282 -0.2311  0.3905 -0.4316
 1851TIP3   OH227043   4.060   3.948  12.539  0.6294 -0.0428  0.2499
 1851TIP3    H127044   4.091   3.880  12.480 -0.1659 -0.5221  0.3708
 1851TIP3    H227045   3.993   3.905  12.592 -0.4877  1.0394 -0.2338
 1852TIP3   OH227046   1.374   3.851   3.566  0.6503  0.1854 -0.4715
 1852TIP3    H127047   1.332   3.800   3.635  2.4898 -0.3980  0.2604
 1852TIP3    H227048   1.368   3.795   3.488 -0.5400  0.4299 -0.5858
 1853TIP3   OH227049   3.707   3.356  39.048 -0.0877 -0.2760 -0.1296
 1853TIP3    H127050   3.629   3.398  39.081  0.0601  0.2296 -0.4210
 1853TIP3    H227051   3.701   3.365  38.953  0.9080  0.8224 -0.1008
 1854TIP3   OH227052   2.854   2.206  39.099  0.1782  0.5266 -0.2039
 1854TIP3    H127053   2.847   2.299  39.078  0.8662  0.6083 -0.0922
 1854TIP3    H227054   2.914   2.202  39.174 -0.2139  0.0288  0.0891
 1855TIP3   OH227055   1.703   0.684  33.706 -0.3467  0.3893 -0.4891
 1855TIP3    H127056   1.669   0.755  33.651 -0.2034  1.8183  1.1613
 1855TIP3    H227057   1.761   0.634  33.649 -0.8821  1.2794 -1.8494
 1856TIP3   OH227058   0.890   1.413  44.767 -0.1853 -0.3517 -0.2721
 1856TIP3    H127059   0.818   1.403  44.704  0.1931  0.0460 -0.7767
 1856TIP3    H227060   0.846   1.433  44.850 -0.6509  0.3504 -0.6702
 1857TIP3   OH227061   2.353   3.981  47.243  0.1185  0.4033 -0.0000
 1857TIP3    H127062   2.283   3.917  47.256 -0.4909  0.4630 -2.4545
 1857TIP3    H227063   2.392   3.957  47.158  3.5704 -0.0315  1.5122
 1858TIP3   OH227064   2.163   1.585  20.427 -0.4693 -0.4871  0.0935
 1858TIP3    H127065   2.257   1.581  20.405  0.0324  0.3633  1.8927
 1858TIP3    H227066   2.123   1.520  20.369  1.2163 -0.8395 -0.7673
 1859TIP3   OH227067   1.085   1.568   5.094 -0.3078  0.3177  0.0572
 1859TIP3    H127068   1.015   1.502   5.095  0.8383 -0.9296  0.1702
 1859TIP3    H227069   1.111   1.575   5.186  0.1876  0.2535 -0.0785
 1860TIP3   OH227070   2.602   3.890  25.000 -0.4473 -0.3269  0.3091
 1860TIP3    H127071   2.596   3.976  24.957 -0.3045 -0.8553 -0.7969
 1860TIP3    H227072   2.633   3.910  25.088  2.7319  0.5609 -0.8463
 1861TIP3   OH227073   2.670   1.041  38.849  0.1571 -0.3754 -0.2458
 1861TIP3    H127074   2.687   0.947  38.842 -0.3392 -0.4886  0.0679
 1861TIP3    H227075   2.617   1.050  38.927  0.3437  0.1894 -0.1821
 1862TIP3   OH227076   2.434   4.057   9.256  0.1686 -0.2932 -0.7857
 1862TIP3    H127077   2.483   4.135   9.230 -0.3898  0.6923  0.9628
 1862TIP3    H227078   2.349   4.067   9.212 -0.6078  1.1268  0.9144
 1863TIP3   OH227079   3.597   1.596  33.442  0.0762  0.1058 -0.4505
 1863TIP3    H127080   3.568   1.505  33.435 -1.2476  0.5409 -1.0642
 1863TIP3    H227081   3.524   1.647  33.406  0.8511  1.4026 -0.2558
 1864TIP3   OH227082   0.391   2.620  10.956 -0.1231 -0.0471 -0.0156
 1864TIP3    H127083   0.448   2.626  10.880  1.9060 -0.2925  1.3920
 1864TIP3    H227084   0.334   2.546  10.939 -1.1880  1.1804 -2.1704
 1865TIP3   OH227085   0.429   0.327   6.987  0.1880  0.7345 -0.0140
 1865TIP3    H127086   0.443   0.397   6.923  2.4534  1.1378  0.8356
 1865TIP3    H227087   0.505   0.331   7.045 -1.7860  0.4143  2.7894
 1866TIP3   OH227088   0.948   1.973  39.992  0.0516 -0.4917 -0.3871
 1866TIP3    H127089   0.857   1.976  40.022  0.4495  1.7715  0.8104
 1866TIP3    H227090   0.943   1.988  39.897 -0.7757  0.8687 -0.1441
 1867TIP3   OH227091   0.710   3.215  33.251 -0.3048 -0.0505  0.1372
 1867TIP3    H127092   0.630   3.212  33.303  0.5109  0.3752  1.4537
 1867TIP3    H227093   0.741   3.124  33.250 -0.0900  0.0102  0.7903
 1868TIP3   OH227094   0.525   2.375  35.403 -0.2507  0.3803 -0.2212
 1868TIP3    H127095   0.444   2.370  35.352  0.3382  0.3483 -1.1585
 1868TIP3    H227096   0.580   2.436  35.355  0.4263  0.1296  0.2266
 1869TIP3   OH227097   2.016   2.085   6.652  0.0279  0.5083  0.2775
 1869TIP3    H127098   1.983   2.086   6.742 -1.7696 -0.0181 -0.3200
 1869TIP3    H227099   1.939   2.061   6.600  1.6472 -1.9559 -1.1421
 1870TIP3   OH227100   2.072   1.221  38.373  0.2452  0.2723 -0.8504
 1870TIP3    H127101   2.038   1.253  38.289  0.4028  0.8042 -0.7178
 1870TIP3    H227102   1.999   1.174  38.412 -0.1324  0.8200 -0.8741
 1871TIP3   OH227103   0.493   0.813  41.901 -0.1212 -0.3761  0.2181
 1871TIP3    H127104   0.576   0.849  41.869 -0.1605 -0.9807 -0.5807
 1871TIP3    H227105   0.465   0.753  41.832 -1.2554 -0.1335  0.4594
 1872TIP3   OH227106   1.191   2.135   2.971 -0.5035  0.1264  0.0539
 1872TIP3    H127107   1.240   2.067   2.924  0.8225 -0.4123  2.0910
 1872TIP3    H227108   1.240   2.216   2.955 -1.2138  0.3380 -1.1201
 1873TIP3   OH227109   0.447   1.729   1.532  0.4518 -0.1478  0.3554
 1873TIP3    H127110   0.529   1.700   1.573 -0.2524 -0.9765  1.2473
 1873TIP3    H227111   0.400   1.648   1.512 -0.4632  0.3213  0.5272
 1874TIP3   OH227112   0.034   2.700  35.773 -0.4879 -0.1142 -0.6151
 1874TIP3    H127113  -0.041   2.697  35.833 -0.2132  0.6222 -0.2201
 1874TIP3    H227114   0.049   2.794  35.759 -0.6320 -0.2776 -1.9501
 1875TIP3   OH227115   2.441   3.701  13.253 -0.6837  0.5449  0.1969
 1875TIP3    H127116   2.501   3.647  13.201  0.6170  0.4286  1.7225
 1875TIP3    H227117   2.361   3.648  13.259 -0.1803 -0.2741 -0.1025
 1876TIP3   OH227118   2.503   3.525  27.221 -0.6440 -0.0451 -0.2291
 1876TIP3    H127119   2.507   3.482  27.135 -1.2375 -0.0318 -0.2680
 1876TIP3    H227120   2.537   3.613  27.204 -1.0397  0.0563 -0.5203
 1877TIP3   OH227121   0.685   3.879  32.062 -0.2603  0.0715 -0.3594
 1877TIP3    H127122   0.695   3.788  32.034 -0.8377  0.0712 -0.5782
 1877TIP3    H227123   0.704   3.931  31.984  1.9276  0.2420  0.2004
 1878TIP3   OH227124   3.561   3.626  34.277 -0.2843 -0.5177 -0.1465
 1878TIP3    H127125   3.632   3.564  34.261 -0.3394 -0.4491 -0.6444
 1878TIP3    H227126   3.519   3.639  34.192 -0.5399 -0.1259  0.0342
 1879TIP3   OH227127   2.286   2.482   4.941 -0.1564 -0.0674 -0.2997
 1879TIP3    H127128   2.297   2.574   4.966  1.8337 -0.3061 -0.1136
 1879TIP3    H227129   2.325   2.477   4.853  1.1639 -1.0023  0.3110
 1880TIP3   OH227130   0.376   1.645  32.935 -0.0547 -0.0988  0.6876
 1880TIP3    H127131   0.452   1.699  32.957  1.5817 -1.8411 -0.3958
 1880TIP3    H227132   0.353   1.670  32.846  0.4747 -0.8595  0.3193
 1881TIP3   OH227133   1.617   2.948  44.487  0.4158 -0.0565  0.6148
 1881TIP3    H127134   1.527   2.973  44.466  0.2182 -0.6643  0.7236
 1881TIP3    H227135   1.671   3.019  44.451 -0.0983  0.2573  0.4589
 1882TIP3   OH227136   2.423   3.360   2.375 -0.2556 -0.1516  0.0068
 1882TIP3    H127137   2.330   3.376   2.392 -0.5891 -0.0459 -1.7033
 1882TIP3    H227138   2.463   3.447   2.370 -0.2344 -0.1690 -0.1260
 1883TIP3   OH227139   2.817   3.443  34.973 -0.4093 -0.4049  0.2188
 1883TIP3    H127140   2.770   3.413  34.895  2.2348  0.5668 -1.8589
 1883TIP3    H227141   2.827   3.363  35.026 -0.7056 -1.4536 -1.2486
 1884TIP3   OH227142   1.212   1.122  11.424  0.2317 -0.5635  0.0128
 1884TIP3    H127143   1.230   1.066  11.500 -1.3814  0.7798  1.4573
 1884TIP3    H227144   1.198   1.060  11.352  1.1136 -1.8994  0.9299
 1885TIP3   OH227145   2.406   3.895  33.993  0.2443  0.6518  0.0087
 1885TIP3    H127146   2.373   3.808  33.970  1.4830  0.1569 -0.0026
 1885TIP3    H227147   2.500   3.890  33.973  0.5700  1.5609  1.2287
 1886TIP3   OH227148   0.005   0.018   1.938  0.1449  0.1631 -0.8690
 1886TIP3    H127149   0.017   0.013   2.033 -2.9475  1.1345 -0.3139
 1886TIP3    H227150   0.093   0.013   1.903  1.5191  0.9468  2.1138
 1887TIP3   OH227151   1.818   3.806   6.547  0.1297  0.0443 -0.4759
 1887TIP3    H127152   1.913   3.794   6.548  0.1054 -0.2807 -1.2875
 1887TIP3    H227153   1.806   3.894   6.511  0.1056 -0.0591 -0.7151
 1888TIP3   OH227154   3.876   2.068  38.949  0.2733  0.2055 -0.1743
 1888TIP3    H127155   3.800   2.124  38.964  1.7941  2.0971  0.9135
 1888TIP3    H227156   3.871   2.001  39.017  0.9136  1.8878  1.6249
 1889TIP3   OH227157   0.735   1.644  12.733  0.4478  0.3752 -0.1151
 1889TIP3    H127158   0.743   1.556  12.697  1.2304  1.5503 -3.0901
 1889TIP3    H227159   0.640   1.661  12.735  0.3647  0.2254 -1.6806
 1890TIP3   OH227160   0.212   0.404   6.378 -0.3071  0.0369  0.8828
 1890TIP3    H127161   0.152   0.359   6.317  1.7286 -0.4377 -0.9020
 1890TIP3    H227162   0.166   0.485   6.401 -1.5182 -0.1571 -0.6670
 1891TIP3   OH227163   0.386   1.228  45.144 -0.3225 -0.2140 -0.4255
 1891TIP3    H127164   0.308   1.218  45.090 -0.6683  2.8732 -0.6201
 1891TIP3    H227165   0.433   1.302  45.106  0.1657  1.1626  2.5821
 1892TIP3   OH227166   0.625   1.642  37.784 -0.1640 -0.1399 -0.1997
 1892TIP3    H127167   0.629   1.737  37.774  0.3743 -0.2156 -0.7909
 1892TIP3    H227168   0.542   1.617  37.743 -1.0517  0.2179  1.3134
 1893TIP3   OH227169   3.808   1.933  43.644  0.1450  0.3191 -0.5197
 1893TIP3    H127170   3.829   2.017  43.604 -1.2728  0.6889 -0.5420
 1893TIP3    H227171   3.726   1.948  43.690  0.7886 -0.5838  1.0044
 1894TIP3   OH227172   2.446   2.473  38.109  0.2134 -0.0113  0.0688
 1894TIP3    H127173   2.458   2.382  38.081  1.6551  0.3416 -0.5348
 1894TIP3    H227174   2.352   2.480  38.127  0.3619 -2.2388  2.3675
 1895TIP3   OH227175   2.692   2.740   8.682 -0.6339  0.0929 -0.5376
 1895TIP3    H127176   2.624   2.779   8.627  0.1110  2.0473 -0.1279
 1895TIP3    H227177   2.735   2.814   8.724  2.6324 -0.9548 -1.7646
 1896TIP3   OH227178   0.030   3.957  36.550 -0.1916  0.0648  0.3053
 1896TIP3    H127179  -0.025   4.033  36.530 -0.7079 -0.4582 -0.3138
 1896TIP3    H227180  -0.027   3.899  36.601  0.4129  0.3801  1.3646
 1897TIP3   OH227181   0.895   1.560  46.239 -0.3196 -0.0602  0.3484
 1897TIP3    H127182   0.911   1.485  46.297 -0.9158 -0.1375  0.4170
 1897TIP3    H227183   0.813   1.539  46.194 -0.3661  0.4428  0.1881
 1898TIP3   OH227184   2.886   0.844   2.696  0.1267 -0.2073 -0.3901
 1898TIP3    H127185   2.828   0.897   2.642 -0.3274 -1.2450 -0.9599
 1898TIP3    H227186   2.972   0.884   2.685 -0.1208  0.1457 -1.1672
 1899TIP3   OH227187   1.561   3.673  30.290 -0.2341 -0.1123 -0.9401
 1899TIP3    H127188   1.542   3.626  30.209  0.3037 -1.6851 -0.2065
 1899TIP3    H227189   1.496   3.743  30.293 -0.0271  0.2234 -2.8887
 1900TIP3   OH227190   3.653   3.778   0.878 -0.5847  0.1083 -0.3972
 1900TIP3    H127191   3.580   3.800   0.936 -1.3435  0.9928 -1.6464
 1900TIP3    H227192   3.622   3.701   0.830  0.0608 -0.6517  0.3825
 1901TIP3   OH227193   2.849   1.551  46.465 -0.1792 -0.0443 -0.2617
 1901TIP3    H127194   2.804   1.475  46.502 -0.7377  0.3379 -0.1457
 1901TIP3    H227195   2.926   1.562  46.521  1.0099 -1.7102 -1.4452
 1902TIP3   OH227196   0.448   3.453  11.754  0.5951  0.7058 -0.2724
 1902TIP3    H127197   0.528   3.452  11.701  1.9624  2.0668  1.6432
 1902TIP3    H227198   0.471   3.403  11.832 -0.8297  0.1878 -0.1556
 1903TIP3   OH227199   3.787   0.473  39.112 -0.1368 -0.1942  0.0754
 1903TIP3    H127200   3.693   0.474  39.128 -0.0456 -0.5252  0.6568
 1903TIP3    H227201   3.827   0.487  39.198  0.3419  0.9055 -0.3023
 1904TIP3   OH227202   3.597   2.936  38.137 -0.4038  0.1020  0.5556
 1904TIP3    H127203   3.645   2.971  38.062  1.7941 -3.1830  0.1954
 1904TIP3    H227204   3.527   2.884  38.099  0.9157 -1.8433  0.6436
 1905TIP3   OH227205   3.660   0.165  30.794 -0.5571 -0.2372  0.1618
 1905TIP3    H127206   3.691   0.091  30.742  0.6684 -0.2172  0.8214
 1905TIP3    H227207   3.725   0.174  30.864 -1.2331  0.8283  0.6833
 1906TIP3   OH227208   3.640   1.211  40.889  0.5084 -0.2984 -0.2038
 1906TIP3    H127209   3.701   1.260  40.943  2.1341 -1.1594 -1.1655
 1906TIP3    H227210   3.613   1.138  40.944  1.9802 -1.0486 -0.4212
 1907TIP3   OH227211   3.442   1.211   2.617  0.2141 -0.4136 -0.0278
 1907TIP3    H127212   3.474   1.266   2.688  1.1499 -0.9310 -0.0379
 1907TIP3    H227213   3.396   1.139   2.660  0.2674 -0.4123  0.0302
 1908TIP3   OH227214   3.828   3.286  15.012 -0.7682 -0.1118  0.3393
 1908TIP3    H127215   3.857   3.311  14.924  2.0334  0.1066  1.2560
 1908TIP3    H227216   3.747   3.336  15.025 -0.0739  1.5344 -1.2842
 1909TIP3   OH227217   3.528   1.281  37.174 -0.1158 -0.1751 -0.7569
 1909TIP3    H127218   3.484   1.359  37.206 -1.6334 -0.6921 -1.4330
 1909TIP3    H227219   3.555   1.234  37.253 -0.8531  0.1383 -0.3091
 1910TIP3   OH227220   0.566   3.904  25.471 -0.1899  0.5888 -0.0105
 1910TIP3    H127221   0.603   3.850  25.541 -0.6820  0.2168 -0.0348
 1910TIP3    H227222   0.477   3.870  25.458  0.3067 -0.2074 -1.6928
 1911TIP3   OH227223   1.737   1.450  32.851  0.9733  0.0156 -0.5125
 1911TIP3    H127224   1.678   1.375  32.858  0.2306  0.5698 -0.6531
 1911TIP3    H227225   1.724   1.498  32.933  2.6080 -0.8066  0.2827
 1912TIP3   OH227226   2.979   1.248  43.471  0.5265  0.8338 -0.9682
 1912TIP3    H127227   2.914   1.264  43.540 -0.2737  1.1280 -1.7789
 1912TIP3    H227228   3.060   1.232  43.519 -0.0660  0.7786  0.0596
 1913TIP3   OH227229   3.088   2.177  35.528  0.1603 -0.4581  0.4864
 1913TIP3    H127230   3.163   2.233  35.549  0.7385 -1.3911  0.9827
 1913TIP3    H227231   3.066   2.199  35.437 -0.7863  1.8441  1.2006
 1914TIP3   OH227232   3.700   0.112   6.188  0.1471 -0.3291 -0.1100
 1914TIP3    H127233   3.655   0.035   6.153 -1.6226  0.6668 -0.1812
 1914TIP3    H227234   3.735   0.156   6.111  0.7804 -0.8104 -0.1086
 1915TIP3   OH227235   1.231   3.987  31.491 -0.1708  0.1902 -0.2541
 1915TIP3    H127236   1.296   3.916  31.492 -0.0195  0.2817 -1.6279
 1915TIP3    H227237   1.266   4.050  31.429 -0.6053  1.2071  0.5053
 1916TIP3   OH227238   2.963   3.574  42.684 -0.0316 -0.1291  0.0456
 1916TIP3    H127239   2.954   3.508  42.752  0.8479  0.0385  0.3315
 1916TIP3    H227240   3.024   3.638  42.720  1.0652 -0.4385 -1.1777
 1917TIP3   OH227241   3.591   0.114  41.717 -0.2985  0.1913  0.2158
 1917TIP3    H127242   3.569   0.207  41.727  2.0201  1.0466 -1.7626
 1917TIP3    H227243   3.548   0.088  41.636  0.0346 -0.1343  0.1417
 1918TIP3   OH227244   3.605   0.351  43.231  0.7420  0.3796 -0.3890
 1918TIP3    H127245   3.547   0.374  43.304  1.8645 -0.9950  1.0311
 1918TIP3    H227246   3.578   0.262  43.206  2.4200 -0.4724  0.5975
 1919TIP3   OH227247   0.993   2.503  12.658  0.8624 -0.2169 -0.2102
 1919TIP3    H127248   1.064   2.449  12.623 -0.2770 -0.7487 -1.8538
 1919TIP3    H227249   0.915   2.471  12.613 -0.8186 -1.0442  2.9937
 1920TIP3   OH227250   2.863   3.470  42.170  0.0400  0.5711 -0.2955
 1920TIP3    H127251   2.876   3.455  42.263  1.3807  0.6790 -0.4473
 1920TIP3    H227252   2.873   3.383  42.130 -0.4570  0.5367 -0.3490
 1921TIP3   OH227253   2.911   3.839  37.256  0.2642  0.2163  0.0714
 1921TIP3    H127254   2.851   3.765  37.259  0.6437 -0.1595 -1.2252
 1921TIP3    H227255   2.858   3.913  37.225  0.4653 -0.1345 -1.1557
 1922TIP3   OH227256   2.059   2.023  35.681 -0.1069  0.0026  0.2773
 1922TIP3    H127257   2.140   1.994  35.722 -0.2818  1.6774  1.9716
 1922TIP3    H227258   2.085   2.059  35.597  0.6178 -1.2293 -0.0450
 1923TIP3   OH227259   2.016   3.520  43.039  0.5555 -0.5109 -0.2721
 1923TIP3    H127260   1.966   3.465  43.099 -0.1606  1.1835  0.7424
 1923TIP3    H227261   2.060   3.458  42.981 -1.1822 -2.1158  0.0350
 1924TIP3   OH227262   1.647   2.300   9.276 -0.3580 -0.2299  0.0596
 1924TIP3    H127263   1.665   2.386   9.314 -1.2519 -0.0818  0.1584
 1924TIP3    H227264   1.640   2.317   9.182 -2.7245  0.2130  0.2669
 1925TIP3   OH227265   0.381   2.135  38.501 -0.5770  0.3914 -0.1941
 1925TIP3    H127266   0.312   2.181  38.453 -1.3707  0.4187  0.9494
 1925TIP3    H227267   0.398   2.056  38.450 -0.8971  0.7668 -0.8915
 1926TIP3   OH227268   0.476   0.816   3.051  0.0901 -0.6722  0.1673
 1926TIP3    H127269   0.509   0.800   2.963  0.5073  0.0524  0.1823
 1926TIP3    H227270   0.423   0.739   3.072 -0.3569 -0.6578 -0.8804
 1927TIP3   OH227271   0.045   3.420  12.710 -0.1647  0.1503 -0.0571
 1927TIP3    H127272   0.085   3.497  12.750 -0.6877  0.4654 -0.1359
 1927TIP3    H227273  -0.017   3.455  12.647  1.2756 -0.3111 -1.8390
 1928TIP3   OH227274   2.652   1.491  20.926 -0.5296  0.1615 -0.1503
 1928TIP3    H127275   2.628   1.579  20.897  1.1584  0.8307  0.3414
 1928TIP3    H227276   2.633   1.490  21.020 -0.7746 -0.1038 -0.1979
 1929TIP3   OH227277   2.011   1.709  11.661 -0.6316  0.2174  0.1073
 1929TIP3    H127278   2.015   1.629  11.608  1.3730  0.2653  0.1084
 1929TIP3    H227279   2.016   1.677  11.751  0.5279  0.3235  0.0986
 1930TIP3   OH227280   2.198   1.818  32.048  0.3468 -0.3888  0.1759
 1930TIP3    H127281   2.233   1.729  32.037 -1.3933 -1.2010  0.8428
 1930TIP3    H227282   2.137   1.829  31.975 -0.5456 -0.3260  0.9121
 1931TIP3   OH227283   1.402   2.775   7.226  0.0074  0.0242  0.1942
 1931TIP3    H127284   1.462   2.850   7.234 -0.2877  0.1437  1.5567
 1931TIP3    H227285   1.432   2.729   7.147  0.8974  0.9528 -0.0427
 1932TIP3   OH227286   1.674   2.020   9.058  0.0233 -0.1041  0.0608
 1932TIP3    H127287   1.735   2.086   9.090 -1.0783  0.3989  1.1998
 1932TIP3    H227288   1.684   1.947   9.119 -0.6711  0.0748  0.3950
 1933TIP3   OH227289   0.583   3.991  25.174  0.0316  0.2091  0.1608
 1933TIP3    H127290   0.612   3.947  25.253 -1.2410  0.5570  0.8465
 1933TIP3    H227291   0.492   4.014  25.191 -0.6350 -0.7000 -1.8175
 1934TIP3   OH227292   0.754   1.569   0.892  0.4722  0.2011  0.1958
 1934TIP3    H127293   0.698   1.598   0.819 -0.1668 -0.1168  0.5452
 1934TIP3    H227294   0.774   1.649   0.940  2.0151  0.6218 -1.0666
 1935TIP3   OH227295   2.991   0.916  20.739 -0.0094 -0.1898  0.2429
 1935TIP3    H127296   3.029   0.828  20.743 -1.6937 -0.9412  0.7773
 1935TIP3    H227297   2.988   0.945  20.830  0.5123  0.4353  0.0709
 1936TIP3   OH227298   3.680   0.846  42.887 -0.0897 -0.0218 -0.7879
 1936TIP3    H127299   3.711   0.920  42.835 -1.5345  0.3523 -1.1589
 1936TIP3    H227300   3.742   0.840  42.960  0.7305  0.7875 -1.3964
 1937TIP3   OH227301   0.958   3.519   9.707 -0.0129  0.1899 -0.4799
 1937TIP3    H127302   1.014   3.458   9.754 -1.6646 -0.5727  0.5763
 1937TIP3    H227303   0.917   3.572   9.775 -1.0646  0.3014 -1.1820
 1938TIP3   OH227304   0.378   2.673  16.560 -0.7884 -0.4517  0.4597
 1938TIP3    H127305   0.380   2.577  16.567  2.4943 -0.3731  2.5991
 1938TIP3    H227306   0.457   2.702  16.604  0.7400  3.0906 -3.8595
 1939TIP3   OH227307   3.009   3.770   7.399 -0.2355 -0.1919 -0.5322
 1939TIP3    H127308   2.984   3.786   7.307 -1.2533  2.7528  0.1300
 1939TIP3    H227309   2.940   3.714   7.433 -2.0123  1.8035 -0.6567
 1940TIP3   OH227310   4.095   2.084   8.409 -0.1278 -0.0977  0.4417
 1940TIP3    H127311   4.119   2.172   8.439  1.9050 -0.6681  0.6459
 1940TIP3    H227312   4.061   2.097   8.321  0.1718  0.9088  0.4639
 1941TIP3   OH227313   0.459   2.085  36.450  0.2549 -0.3516 -0.1552
 1941TIP3    H127314   0.539   2.138  36.454 -0.7366  1.1373  1.2561
 1941TIP3    H227315   0.388   2.147  36.469 -1.0601 -2.0245  0.6370
 1942TIP3   OH227316   3.399   0.138  39.663  0.4773 -0.4997  0.7018
 1942TIP3    H127317   3.339   0.079  39.710 -0.5570 -1.5845 -1.7887
 1942TIP3    H227318   3.385   0.117  39.570  0.0041  3.7280 -0.3920
 1943TIP3   OH227319   0.996   0.058   5.479  0.1457 -0.3296  0.2017
 1943TIP3    H127320   0.935   0.011   5.422  0.0282  0.9977 -0.8115
 1943TIP3    H227321   1.051  -0.010   5.518 -1.7226 -1.5421  0.8574
 1944TIP3   OH227322   2.672   2.816  15.478  0.0468 -0.4104  0.1837
 1944TIP3    H127323   2.596   2.820  15.537 -0.9524  0.4087 -1.0878
 1944TIP3    H227324   2.669   2.899  15.431  1.3895 -0.6452 -0.3453
 1945TIP3   OH227325   1.533   2.615   2.984 -0.5053 -0.0110 -0.8628
 1945TIP3    H127326   1.532   2.635   2.890  1.8939  0.9891 -0.7527
 1945TIP3    H227327   1.489   2.690   3.025  0.6735  0.8110 -1.0532
 1946TIP3   OH227328   0.873   2.868   3.003 -0.0558 -0.1287 -0.0678
 1946TIP3    H127329   0.814   2.929   2.958  3.3888  3.3282 -0.4215
 1946TIP3    H227330   0.889   2.799   2.939  0.2025  1.6267 -2.0154
 1947TIP3   OH227331   2.519   3.968   0.351 -0.4796 -0.2500  0.1953
 1947TIP3    H127332   2.469   3.951   0.431 -1.6289  1.4326 -0.1142
 1947TIP3    H227333   2.453   3.967   0.281 -0.7823  4.6287  0.0562
 1948TIP3   OH227334   3.606   1.309  46.351  0.1207  0.0055  0.1034
 1948TIP3    H127335   3.591   1.285  46.443  0.1654  0.6118  0.2778
 1948TIP3    H227336   3.592   1.228  46.302 -1.2105 -0.0362  0.5141
 1949TIP3   OH227337   1.794   2.184   3.735  0.2677 -0.6027  0.0286
 1949TIP3    H127338   1.885   2.163   3.754  0.1700 -0.2580  0.9338
 1949TIP3    H227339   1.795   2.278   3.716 -0.1261 -0.2290  1.7132
 1950TIP3   OH227340   2.457   1.078  36.488 -0.6466  0.7235 -0.0113
 1950TIP3    H127341   2.487   1.120  36.407 -2.3325  0.2272 -0.9468
 1950TIP3    H227342   2.511   1.000  36.496  0.8803  1.7883  0.4507
 1951TIP3   OH227343   1.117   3.763  10.365 -0.2708 -0.0896 -0.1835
 1951TIP3    H127344   1.177   3.837  10.369 -1.0355  0.5202  0.5201
 1951TIP3    H227345   1.030   3.802  10.378 -0.9742 -0.7818 -2.3232
 1952TIP3   OH227346   3.570   3.764  13.073  0.6373  0.8575 -1.2110
 1952TIP3    H127347   3.665   3.774  13.078  0.4628  2.4257 -0.1962
 1952TIP3    H227348   3.548   3.796  12.985  1.0256  0.6215 -1.3976
 1953TIP3   OH227349   1.566   3.199  13.728  0.7604  0.7509  0.1468
 1953TIP3    H127350   1.630   3.270  13.732  0.2065  1.1955  1.7038
 1953TIP3    H227351   1.481   3.243  13.730  0.4105  0.0514  0.9641
 1954TIP3   OH227352   3.008   2.463  42.121 -0.3044 -0.8155  0.0046
 1954TIP3    H127353   2.973   2.482  42.033 -0.7956 -0.3045  0.3052
 1954TIP3    H227354   3.048   2.376  42.112  1.9418  0.2902 -1.3742
 1955TIP3   OH227355   2.074   3.310  31.868  0.3729  0.2656  0.5695
 1955TIP3    H127356   2.140   3.241  31.873  0.5340  0.4216  0.6013
 1955TIP3    H227357   2.123   3.388  31.841  0.1647  0.3308  0.3777
 1956TIP3   OH227358   0.122   1.159   7.725 -0.2490  0.3227  0.0739
 1956TIP3    H127359   0.212   1.154   7.695  0.1949 -2.2762  1.5827
 1956TIP3    H227360   0.127   1.209   7.807  0.0625 -0.8938  0.8206
 1957TIP3   OH227361   1.868   2.763  36.764  0.4817  0.3605 -0.0467
 1957TIP3    H127362   1.899   2.734  36.849  3.3599 -0.8213 -1.3713
 1957TIP3    H227363   1.798   2.702  36.742  1.1272 -0.6378  0.5930
 1958TIP3   OH227364   2.126   0.777  47.374 -0.3649 -0.3107  0.3605
 1958TIP3    H127365   2.086   0.691  47.360  0.5768 -0.6870 -0.0843
 1958TIP3    H227366   2.192   0.762  47.441  0.1512 -0.0365 -0.0800
 1959TIP3   OH227367   4.026   1.066  31.829  0.1912 -0.2633  0.0658
 1959TIP3    H127368   4.118   1.071  31.803  0.1527  0.5016  0.0684
 1959TIP3    H227369   4.015   1.135  31.894 -0.4396 -0.1922 -0.1099
 1960TIP3   OH227370   1.818   3.549  29.698  0.2089  0.1167  0.0146
 1960TIP3    H127371   1.764   3.566  29.775 -0.9565 -2.1045 -0.2446
 1960TIP3    H227372   1.852   3.461  29.712  0.4444 -0.0973 -1.7480
 1961TIP3   OH227373   2.872   0.919  31.412 -0.3064  0.0108  0.3345
 1961TIP3    H127374   2.945   0.950  31.465  0.2137 -1.4721  0.5174
 1961TIP3    H227375   2.833   0.849  31.464 -1.9428  0.8273  0.2897
 1962TIP3   OH227376   2.878   0.367  12.655 -0.1493  0.1850  0.1519
 1962TIP3    H127377   2.886   0.352  12.561 -3.1600 -1.7491  0.0502
 1962TIP3    H227378   2.841   0.285  12.689  1.0139  0.7589  3.0744
 1963TIP3   OH227379   1.204   1.145  31.685 -0.0834  0.4433 -1.0117
 1963TIP3    H127380   1.141   1.212  31.711  0.1483 -0.1408  1.1862
 1963TIP3    H227381   1.160   1.062  31.703  0.7278  0.0244 -0.9104
 1964TIP3   OH227382   1.713   0.835  10.537 -0.4919  0.0553 -0.0101
 1964TIP3    H127383   1.747   0.769  10.477 -0.8922 -0.6824  0.5650
 1964TIP3    H227384   1.698   0.788  10.619 -0.8201  0.8529  0.3985
 1965TIP3   OH227385   2.031   2.937  14.114  0.0877  0.3536 -0.1985
 1965TIP3    H127386   2.096   2.885  14.067  0.8582  1.7533 -0.7164
 1965TIP3    H227387   2.050   2.920  14.206 -1.3474 -2.2980 -0.3026
 1966TIP3   OH227388   3.419   1.094   1.595 -0.3730  1.1068 -0.3150
 1966TIP3    H127389   3.393   1.169   1.541  3.7844  2.7871 -0.3468
 1966TIP3    H227390   3.419   1.128   1.684  2.2107  1.5193 -0.3945
 1967TIP3   OH227391   2.262   1.108   4.612  0.0838 -0.0961  0.0378
 1967TIP3    H127392   2.311   1.187   4.589  0.9965 -0.9251 -0.9403
 1967TIP3    H227393   2.260   1.057   4.531 -4.0881  0.7246 -0.6387
 1968TIP3   OH227394   2.429   2.012   1.005 -0.4597  0.3209  0.4887
 1968TIP3    H127395   2.462   2.022   0.916 -0.6648  1.0942  0.4892
 1968TIP3    H227396   2.500   1.969   1.052 -0.3817 -0.1628 -0.0626
 1969TIP3   OH227397   2.427   1.445   1.452  0.1615  0.1087 -0.2600
 1969TIP3    H127398   2.414   1.353   1.475  1.4317  0.1476  0.7472
 1969TIP3    H227399   2.411   1.448   1.358 -2.3805 -0.6298  0.0653
 1970TIP3   OH227400   2.426   3.947  37.101  0.2371  0.9412  0.5247
 1970TIP3    H127401   2.494   3.909  37.045  0.9821  0.5832  1.6304
 1970TIP3    H227402   2.344   3.916  37.064  0.7025  0.8025 -0.4211
 1971TIP3   OH227403   2.964   4.043  42.395  0.0012  0.2270  0.1571
 1971TIP3    H127404   2.930   3.987  42.465  0.9725  0.5316  0.8820
 1971TIP3    H227405   3.049   4.073  42.426  0.1743  0.8834 -0.8827
 1972TIP3   OH227406   2.254   1.997   7.441 -0.9535 -0.5808 -0.9790
 1972TIP3    H127407   2.203   1.919   7.417  0.9737 -1.7302 -1.4898
 1972TIP3    H227408   2.336   1.988   7.394 -0.7981  1.9819 -1.3380
 1973TIP3   OH227409   2.240   2.197  38.186  0.5251 -0.5171  0.0392
 1973TIP3    H127410   2.332   2.215  38.168  0.5201  1.6303  1.6458
 1973TIP3    H227411   2.237   2.104  38.209  2.6902 -0.2379  1.8832
 1974TIP3   OH227412   2.530   2.856   7.580  0.2101  0.5546  0.3763
 1974TIP3    H127413   2.605   2.915   7.569 -0.2703  0.9188 -1.2500
 1974TIP3    H227414   2.479   2.867   7.500 -1.1605 -0.3065  1.0878
 1975TIP3   OH227415   3.299   0.772  39.630 -0.0897  0.0636 -0.4691
 1975TIP3    H127416   3.230   0.838  39.637  0.3002  0.4053  0.1741
 1975TIP3    H227417   3.273   0.704  39.691  1.3660  1.3090  1.6484
 1976TIP3   OH227418   1.807   0.388  36.218  0.3830 -0.0552 -0.5001
 1976TIP3    H127419   1.838   0.310  36.264  2.0303 -0.0849 -1.5631
 1976TIP3    H227420   1.831   0.461  36.275 -1.5911 -0.3034  0.7235
 1977TIP3   OH227421   2.894   3.433  32.252  0.0352 -0.3988 -0.1697
 1977TIP3    H127422   2.844   3.354  32.270 -0.0016 -0.3989 -0.2755
 1977TIP3    H227423   2.985   3.406  32.261  0.0156  0.1494  2.4637
 1978TIP3   OH227424   2.865   0.050  41.733  0.1200 -0.0903 -0.1594
 1978TIP3    H127425   2.835   0.105  41.805  0.6638  0.1314 -0.0962
 1978TIP3    H227426   2.940   0.002  41.769 -0.4918 -1.0506 -0.1378
 1979TIP3   OH227427   0.687   1.857   9.077 -0.1466  0.0786 -0.4676
 1979TIP3    H127428   0.731   1.785   9.032  0.8766  0.5504 -0.2624
 1979TIP3    H227429   0.735   1.866   9.160  0.2078  1.4283 -0.7848
 1980TIP3   OH227430   3.268   1.450  35.600  0.2960  0.0467 -0.3584
 1980TIP3    H127431   3.288   1.524  35.658 -0.3814  0.3845 -0.5429
 1980TIP3    H227432   3.297   1.373  35.649  0.3070  0.3778  0.1665
 1981TIP3   OH227433   0.484   0.868  45.048 -1.2912 -0.3844  0.0252
 1981TIP3    H127434   0.491   0.806  45.120 -1.3610 -1.1334 -0.5884
 1981TIP3    H227435   0.530   0.946  45.078  1.9168 -1.9362 -0.4561
 1982TIP3   OH227436   2.001   2.040  33.268 -0.1069  0.0056  0.6654
 1982TIP3    H127437   2.006   1.979  33.195 -0.7743  1.2450 -0.4457
 1982TIP3    H227438   1.908   2.050  33.286 -0.0389  1.0741  0.4931
 1983TIP3   OH227439   0.880   1.451  11.525  0.3055 -0.1634  0.7158
 1983TIP3    H127440   0.931   1.388  11.473 -0.4778 -1.4690  1.4599
 1983TIP3    H227441   0.828   1.499  11.461  0.6645 -0.5170  0.1539
 1984TIP3   OH227442   2.310   0.650  34.731  0.2012 -0.4225 -0.0182
 1984TIP3    H127443   2.246   0.600  34.681 -1.0751 -1.8837  2.8117
 1984TIP3    H227444   2.267   0.665  34.816  2.7018  0.6357  1.1692
 1985TIP3   OH227445   3.416   0.221   9.036 -0.1744 -0.4430  0.3861
 1985TIP3    H127446   3.433   0.130   9.061 -2.1750 -0.7562  0.7899
 1985TIP3    H227447   3.371   0.258   9.112 -0.0913  0.6586 -0.0879
 1986TIP3   OH227448   1.470   3.645  46.960  0.3890 -0.5881  0.6769
 1986TIP3    H127449   1.512   3.730  46.975  0.5762 -0.2949 -1.2762
 1986TIP3    H227450   1.532   3.581  46.995  1.9690 -0.0929 -1.0632
 1987TIP3   OH227451   1.000   2.209  42.146 -0.0136  0.1544  0.0811
 1987TIP3    H127452   0.931   2.202  42.081  0.5000  0.4868 -0.5154
 1987TIP3    H227453   1.081   2.216  42.095  0.3760  0.7109  0.7482
 1988TIP3   OH227454   3.891   3.912  29.097  0.6628  0.1379  0.3508
 1988TIP3    H127455   3.859   3.868  29.176  1.2437 -0.0290  0.4956
 1988TIP3    H227456   3.943   3.846  29.051  0.0980  0.1515 -0.3169
 1989TIP3   OH227457   0.403   3.736  12.854  0.0276  0.2886 -0.1685
 1989TIP3    H127458   0.480   3.681  12.870 -0.8023 -0.8894 -0.0780
 1989TIP3    H227459   0.360   3.696  12.778 -1.0954  0.2279  0.4768
 1990TIP3   OH227460   2.304   2.944   1.350  0.3482 -0.3122  0.3779
 1990TIP3    H127461   2.235   3.008   1.365  0.4126 -0.6069  2.1937
 1990TIP3    H227462   2.377   2.995   1.314 -0.3327  0.2442 -0.2298
 1991TIP3   OH227463   0.149   1.656  38.195  0.2636  0.2151 -0.5047
 1991TIP3    H127464   0.134   1.740  38.238  0.2767  0.3938 -0.8451
 1991TIP3    H227465   0.244   1.648  38.190  0.2651  0.8932 -1.8451
 1992TIP3   OH227466   2.172   0.695  43.080 -0.2359  0.2399 -0.6527
 1992TIP3    H127467   2.139   0.613  43.116  1.0258 -1.1562 -2.5010
 1992TIP3    H227468   2.112   0.715  43.008  1.9070 -1.5787 -3.1313
 1993TIP3   OH227469   3.442   0.635  43.937 -0.4430  0.4280  0.0358
 1993TIP3    H127470   3.458   0.680  44.020 -0.3583 -0.0738  0.2948
 1993TIP3    H227471   3.371   0.684  43.897 -0.9880  0.2447  0.7425
 1994TIP3   OH227472   0.592   0.530  42.061 -0.2423  0.0464 -0.4198
 1994TIP3    H127473   0.612   0.436  42.068 -0.1556 -0.2093 -3.1000
 1994TIP3    H227474   0.516   0.534  42.003 -1.0198  1.6129  0.6521
 1995TIP3   OH227475   0.944   2.281  39.940 -0.1022  0.3516 -0.1491
 1995TIP3    H127476   0.868   2.270  39.883  0.1038 -0.5568 -0.2610
 1995TIP3    H227477   0.947   2.201  39.992  0.8620  0.3081 -0.2471
 1996TIP3   OH227478   3.136   3.201  13.194  0.6128  0.3597  0.5686
 1996TIP3    H127479   3.111   3.109  13.180  3.0327 -0.6902  2.3176
 1996TIP3    H227480   3.062   3.238  13.243 -0.4647 -0.6066 -0.2642
 1997TIP3   OH227481   2.382   2.775  32.016  0.5955  0.4496 -1.0726
 1997TIP3    H127482   2.332   2.846  32.056  1.0574  0.0067  0.3277
 1997TIP3    H227483   2.344   2.695  32.052  1.9734  0.0902 -0.3512
 1998TIP3   OH227484   3.090   0.726  30.797 -0.8052 -0.0500 -0.3923
 1998TIP3    H127485   3.059   0.808  30.760 -0.5098 -0.0193 -0.5777
 1998TIP3    H227486   3.161   0.698  30.739  2.4082  1.9816  2.1992
 1999TIP3   OH227487   1.902   3.246   5.816  0.0522  0.2671 -0.1924
 1999TIP3    H127488   1.837   3.212   5.876  1.4142 -0.4470  0.9341
 1999TIP3    H227489   1.871   3.220   5.729  0.4673 -3.0420  0.5125
 2000TIP3   OH227490   0.622   1.930  35.429 -0.1111 -0.3599 -0.4149
 2000TIP3    H127491   0.692   1.869  35.455 -1.3529 -1.4903  0.4250
 2000TIP3    H227492   0.569   1.880  35.368 -1.2390 -0.1927  0.3995
 2001TIP3   OH227493   3.484   0.462  37.201 -0.2801 -0.1267  0.0425
 2001TIP3    H127494   3.478   0.547  37.157  3.6594  0.6803  0.6885
 2001TIP3    H227495   3.559   0.419  37.161  0.3974 -1.4849  2.5462
 2002TIP3   OH227496   1.446   0.872  46.616  0.3877  0.4820  0.7553
 2002TIP3    H127497   1.407   0.959  46.603  0.3939  0.5840  1.3967
 2002TIP3    H227498   1.537   0.883  46.589  0.3980  0.6913  0.8703
 2003TIP3   OH227499   0.099   0.908  35.792  0.6058 -0.5145  0.1972
 2003TIP3    H127500   0.078   0.890  35.884  0.4263  1.1282  0.5070
 2003TIP3    H227501   0.182   0.955  35.795  1.2937 -1.6272 -0.5969
 2004TIP3   OH227502   2.805   1.422   0.648 -0.4516 -0.1248 -0.1873
 2004TIP3    H127503   2.773   1.356   0.585 -1.9152  0.7950 -0.4594
 2004TIP3    H227504   2.864   1.477   0.598  0.1278 -0.7219 -0.1715
 2005TIP3   OH227505   3.469   0.369  41.748  0.3866 -0.0984 -0.1546
 2005TIP3    H127506   3.462   0.419  41.666 -5.1940 -1.2639 -0.7202
 2005TIP3    H227507   3.440   0.431  41.815  0.8499 -0.4012  0.3267
 2006TIP3   OH227508   0.450   0.451  35.514  0.2955 -0.1935  0.2010
 2006TIP3    H127509   0.526   0.470  35.569  0.3052 -0.6270  0.3409
 2006TIP3    H227510   0.432   0.358  35.529 -0.7924  0.1056  0.8205
 2007TIP3   OH227511   1.717   0.912  13.836 -0.0387 -0.3724 -0.3988
 2007TIP3    H127512   1.757   0.894  13.751  0.0975 -0.3178 -0.3479
 2007TIP3    H227513   1.754   0.845  13.894  1.5288  0.8468  0.1046
 2008TIP3   OH227514   2.547   2.390  12.264 -0.6338 -0.2035  0.5141
 2008TIP3    H127515   2.565   2.470  12.214  0.4260 -0.3094  0.7030
 2008TIP3    H227516   2.490   2.339  12.206 -2.5385  1.2746  0.9734
 2009TIP3   OH227517   2.603   2.805  45.587 -0.3611  0.7765 -0.1960
 2009TIP3    H127518   2.696   2.792  45.569 -0.6366  0.2001 -1.2921
 2009TIP3    H227519   2.599   2.823  45.681  0.8830  1.1443 -0.1972
 2010TIP3   OH227520   3.727   2.798  40.687  0.1784  0.7092  0.0116
 2010TIP3    H127521   3.722   2.707  40.659 -2.2057  0.4820  0.9757
 2010TIP3    H227522   3.719   2.795  40.783 -0.6696  1.9405  0.0091
 2011TIP3   OH227523   2.876   2.734   5.913 -0.2846 -0.0278 -0.0860
 2011TIP3    H127524   2.948   2.790   5.938  0.3418 -1.4497  1.4606
 2011TIP3    H227525   2.805   2.756   5.974 -1.0742  1.0633 -1.3261
 2012TIP3   OH227526   0.451   3.371   7.392  0.8961 -0.3662 -0.4807
 2012TIP3    H127527   0.479   3.458   7.420  2.6315 -1.2007  0.5563
 2012TIP3    H227528   0.421   3.328   7.473 -2.5045  0.0652 -1.3528
 2013TIP3   OH227529   1.213   1.605   6.168  0.1576 -0.0791 -0.2314
 2013TIP3    H127530   1.197   1.638   6.256  2.3290  1.2675 -0.2664
 2013TIP3    H227531   1.151   1.653   6.113 -0.1722  0.1845  0.3622
 2014TIP3   OH227532   3.050   3.083   2.840  0.2082 -0.4599 -0.4027
 2014TIP3    H127533   3.115   3.057   2.775  0.8504  0.0882  0.0102
 2014TIP3    H227534   3.058   3.019   2.911 -0.4369 -1.0103 -0.8126
 2015TIP3   OH227535   2.047   3.333  42.474  0.0330  0.1998 -0.1178
 2015TIP3    H127536   2.138   3.305  42.465 -0.1237 -0.2283 -0.4289
 2015TIP3    H227537   2.025   3.369  42.388 -0.2796 -0.2818 -0.2436
 2016TIP3   OH227538   0.496   2.741  35.143 -0.4650  0.2034 -0.1464
 2016TIP3    H127539   0.448   2.716  35.064  0.1058  0.8618 -0.7196
 2016TIP3    H227540   0.558   2.808  35.113  2.0253 -1.7970  0.2131
 2017TIP3   OH227541   4.027   0.369  35.807  0.0871 -0.3420 -0.2864
 2017TIP3    H127542   3.951   0.395  35.755  0.3282 -1.6326 -1.3651
 2017TIP3    H227543   4.099   0.369  35.744  0.6580 -0.6828  0.3575
 2018TIP3   OH227544   0.334   1.308  12.088 -0.5092  0.1255 -0.3648
 2018TIP3    H127545   0.273   1.380  12.070 -1.7760 -1.1120 -1.2002
 2018TIP3    H227546   0.282   1.245  12.139 -0.5606 -1.8090 -2.6640
 2019TIP3   OH227547   2.482   1.220  11.323 -0.1478 -0.5210  0.2057
 2019TIP3    H127548   2.575   1.202  11.338 -0.2778 -0.8119  0.6612
 2019TIP3    H227549   2.478   1.251  11.233  0.3753 -0.6428  0.1392
 2020TIP3   OH227550   2.103   1.007  33.673 -0.0977  0.3439 -0.0666
 2020TIP3    H127551   2.067   1.095  33.667 -3.1198 -0.6873  1.2827
 2020TIP3    H227552   2.070   0.962  33.595  0.8675  0.1694 -0.3938
 2021TIP3   OH227553   2.654   0.530  14.469  0.3424 -0.9138  0.9471
 2021TIP3    H127554   2.637   0.520  14.563 -1.7920  0.1308  0.7219
 2021TIP3    H227555   2.717   0.603  14.463 -0.9160  0.2534  1.5101
 2022TIP3   OH227556   1.808   1.206  13.509  0.9517  0.4698 -0.1701
 2022TIP3    H127557   1.734   1.252  13.470  0.6249  0.3892  0.3449
 2022TIP3    H227558   1.789   1.205  13.602  0.6998 -1.1313 -0.2140
 2023TIP3   OH227559   3.421   1.218  17.319 -0.5132  0.8378  0.0487
 2023TIP3    H127560   3.496   1.224  17.378 -0.4854 -2.1739  0.4979
 2023TIP3    H227561   3.448   1.264  17.240  2.2274 -0.8249 -0.1290
 2024TIP3   OH227562   3.585   1.091   4.730  0.7876  0.0283 -0.2463
 2024TIP3    H127563   3.554   1.088   4.640  1.3247 -1.3626 -0.4107
 2024TIP3    H227564   3.610   1.183   4.743 -2.0081  0.9123 -0.5284
 2025TIP3   OH227565   1.629   3.053  34.116 -0.1047  0.5142 -0.1096
 2025TIP3    H127566   1.673   3.130  34.081  1.0843 -0.7102 -1.4744
 2025TIP3    H227567   1.634   3.064  34.211  2.2384  0.9898 -0.2066
 2026TIP3   OH227568   2.488   2.156   8.022 -0.1772  0.1736 -0.2204
 2026TIP3    H127569   2.393   2.167   8.021 -0.2117  0.0533  0.7721
 2026TIP3    H227570   2.513   2.167   8.114  0.3547 -3.2743  0.1728
 2027TIP3   OH227571   3.448   0.001  33.990  0.2190  0.0793  0.1930
 2027TIP3    H127572   3.542   0.017  33.986  0.5173 -1.3234  0.7897
 2027TIP3    H227573   3.429  -0.048  33.910  0.3179 -0.9929  0.8010
 2028TIP3   OH227574   0.663   2.175  10.679  0.6760 -0.2675 -0.1524
 2028TIP3    H127575   0.756   2.193  10.667  1.1018  0.8272  3.5209
 2028TIP3    H227576   0.619   2.255  10.651  1.0194 -0.0112  0.0391
 2029TIP3   OH227577   1.861   2.524  14.298  0.1563 -0.2605  0.4626
 2029TIP3    H127578   1.860   2.431  14.321  1.6405 -0.5689 -0.6523
 2029TIP3    H227579   1.769   2.544  14.278 -0.1798 -1.4774  0.6918
 2030TIP3   OH227580   3.874   0.481  11.783  0.1803 -0.3474  0.3866
 2030TIP3    H127581   3.904   0.412  11.842 -0.1665 -0.4724  0.4189
 2030TIP3    H227582   3.885   0.444  11.695 -0.2331 -0.5383  0.4130
 2031TIP3   OH227583   4.057   3.624   8.636 -0.6923 -0.1497  0.2294
 2031TIP3    H127584   4.024   3.641   8.547 -0.1445  0.3516  0.1113
 2031TIP3    H227585   4.124   3.557   8.624 -0.5072  0.0300  0.2327
 2032TIP3   OH227586   3.745   0.016  28.150 -0.2701 -0.7825 -0.0809
 2032TIP3    H127587   3.654  -0.013  28.142 -0.1961 -1.0021 -0.1281
 2032TIP3    H227588   3.746   0.068  28.230 -0.0898 -2.1222  0.8171
 2033TIP3   OH227589   4.045   0.094  12.495  0.3688  0.2533 -0.0670
 2033TIP3    H127590   4.075   0.086  12.405 -0.5644 -1.3489 -0.2748
 2033TIP3    H227591   4.014   0.006  12.518 -2.3200  1.2878  0.7193
 2034TIP3   OH227592   0.790   1.876  17.913 -0.3572 -0.1001 -0.4634
 2034TIP3    H127593   0.740   1.923  17.980  1.0520  0.7695  0.0114
 2034TIP3    H227594   0.877   1.916  17.915 -0.2692  0.0051 -2.8443
 2035TIP3   OH227595   3.704   0.432  47.690 -0.2927 -0.0526 -1.1065
 2035TIP3    H127596   3.670   0.494  47.626 -1.1071 -0.2004 -0.8299
 2035TIP3    H227597   3.791   0.408  47.656  0.0422  1.2205 -1.2149
 2036TIP3   OH227598   2.132   3.039  44.888 -0.1313 -0.2789  1.0557
 2036TIP3    H127599   2.187   3.111  44.857  1.1393 -1.0061  1.5203
 2036TIP3    H227600   2.096   3.070  44.971 -1.2970  0.6024  0.2500
 2037TIP3   OH227601   3.915   2.286  31.767 -0.1577 -0.2125 -0.2066
 2037TIP3    H127602   3.853   2.303  31.838  0.6354  0.1992  0.3972
 2037TIP3    H227603   3.916   2.190  31.759  0.4922 -0.3243  1.0177
 2038TIP3   OH227604   2.275   1.444  22.546 -0.1672  0.2228 -0.0253
 2038TIP3    H127605   2.361   1.483  22.531 -1.1795  2.0376 -1.7026
 2038TIP3    H227606   2.252   1.471  22.635  0.8415  0.0427  0.2991
 2039TIP3   OH227607   2.910   0.872  40.780  0.1307 -0.2825  0.4323
 2039TIP3    H127608   2.981   0.901  40.722 -1.0932 -1.4912 -1.8284
 2039TIP3    H227609   2.830   0.888  40.730 -0.9982 -1.5535  1.7126
 2040TIP3   OH227610   3.937   2.900   3.674  0.5246 -0.0392  0.0575
 2040TIP3    H127611   3.880   2.976   3.671 -1.2652 -1.3166  0.0323
 2040TIP3    H227612   3.991   2.913   3.751 -0.2532  0.9130  0.4591
 2041TIP3   OH227613   3.825   3.312  12.997 -0.2571  0.1726  0.0331
 2041TIP3    H127614   3.760   3.364  13.044 -1.5937 -0.9080 -0.5303
 2041TIP3    H227615   3.783   3.292  12.913  0.6974 -0.8077 -0.2315
 2042TIP3   OH227616   4.000   0.916  12.067  0.1382  0.2786  0.4158
 2042TIP3    H127617   3.994   0.848  11.999  1.1394  0.8761 -0.3114
 2042TIP3    H227618   4.030   0.869  12.145  0.9829 -0.0978 -0.1215
 2043TIP3   OH227619   2.276   0.982   9.137 -0.0996  0.2223 -0.0263
 2043TIP3    H127620   2.198   1.003   9.086  0.5016 -0.8464 -1.4179
 2043TIP3    H227621   2.332   1.059   9.127 -0.2000  0.2298 -0.5568
 2044TIP3   OH227622   0.113   0.670  46.316 -0.8789 -1.1703 -0.1033
 2044TIP3    H127623   0.203   0.640  46.329 -0.5291 -0.1136  0.0240
 2044TIP3    H227624   0.065   0.592  46.290  0.2553 -1.5801 -1.0593
 2045TIP3   OH227625   0.038   1.386   1.412 -0.3518 -0.0612  0.1215
 2045TIP3    H127626   0.044   1.291   1.396  1.1759  0.0460 -0.1533
 2045TIP3    H227627   0.129   1.416   1.409 -0.9103  1.6471 -1.1004
 2046TIP3   OH227628   0.864   0.283  45.691  0.0446  0.7851 -0.4238
 2046TIP3    H127629   0.954   0.312  45.701  0.0195  1.2413 -1.3839
 2046TIP3    H227630   0.858   0.204  45.744  1.1540  0.4641 -0.7432
 2047TIP3   OH227631   1.592   0.619   5.572  0.1919 -0.0342 -0.4590
 2047TIP3    H127632   1.639   0.641   5.491  1.7981 -1.5129  0.0408
 2047TIP3    H227633   1.572   0.526   5.564  0.6249 -0.2737  0.9582
 2048TIP3   OH227634   2.539   1.630  15.009  0.5238  0.6087 -0.0850
 2048TIP3    H127635   2.594   1.559  15.042  0.5491 -1.0768 -3.3658
 2048TIP3    H227636   2.452   1.592  15.003  0.5153  0.8448 -1.8037
 2049TIP3   OH227637   0.254   2.229  13.401 -0.4575 -0.0434 -0.1369
 2049TIP3    H127638   0.267   2.137  13.424 -0.6331 -0.2475 -0.8480
 2049TIP3    H227639   0.343   2.264  13.391 -0.2667  0.5593  2.7102
 2050TIP3   OH227640   0.532   2.704  33.707 -0.5359 -0.1506 -0.5171
 2050TIP3    H127641   0.549   2.767  33.637  0.6223 -1.4223 -1.4373
 2050TIP3    H227642   0.465   2.646  33.672 -0.8376 -0.0688 -0.0850
 2051TIP3   OH227643   0.003   3.109  12.180  0.3836  0.1585  0.0090
 2051TIP3    H127644   0.081   3.053  12.176  0.7971  0.4964  2.1503
 2051TIP3    H227645  -0.070   3.047  12.173  0.8227 -0.3006 -0.7119
 2052TIP3   OH227646   2.825   0.620  34.024  0.0828  0.1383  0.1391
 2052TIP3    H127647   2.800   0.652  34.111 -0.8939 -0.4616  0.0878
 2052TIP3    H227648   2.762   0.551  34.004  0.9115 -0.4166 -0.6305
 2053TIP3   OH227649   2.595   2.029   1.857 -0.3517  0.2098  0.0063
 2053TIP3    H127650   2.561   1.945   1.825  0.6257  0.0877 -0.7871
 2053TIP3    H227651   2.573   2.030   1.950 -0.3207 -0.9642  0.0489
 2054TIP3   OH227652   2.664   0.920   4.770  0.3791  0.1874 -0.4403
 2054TIP3    H127653   2.681   1.009   4.803 -1.0161  0.6457 -0.8941
 2054TIP3    H227654   2.665   0.865   4.848  0.4132  0.7362 -0.0443
 2055TIP3   OH227655   2.599   2.151   8.319  0.9270 -0.0279 -0.4698
 2055TIP3    H127656   2.555   2.068   8.301  0.8341 -1.0725  3.5194
 2055TIP3    H227657   2.691   2.128   8.333  0.3483 -0.5045  4.5711
 2056TIP3   OH227658   2.234   0.957   2.413 -0.3036 -0.4061 -0.0070
 2056TIP3    H127659   2.269   1.031   2.462 -0.4439  0.8986 -1.7956
 2056TIP3    H227660   2.273   0.965   2.326 -1.0304 -1.9282 -0.5118
 2057TIP3   OH227661   3.282   2.764  31.797 -0.2794  0.3942 -0.2141
 2057TIP3    H127662   3.204   2.716  31.825 -1.6900  1.1356 -2.6055
 2057TIP3    H227663   3.256   2.856  31.799  1.5410  0.9565  1.7503
 2058TIP3   OH227664   1.750   2.886   6.275 -0.0444  0.1667  0.3538
 2058TIP3    H127665   1.817   2.841   6.327  0.0801  0.4420  0.4349
 2058TIP3    H227666   1.791   2.899   6.189  0.9728  2.5265  1.1005
 2059TIP3   OH227667   1.379   3.348  46.090 -0.0735 -0.2793  0.5569
 2059TIP3    H127668   1.369   3.355  45.995  0.5896  0.1964  0.5099
 2059TIP3    H227669   1.454   3.290  46.102  0.3593  0.3069  0.7612
 2060TIP3   OH227670   1.614   3.417  41.151  0.1955 -0.2556  0.0327
 2060TIP3    H127671   1.591   3.409  41.244 -1.6123  1.9219 -0.1515
 2060TIP3    H227672   1.549   3.362  41.106  1.8380 -2.3398  0.0368
 2061TIP3   OH227673   3.948   2.953  39.453 -0.0206  0.3085  0.0586
 2061TIP3    H127674   4.031   2.997  39.438  1.1603 -1.2632  1.6530
 2061TIP3    H227675   3.957   2.869  39.408 -0.9647  0.3346 -0.2006
 2062TIP3   OH227676   0.683   4.040  39.462  0.2315  0.0352 -0.2285
 2062TIP3    H127677   0.752   4.097  39.427 -1.3680  1.4022 -1.3325
 2062TIP3    H227678   0.726   3.957  39.478  1.8697  0.4432 -2.1135
 2063TIP3   OH227679   3.432   1.102   1.000 -0.4792  0.5383  0.0850
 2063TIP3    H127680   3.389   1.090   1.084  0.1516 -0.6184  0.2623
 2063TIP3    H227681   3.422   1.196   0.981  0.6441  1.1558  2.1539
 2064TIP3   OH227682   2.053   2.777   2.456 -0.3015 -0.0699 -0.0571
 2064TIP3    H127683   2.130   2.798   2.509  0.1661 -2.8889  0.5592
 2064TIP3    H227684   2.062   2.831   2.377  1.9939  0.1164  0.2687
 2065TIP3   OH227685   0.849   2.684   8.443 -0.4007  0.1510 -0.1661
 2065TIP3    H127686   0.839   2.651   8.533 -5.8845  0.9809 -0.1557
 2065TIP3    H227687   0.838   2.606   8.388  1.3165 -0.0867 -0.2404
 2066TIP3   OH227688   1.431   3.237  36.050 -0.1406 -0.4481 -0.4758
 2066TIP3    H127689   1.442   3.228  35.955 -1.4253  0.1813 -0.7023
 2066TIP3    H227690   1.436   3.331  36.066 -0.1832 -0.5336  0.0477
 2067TIP3   OH227691   1.247   1.534  37.727 -0.2663  0.1059  0.0771
 2067TIP3    H127692   1.271   1.445  37.755  1.4962  0.4552 -0.2451
 2067TIP3    H227693   1.273   1.538  37.635 -1.2531  0.6553 -0.1924
 2068TIP3   OH227694   0.740   1.384  10.664  0.7967 -0.1537 -0.1570
 2068TIP3    H127695   0.782   1.304  10.694  0.6296 -0.0078  0.4822
 2068TIP3    H227696   0.649   1.376  10.693  1.1756  1.0384  1.4963
 2069TIP3   OH227697   0.565   1.670  20.652  0.2272 -0.3158  0.4841
 2069TIP3    H127698   0.496   1.733  20.672  0.4179  0.0223  0.0827
 2069TIP3    H227699   0.518   1.595  20.615 -0.1235 -0.9198  2.0741
 2070TIP3   OH227700   4.087   1.591   6.504 -0.4210 -0.8157  0.1890
 2070TIP3    H127701   4.089   1.568   6.597  1.2441  1.3816  0.7938
 2070TIP3    H227702   3.996   1.617   6.488 -0.1985  1.5102  2.0510
 2071TIP3   OH227703   3.711   0.301  26.636  0.3155  0.4046  0.3449
 2071TIP3    H127704   3.769   0.377  26.638 -0.1964  0.8896 -1.5983
 2071TIP3    H227705   3.733   0.256  26.554  1.1540 -2.0324  1.7842
 2072TIP3   OH227706   3.543   0.319  28.773 -0.4606 -0.0146  0.6171
 2072TIP3    H127707   3.534   0.316  28.677  1.9957  0.0310  0.3283
 2072TIP3    H227708   3.610   0.385  28.789 -2.1629  1.3541  2.5423
 2073TIP3   OH227709   3.095   2.443  15.773 -0.3391  0.0942  0.1167
 2073TIP3    H127710   3.071   2.352  15.756 -0.3090  0.6255 -4.0432
 2073TIP3    H227711   3.013   2.492  15.764  0.0240  0.6698 -0.1716
 2074TIP3   OH227712   1.341   3.518   6.968  0.0719 -0.1242 -0.1969
 2074TIP3    H127713   1.326   3.438   7.017  3.5512 -0.5742  0.3696
 2074TIP3    H227714   1.390   3.491   6.891 -0.2014  1.2889 -0.9115
 2075TIP3   OH227715   2.518   3.537  11.264  0.2237  0.3249  0.1239
 2075TIP3    H127716   2.545   3.606  11.323  0.1508 -1.0563  1.8461
 2075TIP3    H227717   2.579   3.543  11.190  1.1251  1.2909  0.9241
 2076TIP3   OH227718   0.020   3.675  13.252 -0.0265  0.5474  0.5598
 2076TIP3    H127719   0.062   3.598  13.288 -1.3168  0.1023  1.1832
 2076TIP3    H227720   0.037   3.671  13.158  1.9332  0.8108  0.8621
 2077TIP3   OH227721   0.420   3.270   2.515  0.2779 -0.3712 -0.2834
 2077TIP3    H127722   0.399   3.231   2.430  1.7266 -2.3074  0.1978
 2077TIP3    H227723   0.363   3.348   2.519 -1.2284 -1.2675 -2.1719
 2078TIP3   OH227724   1.600   1.050  10.197  0.0828 -0.1858  0.3195
 2078TIP3    H127725   1.624   1.016  10.111 -0.1264  1.6803 -0.5137
 2078TIP3    H227726   1.508   1.028  10.207  0.2616 -0.9504  0.3626
 2079TIP3   OH227727   2.764   3.703   2.532 -0.3787  0.0784 -0.1278
 2079TIP3    H127728   2.838   3.701   2.472  0.4981  2.1788  0.7760
 2079TIP3    H227729   2.739   3.796   2.536 -1.0694 -0.1485  1.9237
 2080TIP3   OH227730   1.515   3.559  36.776 -0.1713  0.3411 -0.1409
 2080TIP3    H127731   1.514   3.563  36.872  0.1824  2.0902 -0.1697
 2080TIP3    H227732   1.596   3.512  36.755 -0.5121 -0.5135  0.4136
 2081TIP3   OH227733   1.802   3.431  37.553  0.2033  0.3390  0.2777
 2081TIP3    H127734   1.809   3.473  37.467  0.9079 -0.9090 -0.2997
 2081TIP3    H227735   1.728   3.370  37.544  2.1169 -2.0214 -0.4812
 2082TIP3   OH227736   2.709   0.645  34.269  0.8183  0.5502 -0.3166
 2082TIP3    H127737   2.614   0.648  34.281  0.7436  1.0223 -0.9985
 2082TIP3    H227738   2.741   0.595  34.345  0.0148  0.2431 -0.1721
 2083TIP3   OH227739   2.112   1.063  46.342 -0.3737 -0.2741 -0.4348
 2083TIP3    H127740   2.140   0.983  46.298  0.0179  0.4008 -1.4667
 2083TIP3    H227741   2.047   1.101  46.283 -0.3803  0.2888 -0.0733
 2084TIP3   OH227742   1.291   3.964  43.453 -0.2908  0.7180 -0.1011
 2084TIP3    H127743   1.262   4.041  43.502  0.5655 -0.7049  2.8395
 2084TIP3    H227744   1.371   3.936  43.497  0.0202 -1.2743 -1.7706
 2085TIP3   OH227745   0.753   0.608   8.561 -0.0667  0.1897  0.0258
 2085TIP3    H127746   0.800   0.564   8.632  1.3543  1.8858  0.1878
 2085TIP3    H227747   0.797   0.578   8.481  0.4336  0.7525  0.0878
 2086TIP3   OH227748   2.024   1.465   4.748  0.1910  0.5970  0.3253
 2086TIP3    H127749   1.999   1.555   4.726  0.8444  0.1457 -2.7450
 2086TIP3    H227750   2.111   1.454   4.709 -0.2269 -1.6108 -0.1303
 2087TIP3   OH227751   3.797   3.491   3.472  0.2048 -0.4579  0.0299
 2087TIP3    H127752   3.733   3.526   3.533  1.2992  1.0147  0.3859
 2087TIP3    H227753   3.819   3.565   3.416  1.7566 -0.8729  0.0603
 2088TIP3   OH227754   3.181   3.054  11.206  0.3544 -0.2745 -0.1378
 2088TIP3    H127755   3.096   3.075  11.168  0.2548 -0.3546  0.0403
 2088TIP3    H227756   3.167   3.057  11.301  0.8905  1.1218 -0.0842
 2089TIP3   OH227757   0.638   3.899  40.410  0.0671 -0.7622  0.5295
 2089TIP3    H127758   0.674   3.987  40.403  0.2260 -0.8163  0.6448
 2089TIP3    H227759   0.544   3.910  40.404  0.0588 -0.5305  1.0419
 2090TIP3   OH227760   0.802   0.989  41.915 -0.2741  0.9329  0.0078
 2090TIP3    H127761   0.772   1.059  41.857 -0.4225 -1.8551 -3.7191
 2090TIP3    H227762   0.896   0.985  41.901 -0.6960 -2.3600 -3.7921
 2091TIP3   OH227763   1.689   0.913  11.955 -0.1639  0.0004  0.7348
 2091TIP3    H127764   1.743   0.868  12.020 -1.4329 -0.0128  1.8238
 2091TIP3    H227765   1.752   0.950  11.893  1.1463  0.7400  2.4269
 2092TIP3   OH227766   3.485   0.984  45.939 -0.1781 -0.3893  0.5553
 2092TIP3    H127767   3.436   1.060  45.969  0.5622  0.3350 -0.0125
 2092TIP3    H227768   3.540   0.959  46.014 -1.1692 -1.0241  1.0938
 2093TIP3   OH227769   0.557   3.158  41.762 -0.3849  0.0075  0.4229
 2093TIP3    H127770   0.576   3.222  41.693 -1.4404 -0.1613 -0.0436
 2093TIP3    H227771   0.638   3.109  41.772 -0.5194 -0.6684 -1.4574
 2094TIP3   OH227772   1.793   0.054  27.527 -0.2502  0.0487  0.1345
 2094TIP3    H127773   1.870   0.065  27.583 -1.3569  1.1395  1.5300
 2094TIP3    H227774   1.769   0.143  27.502 -0.2637 -0.3687 -1.4823
 2095TIP3   OH227775   2.470   0.813   7.159 -0.0507  0.1259 -0.4019
 2095TIP3    H127776   2.441   0.761   7.234  0.7872 -0.4161 -0.4463
 2095TIP3    H227777   2.395   0.813   7.099 -2.6400  4.3400  2.2335
 2096TIP3   OH227778   0.017   0.144  14.813 -0.2525 -0.3615 -0.4840
 2096TIP3    H127779  -0.002   0.072  14.753  0.0005 -0.7464 -0.1142
 2096TIP3    H227780   0.051   0.100  14.892  0.1382  0.1786 -0.3490
 2097TIP3   OH227781   0.506   0.311  45.497 -0.6295  0.6184 -0.0343
 2097TIP3    H127782   0.429   0.351  45.538 -0.7887 -0.6429  0.9607
 2097TIP3    H227783   0.492   0.217  45.506  0.5568  0.3524 -0.7467
 2098TIP3   OH227784   3.230   3.614  31.390  0.1465 -0.5025 -0.1972
 2098TIP3    H127785   3.187   3.609  31.475  1.0270  0.5723  0.3493
 2098TIP3    H227786   3.161   3.595  31.327 -0.8623  0.0738  0.6951
 2099TIP3   OH227787   2.479   0.143  42.391  0.0979  1.0609  0.1373
 2099TIP3    H127788   2.563   0.118  42.351  0.0218  1.4476 -0.2803
 2099TIP3    H227789   2.419   0.073  42.366  0.5417  0.2366  1.3306
 2100TIP3   OH227790   0.477   1.881   6.158 -0.6109  0.2685  0.4007
 2100TIP3    H127791   0.488   1.786   6.171  1.6610  0.5025  0.5984
 2100TIP3    H227792   0.457   1.890   6.065 -3.1193 -0.5143  0.8006
 2101TIP3   OH227793   1.744   0.402   3.792  0.6383  0.5115 -0.5200
 2101TIP3    H127794   1.814   0.394   3.857 -0.5526  4.2022  1.5752
 2101TIP3    H227795   1.677   0.340   3.821  1.1343  0.3569  0.3239
 2102TIP3   OH227796   1.360   2.575  11.171  0.5357  0.4137 -0.2143
 2102TIP3    H127797   1.372   2.544  11.082  0.0958  2.8420 -1.1973
 2102TIP3    H227798   1.443   2.616  11.195  0.8196 -0.6374  0.7231
 2103TIP3   OH227799   1.582   2.197  30.967 -0.0915  0.0984  1.1845
 2103TIP3    H127800   1.675   2.215  30.974  0.1063 -0.6396  0.6583
 2103TIP3    H227801   1.544   2.277  30.932  0.6908 -0.3370 -0.7640
 2104TIP3   OH227802   3.757   2.708  44.610 -0.0419  0.1230 -0.7521
 2104TIP3    H127803   3.729   2.788  44.564  2.6228  0.1400 -2.5359
 2104TIP3    H227804   3.848   2.724  44.633 -0.6195 -0.7586  2.8624
 2105TIP3   OH227805   0.782   0.831  14.791 -0.0631  0.5530  0.3089
 2105TIP3    H127806   0.736   0.828  14.707  1.3458  0.4317 -0.4829
 2105TIP3    H227807   0.749   0.755  14.839 -0.3797  0.2268 -0.4094
 2106TIP3   OH227808   1.292   3.513   2.788 -0.1500  0.4149  0.1973
 2106TIP3    H127809   1.283   3.589   2.730 -0.6393  1.4328  1.5452
 2106TIP3    H227810   1.373   3.471   2.761  0.7302  2.0727  0.1206
 2107TIP3   OH227811   1.137   1.841   3.782  0.2239  0.5011  0.3490
 2107TIP3    H127812   1.141   1.808   3.692  0.7877 -0.8955  0.8634
 2107TIP3    H227813   1.222   1.818   3.820 -0.7752 -0.8771  1.8739
 2108TIP3   OH227814   1.959   0.037   3.188  0.2016 -0.2786  0.4504
 2108TIP3    H127815   1.890   0.070   3.130 -0.2677 -0.6600  0.7762
 2108TIP3    H227816   1.982  -0.048   3.152 -1.7520 -1.5856  2.1081
 2109TIP3   OH227817   1.553   3.589  28.902 -0.0704 -0.2519  0.7404
 2109TIP3    H127818   1.603   3.582  28.984 -1.2127 -0.5434  1.4230
 2109TIP3    H227819   1.513   3.676  28.906  1.8564  0.7799 -0.6887
 2110TIP3   OH227820   1.158   0.048  41.963 -0.1424  0.6800 -0.1538
 2110TIP3    H127821   1.189   0.087  41.881  1.1448  0.8406  0.3730
 2110TIP3    H227822   1.089  -0.012  41.937  0.3916  0.5681 -1.3913
 2111TIP3   OH227823   1.186   2.713   0.787 -0.1238 -0.1057 -0.2901
 2111TIP3    H127824   1.248   2.779   0.815  1.8054 -1.6086 -0.7954
 2111TIP3    H227825   1.218   2.631   0.826 -0.8178 -1.2105 -1.9025
 2112TIP3   OH227826   2.975   2.184  42.711 -0.0089 -0.7578  0.7277
 2112TIP3    H127827   2.911   2.196  42.640  0.2370  2.6336  0.8944
 2112TIP3    H227828   2.930   2.217  42.789  0.9951 -0.9456  1.4013
 2113TIP3   OH227829   3.299   0.896  33.207 -0.1053  0.1944  0.2164
 2113TIP3    H127830   3.262   0.812  33.234  0.2749 -0.0615 -0.0501
 2113TIP3    H227831   3.228   0.940  33.161 -0.1948 -0.1296  0.0430
 2114TIP3   OH227832   3.483   3.735  41.621 -0.2662  0.2428  0.4901
 2114TIP3    H127833   3.528   3.699  41.698 -1.1379  0.6613  1.2114
 2114TIP3    H227834   3.435   3.811  41.655  1.8072  2.3929 -1.0353
 2115TIP3   OH227835   0.363   2.251   1.914 -0.3861  0.3014  0.0498
 2115TIP3    H127836   0.336   2.227   2.003  0.3190 -0.0529  0.1761
 2115TIP3    H227837   0.431   2.188   1.892  1.0771  1.7817  0.1456
 2116TIP3   OH227838   1.315   2.883  31.104 -0.6732  0.7336 -0.0593
 2116TIP3    H127839   1.327   2.920  31.017 -1.7652 -1.5850 -1.2890
 2116TIP3    H227840   1.314   2.788  31.089 -0.4065  0.2478  2.5596
 2117TIP3   OH227841   0.812   2.768   9.980 -0.5037  0.0831  0.1308
 2117TIP3    H127842   0.895   2.768   9.932 -0.7717  0.3450 -0.3358
 2117TIP3    H227843   0.837   2.782  10.072  0.0200 -0.5664  0.0903
 2118TIP3   OH227844   0.217   1.901   4.448  0.2965  0.1027  0.2061
 2118TIP3    H127845   0.202   1.839   4.519 -0.2679  0.6061  0.5247
 2118TIP3    H227846   0.255   1.977   4.491  1.5678 -0.2361 -0.2646
 2119TIP3   OH227847   1.098   1.109  31.214  0.2299 -0.0000  0.0067
 2119TIP3    H127848   1.041   1.074  31.145 -0.5498  2.4604 -0.6872
 2119TIP3    H227849   1.053   1.087  31.295 -0.3355 -0.3912 -0.4033
 2120TIP3   OH227850   3.508   3.796  14.323  0.0908  0.1140 -0.2963
 2120TIP3    H127851   3.597   3.782  14.353  0.1950  2.1421  0.4835
 2120TIP3    H227852   3.461   3.829  14.399 -0.9338  0.5031 -1.0648
 2121TIP3   OH227853   3.573   2.513   8.607 -0.2359  0.4375  0.1163
 2121TIP3    H127854   3.540   2.505   8.517 -1.7370 -2.7282  0.8191
 2121TIP3    H227855   3.495   2.518   8.661  0.6502  2.3444  1.3404
 2122TIP3   OH227856   2.963   3.275   6.977 -0.1630 -0.1998  0.1672
 2122TIP3    H127857   3.054   3.270   7.008  0.4619  1.3559 -1.2723
 2122TIP3    H227858   2.960   3.217   6.901 -0.5857 -0.7968  0.6288
 2123TIP3   OH227859   2.229   1.225  44.981 -0.3960  0.1959 -0.4752
 2123TIP3    H127860   2.221   1.319  44.994 -0.1075  0.2279 -0.5333
 2123TIP3    H227861   2.322   1.210  44.964 -0.6383  0.0914 -1.8864
 2124TIP3   OH227862   2.774   0.436   9.033  0.6361  0.6962  0.7031
 2124TIP3    H127863   2.830   0.453   9.109  0.5229  0.7077  0.7842
 2124TIP3    H227864   2.835   0.421   8.961  0.7467  1.1662  0.6904
 2125TIP3   OH227865   3.274   1.754  42.343  0.2122 -0.0797  0.4460
 2125TIP3    H127866   3.333   1.694  42.296  1.0313  1.1796 -0.2020
 2125TIP3    H227867   3.323   1.778  42.421  0.1633  0.2490  0.3725
 2126TIP3   OH227868   1.310   1.426   4.643  0.7486 -0.4557 -0.1846
 2126TIP3    H127869   1.220   1.405   4.669  0.7821  0.7240  1.0143
 2126TIP3    H227870   1.301   1.477   4.563  0.1569  1.5512  1.0899
 2127TIP3   OH227871   0.158   1.129   6.941 -0.1515  0.0810 -0.5207
 2127TIP3    H127872   0.197   1.118   6.854 -0.3891  0.1286 -0.6347
 2127TIP3    H227873   0.230   1.162   6.995  0.4770 -1.6076 -0.2574
 2128TIP3   OH227874   4.014   2.745  47.191  0.0390  0.0295  0.0651
 2128TIP3    H127875   4.073   2.713  47.123  0.7782  0.0916  0.6653
 2128TIP3    H227876   4.006   2.672  47.253 -1.8863 -0.6012 -0.8633
 2129TIP3   OH227877   2.470   2.053  14.075  0.1621  0.6105  0.5085
 2129TIP3    H127878   2.387   2.089  14.043  0.9235  1.7598 -0.2680
 2129TIP3    H227879   2.467   2.063  14.170 -0.4443  0.9553  0.4548
 2130TIP3   OH227880   1.584   3.508  34.158 -0.0678 -0.2431  0.1182
 2130TIP3    H127881   1.512   3.514  34.095  1.4846  0.2316 -1.7237
 2130TIP3    H227882   1.587   3.416  34.184 -1.7294 -0.1470  0.7801
 2131TIP3   OH227883   2.886   3.764   0.156 -0.6944  0.1655 -0.1652
 2131TIP3    H127884   2.838   3.847   0.153 -0.9872  0.0037  0.0188
 2131TIP3    H227885   2.818   3.697   0.151 -0.5193 -0.0690  0.5019
 2132TIP3   OH227886   0.168   0.127   6.037  0.5676  0.0670 -0.1262
 2132TIP3    H127887   0.137   0.040   6.063 -1.0657  0.3787 -0.8747
 2132TIP3    H227888   0.120   0.188   6.093  0.3536  0.5387 -0.7976
 2133TIP3   OH227889   2.803   1.208  37.133  0.3403 -0.0800  0.2535
 2133TIP3    H127890   2.797   1.141  37.065  0.2149  0.2788 -0.0865
 2133TIP3    H227891   2.897   1.219  37.147  0.4535  1.2981 -1.3107
 2134TIP3   OH227892   1.148   0.127   7.432  0.1202 -0.2587  0.4096
 2134TIP3    H127893   1.102   0.205   7.403  1.5372  0.2284 -0.5780
 2134TIP3    H227894   1.152   0.071   7.354 -2.1772 -2.0326  1.4338
 2135TIP3   OH227895   3.296   0.364  47.205 -0.5190  0.5909  0.2393
 2135TIP3    H127896   3.325   0.349  47.295  1.9834 -0.1414 -0.6118
 2135TIP3    H227897   3.324   0.453  47.185  2.1195 -0.3324 -0.7983
 2136TIP3   OH227898   0.148   0.139  32.169 -0.1858  0.0439  0.2458
 2136TIP3    H127899   0.210   0.166  32.102  0.1897 -4.0686 -1.3409
 2136TIP3    H227900   0.202   0.116  32.245  0.3914 -3.1492 -1.0000
 2137TIP3   OH227901   2.671   3.922   5.454 -1.2044  0.2129 -0.1867
 2137TIP3    H127902   2.702   3.941   5.543  0.4708 -1.5240 -0.3282
 2137TIP3    H227903   2.682   4.005   5.407  0.2207  0.5271  0.6277
 2138TIP3   OH227904   0.187   2.942  45.016  0.1620 -0.5659 -0.4187
 2138TIP3    H127905   0.132   2.937  44.937 -0.8211  1.4236  0.0917
 2138TIP3    H227906   0.199   3.035  45.032 -2.4881 -0.6973  3.6749
 2139TIP3   OH227907   1.001   3.349  29.091 -0.0778  0.2859  0.7063
 2139TIP3    H127908   1.001   3.294  29.168  1.8353 -0.2909  0.3447
 2139TIP3    H227909   0.909   3.368  29.075 -0.6681 -1.4569  1.7870
 2140TIP3   OH227910   2.518   3.072   6.056  0.0855  0.6493 -0.0337
 2140TIP3    H127911   2.523   2.977   6.056  2.5362  0.6356  2.8616
 2140TIP3    H227912   2.552   3.098   5.970  0.1480 -1.0580 -0.5514
 2141TIP3   OH227913   3.199   0.756  41.994  0.0233 -0.1669  0.2714
 2141TIP3    H127914   3.134   0.720  42.055  0.9946  1.0094  2.0756
 2141TIP3    H227915   3.176   0.849  41.987  1.5462  0.2766  0.9871
 2142TIP3   OH227916   1.738   3.267   0.007 -0.5258  0.3100 -0.0834
 2142TIP3    H127917   1.703   3.238   0.091  0.3391  2.6040  1.1767
 2142TIP3    H227918   1.781   3.190  -0.030  0.9587 -0.2996  2.6269
 2143TIP3   OH227919   3.077   2.748  31.544 -0.4158  0.9060  0.4996
 2143TIP3    H127920   3.092   2.820  31.605 -0.7873  1.6867 -0.3080
 2143TIP3    H227921   3.158   2.742  31.494 -0.2628  0.5383  0.7883
 2144TIP3   OH227922   2.736   1.329  35.670  0.4319 -0.2678  0.3422
 2144TIP3    H127923   2.750   1.424  35.680 -0.4508 -0.0840 -0.0791
 2144TIP3    H227924   2.823   1.295  35.651  0.8727  0.3697  1.1240
 2145TIP3   OH227925   4.080   1.458  45.338 -0.5780 -0.0376 -0.5708
 2145TIP3    H127926   4.047   1.394  45.275  1.8959 -1.7547 -0.2643
 2145TIP3    H227927   4.174   1.441  45.343 -0.7504 -1.1621  4.7167
 2146TIP3   OH227928   1.336   2.648   1.335  0.0326 -0.5969  0.0769
 2146TIP3    H127929   1.264   2.587   1.348 -1.2625  1.3108  3.0028
 2146TIP3    H227930   1.307   2.729   1.378  2.3445  1.5616 -2.0744
 2147TIP3   OH227931   0.405   0.846  35.796 -0.3499 -0.3198 -0.4939
 2147TIP3    H127932   0.332   0.801  35.838 -0.4800 -1.0641 -1.4747
 2147TIP3    H227933   0.478   0.785  35.805 -0.2682 -0.2897 -0.9548
 2148TIP3   OH227934   0.110   1.841  33.145 -0.1269 -0.1745  0.0797
 2148TIP3    H127935   0.033   1.839  33.088  1.3231  3.6565 -2.3677
 2148TIP3    H227936   0.078   1.882  33.225 -1.0869 -0.9335  0.1199
 2149TIP3   OH227937   1.380   0.598  10.918  0.1146  0.0107  0.1088
 2149TIP3    H127938   1.341   0.553  10.993 -0.4239  1.1868  0.5533
 2149TIP3    H227939   1.321   0.579  10.845  0.6604 -1.1682 -0.0441
 2150TIP3   OH227940   0.018   3.631  14.364  0.1317  0.0539 -0.5752
 2150TIP3    H127941  -0.077   3.628  14.364  0.0524  1.1795 -2.4054
 2150TIP3    H227942   0.044   3.564  14.301  0.5100  0.5259 -0.9188
 2151TIP3   OH227943   3.656   3.303  45.329 -0.5286  0.6637 -0.1001
 2151TIP3    H127944   3.586   3.367  45.342 -0.8349  0.6881 -1.7300
 2151TIP3    H227945   3.613   3.227  45.292  0.1566  0.2845 -0.1343
 2152TIP3   OH227946   4.019   3.606  11.889  0.4131 -0.3652 -0.1553
 2152TIP3    H127947   4.002   3.573  11.978 -1.5725  0.6893 -0.0833
 2152TIP3    H227948   3.954   3.561  11.835 -1.4066  2.2112 -0.2903
 2153TIP3   OH227949   1.212   1.453  43.126 -0.7263 -0.2720  0.0976
 2153TIP3    H127950   1.183   1.539  43.155  0.3018  0.3773 -0.7280
 2153TIP3    H227951   1.307   1.452  43.143 -0.6408 -1.0415 -0.3604
 2154TIP3   OH227952   1.808   2.688  40.239 -0.7052  0.0733  0.7953
 2154TIP3    H127953   1.827   2.604  40.281  0.5852 -0.0576 -0.0088
 2154TIP3    H227954   1.863   2.751  40.286 -0.3122  0.1539  0.2450
 2155TIP3   OH227955   2.766   3.074  42.524  0.1717  0.2447  0.2152
 2155TIP3    H127956   2.764   2.979  42.513  0.3359 -0.0603  2.4382
 2155TIP3    H227957   2.858   3.098  42.518  0.1218  0.2861 -0.4316
 2156TIP3   OH227958   0.467   2.437  36.918  0.0706 -0.6885 -0.3473
 2156TIP3    H127959   0.468   2.511  36.979 -1.1531 -1.4918  0.7091
 2156TIP3    H227960   0.466   2.477  36.831  4.2311  0.5067 -0.0366
 2157TIP3   OH227961   3.562   1.963  43.768  0.2740 -0.3311  0.2823
 2157TIP3    H127962   3.550   2.040  43.712  0.9736  0.3072  0.9721
 2157TIP3    H227963   3.598   1.999  43.850 -1.1866 -1.1676  1.3448
 2158TIP3   OH227964   2.487   1.907  14.915 -0.1183  0.2972 -0.4851
 2158TIP3    H127965   2.396   1.927  14.892  0.2889  0.7771 -1.7321
 2158TIP3    H227966   2.485   1.815  14.941 -1.0299  0.4084 -0.1287
 2159TIP3   OH227967   3.699   0.929  33.959  0.2242 -0.0879 -0.6010
 2159TIP3    H127968   3.604   0.913  33.958  0.1096  0.5330 -0.3852
 2159TIP3    H227969   3.738   0.842  33.968 -0.4049 -0.2050  1.8894
 2160TIP3   OH227970   1.258   1.889  42.460 -0.1146 -0.7342 -0.2671
 2160TIP3    H127971   1.206   1.867  42.383  1.2994 -0.5630 -1.3094
 2160TIP3    H227972   1.234   1.824  42.525 -1.6316 -0.6468 -0.6964
 2161TIP3   OH227973   1.272   4.091  30.868 -0.3252 -0.1735 -0.1255
 2161TIP3    H127974   1.269   4.186  30.884 -0.8070  0.4926 -3.4943
 2161TIP3    H227975   1.183   4.062  30.884 -0.5757  0.2791 -0.6482
 2162TIP3   OH227976   2.880   0.320  14.382 -0.1007  0.1737 -0.1457
 2162TIP3    H127977   2.799   0.338  14.431 -0.0770  0.9880 -0.3853
 2162TIP3    H227978   2.858   0.246  14.326 -0.8061  0.6383 -0.4954
 2163TIP3   OH227979   3.251   1.121   2.844  0.2893 -0.0736  0.9986
 2163TIP3    H127980   3.177   1.165   2.885  0.6249 -0.3485  1.9112
 2163TIP3    H227981   3.328   1.162   2.882  0.6609  1.3162 -1.0961
 2164TIP3   OH227982   3.159   4.011  43.936  0.1768  0.1065  0.1085
 2164TIP3    H127983   3.190   4.077  43.998  1.8911 -1.0616  0.5377
 2164TIP3    H227984   3.098   3.957  43.988  2.0004 -1.1893  1.0012
 2165TIP3   OH227985   1.166   4.005   3.122 -0.5431  0.2044  0.1594
 2165TIP3    H127986   1.250   3.961   3.134 -1.2253 -0.9792  0.8927
 2165TIP3    H227987   1.184   4.097   3.141  0.5557 -0.0501  0.4269
 2166TIP3   OH227988   0.297   2.495   8.235  0.2894  0.2300 -0.2388
 2166TIP3    H127989   0.383   2.535   8.251  2.0586 -3.5560  0.9600
 2166TIP3    H227990   0.247   2.515   8.313  0.8913  0.6111  0.0625
 2167TIP3   OH227991   2.343   2.174  32.037 -0.3491 -0.2064  0.4535
 2167TIP3    H127992   2.340   2.079  32.026  0.3124 -0.4032  1.7099
 2167TIP3    H227993   2.415   2.188  32.098 -0.3616  1.1219  0.1844
 2168TIP3   OH227994   2.336   2.821  21.535 -0.5786  0.2644  0.8526
 2168TIP3    H127995   2.348   2.736  21.494  0.3072  0.6043  0.3621
 2168TIP3    H227996   2.282   2.871  21.473 -0.1658  0.4147  0.6070
 2169TIP3   OH227997   2.217   3.205   4.536  0.8022  0.5604 -0.4021
 2169TIP3    H127998   2.173   3.162   4.610 -1.3267  0.6925 -1.5038
 2169TIP3    H227999   2.250   3.132   4.482 -0.8518  0.3077 -1.1312
 2170TIP3   OH228000   1.510   1.530  21.639 -0.4852 -0.0638 -0.8711
 2170TIP3    H128001   1.560   1.586  21.579  0.9741  0.3087  0.6007
 2170TIP3    H228002   1.546   1.550  21.725  0.4974 -3.6355 -0.2856
 2171TIP3   OH228003   0.684   3.851   0.452 -0.1209 -0.2531 -0.5171
 2171TIP3    H128004   0.738   3.916   0.497  0.6666 -2.7169  2.4450
 2171TIP3    H228005   0.746   3.785   0.423 -1.2498 -2.1691  1.1873
 2172TIP3   OH228006   3.123   1.854  14.379  0.2090 -0.7943 -0.1900
 2172TIP3    H128007   3.043   1.883  14.424  0.2917 -0.7427 -0.0768
 2172TIP3    H228008   3.144   1.770  14.419  1.9706  0.5760  2.0284
 2173TIP3   OH228009   2.723   3.342  39.365 -0.6783  0.5452 -0.0933
 2173TIP3    H128010   2.748   3.405  39.297 -0.6275  2.0885  1.2837
 2173TIP3    H228011   2.680   3.271  39.318  2.7962 -0.4099 -2.1830
 2174TIP3   OH228012   2.642   0.989  38.511  0.4017 -0.3247 -1.0585
 2174TIP3    H128013   2.595   0.942  38.580  0.6736 -0.3529 -0.8897
 2174TIP3    H228014   2.609   0.951  38.429  2.0916 -2.2758 -0.9133
 2175TIP3   OH228015   2.495   2.036  37.436 -0.2864  0.1188  0.4960
 2175TIP3    H128016   2.439   2.109  37.410 -0.0488  0.1433  0.0516
 2175TIP3    H228017   2.467   2.016  37.526 -0.4927  0.6205  0.5512
 2176TIP3   OH228018   3.710   1.058  34.859  0.1986 -0.6596  0.4766
 2176TIP3    H128019   3.702   1.151  34.882  2.0780 -0.6468  1.3022
 2176TIP3    H228020   3.695   1.012  34.941 -0.5233 -1.0821  0.1080
 2177TIP3   OH228021   0.514   1.430  37.560 -0.2852 -0.1855 -0.0350
 2177TIP3    H128022   0.607   1.414  37.575  0.2016  0.3350 -2.2008
 2177TIP3    H228023   0.496   1.393  37.474 -2.1288 -0.3849  0.3896
 2178TIP3   OH228024   3.772   1.882   9.032 -0.0589 -0.2725  0.2125
 2178TIP3    H128025   3.735   1.803   8.992 -0.3167  0.5794 -1.3166
 2178TIP3    H228026   3.716   1.898   9.108 -0.5311 -1.0846  0.0523
 2179TIP3   OH228027   3.618   3.176  44.000  0.3937 -0.0848 -0.8777
 2179TIP3    H128028   3.546   3.200  43.942 -1.7643 -1.5108  1.0234
 2179TIP3    H228029   3.666   3.257  44.013 -1.3471  1.1272 -1.5883
 2180TIP3   OH228030   3.484   0.966   8.363 -0.0716  0.3587  0.4701
 2180TIP3    H128031   3.429   0.930   8.294 -0.7321 -0.1361  1.2305
 2180TIP3    H228032   3.564   0.994   8.319  0.3100 -1.6834 -0.2132
 2181TIP3   OH228033   0.408   1.294  37.349  0.0509  0.7400  0.6380
 2181TIP3    H128034   0.393   1.246  37.268  2.4928  0.5058  0.2624
 2181TIP3    H228035   0.320   1.305  37.386 -0.9290 -1.0130 -0.9467
 2182TIP3   OH228036   2.320   2.224  17.230  0.3233 -0.3153 -0.2038
 2182TIP3    H128037   2.381   2.206  17.158  1.1386 -0.3227  0.4774
 2182TIP3    H228038   2.365   2.193  17.308 -0.2312  0.3888  0.4108
 2183TIP3   OH228039   1.457   2.128  34.535  0.7643  0.5550 -0.1173
 2183TIP3    H128040   1.452   2.208  34.482 -0.1659  0.2616 -0.4959
 2183TIP3    H228041   1.413   2.150  34.617 -0.2406  0.1884 -0.5496
 2184TIP3   OH228042   2.987   2.876   7.006 -0.0333  0.4284  0.0094
 2184TIP3    H128043   3.050   2.860   6.936 -2.0790 -1.2931 -1.5694
 2184TIP3    H228044   3.001   2.804   7.068  1.1218  1.4114  0.9407
 2185TIP3   OH228045   0.478   1.548  15.658 -0.1390  0.0586  0.0304
 2185TIP3    H128046   0.500   1.629  15.705  0.9873 -0.3754  0.2780
 2185TIP3    H228047   0.561   1.504  15.645 -0.9227 -2.7226  2.9329
 2186TIP3   OH228048   1.673   0.710  35.936 -0.1669 -0.2828 -0.5115
 2186TIP3    H128049   1.746   0.769  35.919  0.4471 -1.2538 -1.3619
 2186TIP3    H228050   1.600   0.768  35.958  0.9600  0.6913  0.8764
 2187TIP3   OH228051   1.009   1.140  12.874  0.2935  0.2015 -0.8349
 2187TIP3    H128052   1.045   1.064  12.828 -0.6750 -0.3069 -0.7678
 2187TIP3    H228053   0.968   1.103  12.952 -1.0697  0.6553 -1.3073
 2188TIP3   OH228054   1.213   0.582  15.357  0.5936 -0.1081 -0.1988
 2188TIP3    H128055   1.298   0.620  15.378  0.9502 -0.4893 -0.9206
 2188TIP3    H228056   1.231   0.490  15.339 -0.4569 -1.0791  3.0321
 2189TIP3   OH228057   3.270   0.506   2.487  0.4629 -0.6034  0.3014
 2189TIP3    H128058   3.237   0.475   2.571 -0.6195 -1.0723 -0.2828
 2189TIP3    H228059   3.192   0.515   2.432  1.1394 -0.1671 -0.6165
 2190TIP3   OH228060   0.229   0.071  26.302  0.6667 -0.2861 -0.4486
 2190TIP3    H128061   0.180   0.001  26.257  1.2307 -0.5818 -0.6095
 2190TIP3    H228062   0.285   0.108  26.233  1.7891 -0.9667  0.0782
 2191TIP3   OH228063   1.363   0.090  10.316  0.3457 -0.5714  0.3054
 2191TIP3    H128064   1.377   0.082  10.222  1.5708  2.8371  0.0631
 2191TIP3    H228065   1.451   0.105  10.352 -0.2572 -0.4366  1.7873
 2192TIP3   OH228066   2.923   0.410  41.317 -0.0078  0.1660 -0.4021
 2192TIP3    H128067   2.876   0.482  41.360  0.4021 -0.1242  0.5779
 2192TIP3    H228068   3.009   0.446  41.298 -0.0894  0.2009 -0.6966
 2193TIP3   OH228069   3.372   0.791  10.591 -0.3477 -0.4490 -0.2964
 2193TIP3    H128070   3.382   0.767  10.499  0.6977  2.4846 -1.0613
 2193TIP3    H228071   3.380   0.887  10.592  0.3367 -0.4187  2.9153
 2194TIP3   OH228072   1.812   1.810   9.667  0.1465  0.3855  0.6099
 2194TIP3    H128073   1.840   1.755   9.740 -0.1907  0.8554  1.0960
 2194TIP3    H228074   1.762   1.881   9.707 -0.0355  0.6563 -0.0748
 2195TIP3   OH228075   1.696   0.128  36.364 -0.1079 -0.1580  0.5208
 2195TIP3    H128076   1.657   0.066  36.427 -1.3136  0.4598  0.4127
 2195TIP3    H228077   1.709   0.208  36.415  0.2320 -0.0954  0.3322
 2196TIP3   OH228078   1.235   4.083  35.871  0.3618  0.0794  0.1278
 2196TIP3    H128079   1.222   4.144  35.798 -1.4100 -0.6246 -0.1722
 2196TIP3    H228080   1.228   3.996  35.832  3.3430 -0.4110  0.4635
 2197TIP3   OH228081   3.606   2.190  43.630 -0.1234  0.4406  0.0447
 2197TIP3    H128082   3.590   2.233  43.546 -0.7790  0.7693  0.3308
 2197TIP3    H228083   3.692   2.223  43.657 -0.9710  2.2379  0.6526
 2198TIP3   OH228084   3.184   2.494  34.675 -0.2095  0.1982  0.9327
 2198TIP3    H128085   3.104   2.532  34.712 -0.6460 -1.4762  1.8391
 2198TIP3    H228086   3.179   2.401  34.699  0.1028 -0.7762 -2.3269
 2199TIP3   OH228087   3.158   2.458  14.446  0.4864  0.5086  0.0294
 2199TIP3    H128088   3.204   2.521  14.501 -1.0820  1.3963  0.3997
 2199TIP3    H228089   3.086   2.427  14.500 -1.6113  2.0240 -1.7024
 2200TIP3   OH228090   3.285   3.384   6.650 -0.7806  0.0845  0.1592
 2200TIP3    H128091   3.275   3.339   6.566  0.3690  2.3855 -1.2974
 2200TIP3    H228092   3.339   3.325   6.702  0.5553 -0.3324 -1.6080
 2201TIP3   OH228093   1.415   1.686  38.710  0.5176 -0.0533  0.1056
 2201TIP3    H128094   1.399   1.646  38.795 -2.6674  1.9513  0.6139
 2201TIP3    H228095   1.385   1.620  38.647 -2.4034  0.4679  0.8266
 2202TIP3   OH228096   0.878   3.958  25.681  0.2041 -0.1751  0.4294
 2202TIP3    H128097   0.903   3.892  25.616 -1.1641  1.6700 -2.1410
 2202TIP3    H228098   0.782   3.957  25.681  0.1649  1.0423  1.2005
 2203TIP3   OH228099   2.451   2.743  37.807  0.0297 -0.6439 -0.3504
 2203TIP3    H128100   2.370   2.727  37.855  0.5843  0.5956  1.0664
 2203TIP3    H228101   2.520   2.720  37.870  0.7715  0.8485 -0.5913
 2204TIP3   OH228102   1.823   3.142   4.062  0.4162  0.4265 -0.4594
 2204TIP3    H128103   1.811   3.151   4.156 -1.0778  1.5341 -0.7262
 2204TIP3    H228104   1.792   3.053   4.042  0.1200  0.4232  0.0004
 2205TIP3   OH228105   2.310   2.714  13.264  0.1911 -0.7099  0.4709
 2205TIP3    H128106   2.342   2.756  13.185 -0.0312 -2.5592 -0.6661
 2205TIP3    H228107   2.225   2.756  13.281  0.5949  0.2367  0.1952
 2206TIP3   OH228108   2.821   3.249  46.988  0.5645 -0.4048 -0.2100
 2206TIP3    H128109   2.823   3.284  46.899  2.4389 -0.6590 -0.3147
 2206TIP3    H228110   2.896   3.290  47.031 -1.1642  0.8491  1.7392
 2207TIP3   OH228111   2.656   0.372   6.724 -0.3792  0.2227 -0.3288
 2207TIP3    H128112   2.569   0.332   6.724 -1.1982  1.9053 -0.9057
 2207TIP3    H228113   2.639   0.466   6.725  1.4500  0.5942 -0.5003
 2208TIP3   OH228114   1.305   3.731  36.775 -0.4667 -0.1697 -0.3913
 2208TIP3    H128115   1.366   3.666  36.741 -0.1909  0.4171 -1.0403
 2208TIP3    H228116   1.288   3.704  36.865  1.4464  0.1528  0.1030
 2209TIP3   OH228117   2.528   1.144  36.998 -0.0485  0.1442 -0.0283
 2209TIP3    H128118   2.539   1.130  36.904  1.5213  0.0579  0.1480
 2209TIP3    H228119   2.525   1.239  37.007  0.9788  0.1910 -0.0643
 2210TIP3   OH228120   3.278   2.013   2.921 -0.2796 -0.4445  0.3640
 2210TIP3    H128121   3.338   1.986   2.852  0.1163 -2.5958  1.4685
 2210TIP3    H228122   3.232   1.933   2.946 -1.0428  0.4499  1.9913
 2211TIP3   OH228123   1.885   2.224  36.392  0.2103  0.1745  0.0688
 2211TIP3    H128124   1.945   2.149  36.393  1.8429  1.4489  1.1039
 2211TIP3    H228125   1.941   2.301  36.402 -1.3572  1.6340 -1.5558
 2212TIP3   OH228126   3.157   1.197  40.306 -0.0504 -0.5859  0.0265
 2212TIP3    H128127   3.237   1.193  40.358 -0.6388 -1.2871  0.9035
 2212TIP3    H228128   3.187   1.185  40.215  0.9133  0.0137  0.2490
 2213TIP3   OH228129   0.559   2.186   7.059 -0.4460 -0.3041 -0.2875
 2213TIP3    H128130   0.548   2.281   7.055 -0.9049 -0.3564 -0.3229
 2213TIP3    H228131   0.513   2.160   7.139  1.0134 -0.3184  0.5843
 2214TIP3   OH228132   0.676   3.129  10.727  0.2291  0.3351 -0.5607
 2214TIP3    H128133   0.740   3.196  10.753  0.9316 -0.2450 -0.7720
 2214TIP3    H228134   0.706   3.099  10.641  0.6692 -1.1645  0.0886
 2215TIP3   OH228135   0.569   1.913  12.619  0.0128  0.1165  0.5208
 2215TIP3    H128136   0.619   1.904  12.701 -1.3077 -0.0046  1.3425
 2215TIP3    H228137   0.505   1.982  12.637 -0.8661 -0.5094 -0.1062
 2216TIP3   OH228138   3.852   3.195  38.549 -0.0140 -0.0829  0.0434
 2216TIP3    H128139   3.921   3.142  38.588  0.1380 -0.9937 -1.3995
 2216TIP3    H228140   3.800   3.133  38.498 -1.0628  0.8229 -0.0326
 2217TIP3   OH228141   3.667   2.472  13.986  0.3983 -0.3273 -0.1731
 2217TIP3    H128142   3.615   2.552  13.977 -0.6206 -0.8552  0.7196
 2217TIP3    H228143   3.747   2.500  14.031  1.2130  0.6077 -2.1233
 2218TIP3   OH228144   1.278   0.014  42.514  0.1329 -0.2247 -0.0038
 2218TIP3    H128145   1.279  -0.014  42.422 -0.2510  1.0784 -0.4189
 2218TIP3    H228146   1.367  -0.004  42.544  1.2772  2.2414 -1.5760
 2219TIP3   OH228147   1.242   0.102   6.784  0.1584  0.4736 -0.3398
 2219TIP3    H128148   1.215   0.104   6.692  1.0487  0.0322 -0.6249
 2219TIP3    H228149   1.283   0.187   6.799 -0.1596  0.6199 -0.2929
 2220TIP3   OH228150   3.424   1.729   7.685  1.0147 -0.1569 -0.0528
 2220TIP3    H128151   3.455   1.656   7.631  1.4232  0.0400 -0.0890
 2220TIP3    H228152   3.494   1.743   7.749  0.9345  0.1965 -0.0400
 2221TIP3   OH228153   3.667   0.698   2.585 -0.2169 -0.6774  0.4430
 2221TIP3    H128154   3.725   0.711   2.510 -0.3428 -0.5468  0.3667
 2221TIP3    H228155   3.578   0.706   2.549 -0.2744 -0.1638  0.6792
 2222TIP3   OH228156   3.535   2.205   5.840  0.2976 -0.7118 -0.3413
 2222TIP3    H128157   3.509   2.295   5.820  0.7808 -0.5458 -0.2445
 2222TIP3    H228158   3.464   2.151   5.806  0.4073 -0.3476 -1.1785
 2223TIP3   OH228159   2.179   0.052   0.718  0.2391 -0.3189 -0.4569
 2223TIP3    H128160   2.093   0.011   0.710  0.9073 -1.7058 -0.8306
 2223TIP3    H228161   2.238  -0.006   0.669  1.4219  0.4935 -0.0400
 2224TIP3   OH228162   3.434   3.805   8.706 -0.3012 -0.3703  0.0461
 2224TIP3    H128163   3.481   3.888   8.714 -2.1389  0.5713  1.9299
 2224TIP3    H228164   3.496   3.739   8.737  0.6931  0.4606 -0.1194
 2225TIP3   OH228165   0.446   3.874  32.550  0.0488 -0.5699  0.6198
 2225TIP3    H128166   0.377   3.883  32.485  0.8099  0.0858 -0.1229
 2225TIP3    H228167   0.474   3.964  32.567  1.1191 -0.8642  0.4721
 2226TIP3   OH228168   2.390   0.755  36.611 -0.4452 -0.4023  0.0663
 2226TIP3    H128169   2.461   0.746  36.547 -0.9209 -0.4156 -0.4594
 2226TIP3    H228170   2.310   0.749  36.560 -0.8490  2.0259  0.2989
 2227TIP3   OH228171   3.541   1.024  33.167 -0.0665  0.2401 -0.0368
 2227TIP3    H128172   3.455   0.988  33.189 -0.4453  0.7244 -0.7057
 2227TIP3    H228173   3.602   0.952  33.184 -0.2781  0.6326  2.8161
 2228TIP3   OH228174   0.254   2.361   6.636 -0.4678  0.2710 -0.3363
 2228TIP3    H128175   0.221   2.318   6.557 -2.7197 -0.4755  0.9051
 2228TIP3    H228176   0.340   2.321   6.650 -1.0181 -1.3233 -1.1573
 2229TIP3   OH228177   0.859   0.037  41.982  0.1341  0.0594  0.0118
 2229TIP3    H128178   0.801  -0.039  41.987 -1.8136  1.5031  0.6882
 2229TIP3    H228179   0.883   0.055  42.072  0.2561  0.4916 -0.1056
 2230TIP3   OH228180   0.808   2.808  10.666 -0.3350  0.3053  0.0411
 2230TIP3    H128181   0.833   2.789  10.756 -0.9591  1.4216  0.4639
 2230TIP3    H228182   0.782   2.722  10.630  0.8184 -0.3025  0.6136
 2231TIP3   OH228183   2.154   2.017  32.217 -0.3237 -0.6527 -0.2284
 2231TIP3    H128184   2.203   1.954  32.165 -0.3807 -1.5806  0.7872
 2231TIP3    H228185   2.066   2.017  32.179  0.2735  0.5985 -1.7023
 2232TIP3   OH228186   1.145   1.923  35.627  0.6853 -0.2158 -0.5247
 2232TIP3    H128187   1.053   1.941  35.643  0.9879  1.2735 -0.2387
 2232TIP3    H228188   1.172   1.869  35.702  0.4015  0.6859  0.2531
 2233TIP3   OH228189   3.980   2.436   6.726 -0.4112  0.1189  0.0250
 2233TIP3    H128190   3.997   2.445   6.632 -1.6389  0.6285 -0.1654
 2233TIP3    H228191   4.036   2.364   6.754 -0.7440 -0.6809 -1.2922
 2234TIP3   OH228192   2.215   4.052  10.965 -0.4475 -0.6390 -0.3191
 2234TIP3    H128193   2.294   4.082  11.011 -0.6478  1.3294 -1.1345
 2234TIP3    H228194   2.144   4.066  11.028 -0.2527 -1.7408  0.1626
 2235TIP3   OH228195   1.916   1.053  39.445  0.4947 -0.1789  0.1501
 2235TIP3    H128196   1.898   0.960  39.451 -0.4328  0.0233  0.8159
 2235TIP3    H228197   1.995   1.060  39.391  1.2477 -1.3965  1.0587
 2236TIP3   OH228198   2.675   3.035   4.827  0.0321  0.6563  0.1540
 2236TIP3    H128199   2.688   3.096   4.899 -1.3235 -1.4907  2.4098
 2236TIP3    H228200   2.647   3.089   4.754  0.3277  2.8465  1.5739
 2237TIP3   OH228201   1.863   1.952  11.784 -0.3263  0.2407 -0.4843
 2237TIP3    H128202   1.897   1.872  11.744  2.4069  1.1967 -0.2907
 2237TIP3    H228203   1.865   1.934  11.878 -1.6593 -0.1309 -0.5064
 2238TIP3   OH228204   3.425   2.401   0.882  0.2191 -0.1370 -0.0782
 2238TIP3    H128205   3.470   2.345   0.946 -0.2396 -0.4953 -0.0618
 2238TIP3    H228206   3.338   2.362   0.873 -0.0162  0.4211 -0.2715
 2239TIP3   OH228207   0.529   2.127  32.751  0.3310  0.4909  0.3017
 2239TIP3    H128208   0.524   2.082  32.835  0.9407 -0.6719 -0.2600
 2239TIP3    H228209   0.574   2.065  32.693 -0.6774  0.9970 -1.0634
 2240TIP3   OH228210   1.083   0.732   3.400  0.0226 -0.2276 -0.0416
 2240TIP3    H128211   1.037   0.780   3.469 -0.0920 -0.9995  0.4331
 2240TIP3    H228212   1.087   0.793   3.327 -3.8989 -0.8616 -1.0222
 2241TIP3   OH228213   0.997   0.710   7.895 -0.0623  0.4746  0.2451
 2241TIP3    H128214   0.958   0.769   7.831  0.4681 -1.2007 -1.7266
 2241TIP3    H228215   0.930   0.643   7.911  0.6142 -0.3792 -0.3617
 2242TIP3   OH228216   1.471   3.737  15.480  0.4410  0.0629  0.0397
 2242TIP3    H128217   1.462   3.756  15.387  0.2421  1.1986  0.2785
 2242TIP3    H228218   1.556   3.695  15.488  0.1216 -0.7645 -0.7580
 2243TIP3   OH228219   3.019   1.396  18.881  0.0089 -0.2279  0.9149
 2243TIP3    H128220   2.957   1.469  18.887  2.0111  1.6411  0.2625
 2243TIP3    H228221   3.056   1.403  18.793  1.0427 -1.3559  1.2293
 2244TIP3   OH228222   2.012   0.464   8.198 -0.5340  0.6095 -0.1785
 2244TIP3    H128223   1.999   0.539   8.141  0.1342  0.4872 -0.5017
 2244TIP3    H228224   1.930   0.457   8.248 -1.5187  0.1420 -1.7835
 2245TIP3   OH228225   3.953   0.195  24.914 -0.0330  0.5834 -0.0931
 2245TIP3    H128226   3.897   0.119  24.894 -1.5063  1.6429 -0.1734
 2245TIP3    H228227   3.996   0.171  24.996 -1.3955  0.1037  0.5262
 2246TIP3   OH228228   3.253   1.182  31.614 -0.7968  0.6724 -0.3959
 2246TIP3    H128229   3.314   1.116  31.579 -0.3418  0.0478  1.4686
 2246TIP3    H228230   3.287   1.265  31.581  0.0823  0.1900 -0.7548
 2247TIP3   OH228231   1.565   2.149   1.064 -0.1878 -0.0591 -0.1131
 2247TIP3    H128232   1.575   2.217   1.131 -1.9874  1.2125 -1.0328
 2247TIP3    H228233   1.471   2.131   1.062 -0.0719 -0.6449 -1.7197
 2248TIP3   OH228234   2.050   3.853  30.504  1.0882 -0.1513 -0.4444
 2248TIP3    H128235   2.041   3.906  30.425  0.8814  0.9905  0.3222
 2248TIP3    H228236   2.124   3.892  30.550  0.0283  0.4133  0.8370
 2249TIP3   OH228237   4.057   3.470  33.440  0.4931  0.2115 -0.0195
 2249TIP3    H128238   4.072   3.537  33.507  2.5463 -0.1322 -0.0817
 2249TIP3    H228239   3.969   3.489  33.407 -0.5292  0.4903  2.6288
 2250TIP3   OH228240   0.571   1.080   4.977  0.5658 -0.5530 -0.1508
 2250TIP3    H128241   0.601   1.053   5.064 -2.4856 -0.1489  1.1463
 2250TIP3    H228242   0.578   1.176   4.979 -1.5472 -0.3611  0.5736
 2251TIP3   OH228243   2.020   3.321   3.991  0.5216 -0.1450 -0.6303
 2251TIP3    H128244   1.942   3.265   3.992  0.2954  0.1520 -1.1867
 2251TIP3    H228245   2.056   3.313   4.079 -1.6570  1.8147  0.5455
 2252TIP3   OH228246   3.334   2.053  39.912 -0.0240 -0.6147  0.1590
 2252TIP3    H128247   3.354   2.023  39.824 -2.2336 -0.2262 -0.5318
 2252TIP3    H228248   3.325   1.973  39.964  0.9805 -0.8518 -0.0092
 2253TIP3   OH228249   2.643   2.193  35.828  0.0273  0.4926 -0.2419
 2253TIP3    H128250   2.625   2.121  35.888 -0.6621  0.3590 -0.6027
 2253TIP3    H228251   2.737   2.188  35.812  0.1034  0.1179  0.2974
 2254TIP3   OH228252   0.133   3.425   7.642 -0.5937  0.2425  0.3801
 2254TIP3    H128253   0.058   3.456   7.693 -0.3478  2.1872 -0.3335
 2254TIP3    H228254   0.208   3.435   7.700 -0.9374 -2.7172  1.4741
 2255TIP3   OH228255   0.969   1.163  14.249  0.7399  0.0390 -0.2047
 2255TIP3    H128256   1.030   1.101  14.290  0.3573 -0.6120 -0.6069
 2255TIP3    H228257   0.968   1.238  14.309  0.9782 -0.4625  0.4453
 2256TIP3   OH228258   1.067   0.506  38.868  0.5151 -0.2238  0.0445
 2256TIP3    H128259   1.043   0.464  38.785 -0.8339 -0.8535  0.7099
 2256TIP3    H228260   0.991   0.561  38.890  0.9087  0.0366  0.7866
 2257TIP3   OH228261   0.733   3.376  45.305 -0.5780 -0.0300  0.2254
 2257TIP3    H128262   0.772   3.441  45.363 -0.1149 -0.7652  0.7576
 2257TIP3    H228263   0.784   3.381  45.224  0.4154 -0.7258  0.7815
 2258TIP3   OH228264   1.278   2.786   1.884 -0.3066  0.0018  0.4100
 2258TIP3    H128265   1.221   2.734   1.941 -2.9522 -0.5752 -2.5096
 2258TIP3    H228266   1.221   2.854   1.849  1.7339  1.5562 -0.0856
 2259TIP3   OH228267   2.720   0.485   4.296 -0.2121  0.1267 -0.3137
 2259TIP3    H128268   2.769   0.478   4.378 -0.7115  2.0699  0.1967
 2259TIP3    H228269   2.777   0.445   4.230  1.3138  0.8148  0.5470
 2260TIP3   OH228270   4.085   3.618  47.692 -0.0611  0.2016 -1.1022
 2260TIP3    H128271   4.095   3.530  47.728 -1.0290  0.2520 -0.6820
 2260TIP3    H228272   4.080   3.675  47.769  2.7379  0.9365 -1.3402
 2261TIP3   OH228273   3.110   2.491  38.392  1.0377 -0.6068  0.2902
 2261TIP3    H128274   3.185   2.455  38.345  1.8752  0.0426  1.0875
 2261TIP3    H228275   3.129   2.473  38.484  0.7422  0.5150  0.5889
 2262TIP3   OH228276   1.095   0.452  31.865 -0.3527  0.0649  0.6274
 2262TIP3    H128277   1.100   0.369  31.817 -1.8308  0.6861 -0.6920
 2262TIP3    H228278   1.047   0.431  31.945  0.0724 -0.5305  0.7276
 2263TIP3   OH228279   1.185   4.104  14.209 -0.5399  0.2256 -0.0808
 2263TIP3    H128280   1.210   4.195  14.227 -0.9458  0.2163  0.5412
 2263TIP3    H228281   1.268   4.061  14.185 -0.7582  1.4375 -3.4273
 2264TIP3   OH228282   0.901   0.808  43.185 -0.4503  0.0951  0.0055
 2264TIP3    H128283   0.959   0.734  43.166 -0.8114 -0.3831  0.7399
 2264TIP3    H228284   0.828   0.796  43.125 -0.7150 -0.3955  0.4146
 2265TIP3   OH228285   0.957   1.604   0.726 -0.1046  0.2762 -0.2651
 2265TIP3    H128286   0.941   1.698   0.717 -1.4181  0.0096 -1.1589
 2265TIP3    H228287   0.935   1.584   0.817  0.6749  0.9115  0.0690
 2266TIP3   OH228288   3.422   2.535  20.138  0.2011  0.5145  0.0321
 2266TIP3    H128289   3.431   2.546  20.233  0.2271  1.5653 -0.0770
 2266TIP3    H228290   3.496   2.480  20.113 -0.7786 -1.2502  0.8441
 2267TIP3   OH228291   4.095   3.280  37.020 -0.2974  0.1243  0.2799
 2267TIP3    H128292   4.057   3.195  36.996  1.8188 -0.5043 -1.1008
 2267TIP3    H228293   4.149   3.261  37.097 -0.1935  0.3064  0.2507
 2268TIP3   OH228294   1.243   0.757  46.497  0.3102  0.2682 -0.0551
 2268TIP3    H128295   1.298   0.802  46.561 -1.8540  0.3450  1.8696
 2268TIP3    H228296   1.250   0.664  46.521 -1.5655  0.4239  1.2300
 2269TIP3   OH228297   1.995   3.662   4.017 -0.0507 -0.0261  0.9515
 2269TIP3    H128298   1.971   3.598   3.950  1.8241  1.9662 -1.8227
 2269TIP3    H228299   2.053   3.615   4.076 -0.6174 -1.4674  0.4016
 2270TIP3   OH228300   2.214   3.812  11.970 -0.6022 -0.2371 -0.1720
 2270TIP3    H128301   2.203   3.846  12.059 -2.0759 -0.7667 -0.1182
 2270TIP3    H228302   2.292   3.856  11.937  0.0206 -0.0819  1.4064
 2271TIP3   OH228303   1.074   2.331  36.495  0.6421  0.4513  0.3617
 2271TIP3    H128304   1.166   2.354  36.493  0.3971  1.7665  2.2236
 2271TIP3    H228305   1.028   2.408  36.463  0.1555 -0.1675 -0.4974
 2272TIP3   OH228306   2.947   0.650   9.961 -0.3988 -0.9048 -0.4437
 2272TIP3    H128307   2.903   0.572   9.994  0.8302 -1.2150  0.5137
 2272TIP3    H228308   3.017   0.668  10.024  0.6266 -0.2218 -1.7189
 2273TIP3   OH228309   3.050   1.000  31.590 -0.2229  0.2399 -0.3721
 2273TIP3    H128310   3.128   1.056  31.600  0.1223 -0.3691  0.4485
 2273TIP3    H228311   3.047   0.949  31.671 -1.0341 -0.3062 -0.7401
 2274TIP3   OH228312   3.562   1.102   9.559  0.0274  0.1267 -0.5818
 2274TIP3    H128313   3.500   1.174   9.570  0.2943  0.4704 -1.3258
 2274TIP3    H228314   3.623   1.111   9.633  0.1541  0.7593 -0.7622
 2275TIP3   OH228315   0.476   3.474  40.510 -0.5911 -0.2942  0.1727
 2275TIP3    H128316   0.563   3.513  40.510 -0.0349 -1.4897 -0.1375
 2275TIP3    H228317   0.446   3.482  40.420 -0.0032 -1.5666 -0.1537
 2276TIP3   OH228318   0.988   3.220   1.364 -0.1443  0.2448  0.4810
 2276TIP3    H128319   0.998   3.310   1.393 -0.5912  1.2784 -2.3332
 2276TIP3    H228320   1.068   3.176   1.392  1.2648  2.1748 -0.3791
 2277TIP3   OH228321   3.063   2.971  15.519 -0.0622  0.2703  0.5082
 2277TIP3    H128322   3.101   2.904  15.576  0.4481 -0.2429 -0.3967
 2277TIP3    H228323   3.138   3.008  15.473 -0.3988  1.1449  0.6579
 2278TIP3   OH228324   0.383   3.385  37.220 -0.6466  0.3124 -0.0564
 2278TIP3    H128325   0.458   3.415  37.169 -0.5606 -0.0249 -0.1270
 2278TIP3    H228326   0.391   3.290  37.222  0.7333  0.3758  2.6901
 2279TIP3   OH228327   2.025   1.059  34.939  0.0472 -0.1397  0.2236
 2279TIP3    H128328   2.116   1.082  34.920  0.5136 -1.4983  0.6410
 2279TIP3    H228329   2.030   1.008  35.020 -1.0046 -0.7234 -0.0584
 2280TIP3   OH228330   1.117   2.685  42.692 -0.2855  0.4193 -0.1884
 2280TIP3    H128331   1.186   2.722  42.746  4.0872 -0.4799 -4.4994
 2280TIP3    H228332   1.078   2.616  42.746  0.6296  2.3068  3.1824
 2281TIP3   OH228333   3.319   2.138  31.516  0.0765  0.6375  0.4386
 2281TIP3    H128334   3.374   2.147  31.594  0.1579 -0.4061  0.5193
 2281TIP3    H228335   3.369   2.080  31.458 -0.5434  0.3771  0.1558
 2282TIP3   OH228336   2.868   1.729   8.071 -0.1857  0.7269  0.3052
 2282TIP3    H128337   2.880   1.819   8.041 -0.0413  0.4679 -0.4299
 2282TIP3    H228338   2.935   1.679   8.025 -1.4537 -0.0671 -0.7312
 2283TIP3   OH228339   1.289   3.693  14.072  0.3930 -0.1298 -0.3321
 2283TIP3    H128340   1.342   3.617  14.095  1.1050  0.1721 -0.9302
 2283TIP3    H228341   1.223   3.698  14.141  0.4581 -1.1710 -0.1829
 2284TIP3   OH228342   1.715   1.584   6.789  0.1811  0.3335  0.6644
 2284TIP3    H128343   1.803   1.611   6.764  0.7133 -0.7051  1.3665
 2284TIP3    H228344   1.719   1.488   6.791  0.3977  0.2542  5.3664
 2285TIP3   OH228345   1.502   1.237  44.113 -0.4214  0.3909  0.0268
 2285TIP3    H128346   1.435   1.191  44.062 -0.2268  0.2130 -0.0732
 2285TIP3    H228347   1.579   1.179  44.108  0.1677  1.2222 -0.9888
 2286TIP3   OH228348   1.678   0.739  37.467 -0.6137  0.8364 -0.3979
 2286TIP3    H128349   1.696   0.750  37.374  0.3617  2.0519 -0.0919
 2286TIP3    H228350   1.660   0.828  37.499 -1.4182  0.3847  0.4902
 2287TIP3   OH228351   3.165   1.018  39.716 -0.0491  0.0880  0.8364
 2287TIP3    H128352   3.250   1.000  39.755  0.5494  0.3840 -0.3033
 2287TIP3    H228353   3.148   1.110  39.738  0.0615  0.1152  0.8071
 2288TIP3   OH228354   0.990   3.219  47.623 -0.0567  0.1311 -0.4539
 2288TIP3    H128355   0.901   3.238  47.655 -0.4076  0.7830 -1.7549
 2288TIP3    H228356   0.980   3.211  47.529  1.5399  1.8710 -0.8321
 2289TIP3   OH228357   3.815   3.333  42.794  0.5350  0.2129 -0.3642
 2289TIP3    H128358   3.869   3.292  42.861  0.3616 -1.1852 -1.0622
 2289TIP3    H228359   3.780   3.412  42.836 -0.0318 -0.9233  1.3679
 2290TIP3   OH228360   3.663   3.884  42.353  0.2802 -0.4989  0.1861
 2290TIP3    H128361   3.598   3.922  42.413  0.1809 -0.1707 -0.1271
 2290TIP3    H228362   3.747   3.915  42.388  0.1986  0.0417 -0.0864
 2291TIP3   OH228363   1.716   1.108  40.696 -0.3494 -0.1588 -0.0957
 2291TIP3    H128364   1.752   1.026  40.732 -1.1399 -0.8020 -0.7302
 2291TIP3    H228365   1.738   1.105  40.603 -2.8625 -1.0854 -0.7440
 2292TIP3   OH228366   1.551   2.666  43.328  0.6560  0.5818 -0.2774
 2292TIP3    H128367   1.504   2.655  43.411  0.1820  1.6379 -0.3871
 2292TIP3    H228368   1.644   2.663  43.352  0.5348 -0.2031  0.1300
 2293TIP3   OH228369   1.502   2.459   1.728 -0.4180 -0.2385 -0.7203
 2293TIP3    H128370   1.558   2.383   1.742 -1.7728 -1.6229 -2.4439
 2293TIP3    H228371   1.437   2.454   1.798 -0.6556 -0.8146 -0.9818
 2294TIP3   OH228372   1.082   3.549   2.449 -0.1136 -0.3174 -0.2972
 2294TIP3    H128373   1.040   3.481   2.502  0.4517 -0.6121 -0.2316
 2294TIP3    H228374   1.154   3.505   2.405  3.4151  1.1391  3.4265
 2295TIP3   OH228375   3.710   3.713   1.864  0.3818  0.1977 -0.3293
 2295TIP3    H128376   3.794   3.756   1.846  0.1613  0.3077 -1.1446
 2295TIP3    H228377   3.708   3.639   1.804 -0.1771  0.2922 -0.4318
 2296TIP3   OH228378   2.407   3.109  36.845  0.4989  0.1828  0.3855
 2296TIP3    H128379   2.364   3.194  36.847  1.2940  0.6177 -0.2019
 2296TIP3    H228380   2.407   3.084  36.753  0.8195 -0.1666  0.4746
 2297TIP3   OH228381   2.576   2.638  36.524  0.3270  0.3153  0.1015
 2297TIP3    H128382   2.648   2.697  36.548 -0.2474  0.2655  2.1639
 2297TIP3    H228383   2.507   2.658  36.587  0.5658 -3.3746  1.8271
 2298TIP3   OH228384   2.021   1.630  40.887 -0.4706 -0.3800 -0.6974
 2298TIP3    H128385   2.040   1.578  40.965 -2.8766  0.8215  0.8207
 2298TIP3    H228386   1.957   1.578  40.838 -0.1326 -0.4421 -1.0764
 2299TIP3   OH228387   3.604   0.634  10.597 -0.0478  0.4862  0.6441
 2299TIP3    H128388   3.665   0.674  10.660 -0.9206 -0.0593  1.8941
 2299TIP3    H228389   3.520   0.675  10.617 -0.8815 -1.5846  1.6764
 2300TIP3   OH228390   0.566   3.604  41.044  0.4491  0.4465 -0.3896
 2300TIP3    H128391   0.576   3.579  41.136 -0.6252 -0.8321 -0.5897
 2300TIP3    H228392   0.498   3.671  41.045 -0.9384 -0.9005 -0.3914
 2301TIP3   OH228393   2.466   3.920  40.026 -0.2640  0.1183 -0.6222
 2301TIP3    H128394   2.501   3.989  40.081 -1.0952  1.7956 -2.1077
 2301TIP3    H228395   2.373   3.942  40.015 -0.8024 -1.7932 -0.3333
 2302TIP3   OH228396   0.753   0.785  42.485 -0.2848  0.0570 -0.6103
 2302TIP3    H128397   0.800   0.758  42.406  0.6473 -0.5145  0.1335
 2302TIP3    H228398   0.692   0.852  42.454 -0.7145 -0.9352 -2.0088
 2303TIP3   OH228399   2.798   3.460  38.850  0.0538  0.5956 -0.5944
 2303TIP3    H128400   2.718   3.511  38.862 -0.2323 -0.0728  0.4593
 2303TIP3    H228401   2.822   3.474  38.758 -1.9930 -0.2312 -1.2977
 2304TIP3   OH228402   1.147   0.321   1.532 -0.1483  0.1555 -0.3606
 2304TIP3    H128403   1.157   0.227   1.541  0.6273  0.2591 -0.1025
 2304TIP3    H228404   1.187   0.358   1.610 -2.1562  0.6427  0.5111
 2305TIP3   OH228405   1.035   2.270  44.376  0.0574  0.2622  0.4709
 2305TIP3    H128406   1.088   2.197  44.408 -0.7735 -0.4107  0.3393
 2305TIP3    H228407   1.080   2.300  44.297  0.5057  0.0126  0.6305
 2306TIP3   OH228408   2.685   4.072  46.341 -0.5153 -0.2047 -0.0927
 2306TIP3    H128409   2.736   4.150  46.317 -1.3819  0.9940  1.7237
 2306TIP3    H228410   2.705   4.009  46.272  1.1565  1.1991 -0.9999
 2307TIP3   OH228411   1.350   0.392  33.110 -0.4883 -0.7193 -0.2130
 2307TIP3    H128412   1.288   0.389  33.183 -0.1197 -1.9335  0.0699
 2307TIP3    H228413   1.330   0.315  33.057 -1.3405  0.6198 -1.9322
 2308TIP3   OH228414   1.427   3.951  15.276 -0.1525  0.1786 -0.1048
 2308TIP3    H128415   1.390   4.026  15.229  1.5974  0.8791 -0.4447
 2308TIP3    H228416   1.477   3.990  15.348 -0.1087 -0.7306  0.3758
 2309TIP3   OH228417   1.268   0.538   0.811 -0.0607  0.2635  0.6931
 2309TIP3    H128418   1.225   0.582   0.884 -1.3426  1.3586 -0.6450
 2309TIP3    H228419   1.339   0.597   0.786  0.3785 -0.1110  1.0401
 2310TIP3   OH228420   3.741   3.181  40.530  0.2069  0.0744 -0.2201
 2310TIP3    H128421   3.787   3.124  40.592 -0.9541  0.3701  0.9538
 2310TIP3    H228422   3.736   3.266  40.575 -0.0487  0.4877 -1.0151
 2311TIP3   OH228423   1.887   3.297   9.365 -0.0708 -0.0552  0.0048
 2311TIP3    H128424   1.931   3.350   9.432 -0.2406 -1.9544  1.7012
 2311TIP3    H228425   1.958   3.266   9.309  0.1420  1.0282 -0.3620
 2312TIP3   OH228426   0.309   3.496  46.185 -0.0278  0.2997 -0.8580
 2312TIP3    H128427   0.398   3.464  46.172 -0.2543 -0.4009 -0.7409
 2312TIP3    H228428   0.294   3.487  46.279  0.2404  1.6817 -0.6643
 2313TIP3   OH228429   1.930   3.520  11.217  0.5392 -0.3673  0.0323
 2313TIP3    H128430   1.975   3.437  11.202  1.1687  0.1767 -1.2543
 2313TIP3    H228431   1.842   3.495  11.244  0.9353 -1.4405  0.3811
 2314TIP3   OH228432   2.144   2.955   8.084 -0.2323  0.0265 -0.0526
 2314TIP3    H128433   2.193   2.983   8.162  1.3183 -0.5959 -0.7601
 2314TIP3    H228434   2.212   2.929   8.022 -1.4948 -0.8924 -1.0846
 2315TIP3   OH228435   2.426   1.333  14.810  0.0634  0.2001  0.3087
 2315TIP3    H128436   2.400   1.360  14.898  1.3094 -0.5377  0.9358
 2315TIP3    H228437   2.380   1.393  14.752 -1.3788  0.2157  1.4180
 2316TIP3   OH228438   3.285   0.075  32.603 -0.2035 -0.6003 -0.0548
 2316TIP3    H128439   3.329   0.157  32.628 -0.6993 -0.1550 -0.5998
 2316TIP3    H228440   3.352   0.024  32.558  0.5632 -1.1964  1.6679
 2317TIP3   OH228441   0.966   1.608  43.182  0.5001  0.1565  0.4817
 2317TIP3    H128442   0.901   1.570  43.242  1.4700 -0.5800  1.0952
 2317TIP3    H228443   0.933   1.587  43.095  0.8159 -1.8389  0.7915
 2318TIP3   OH228444   2.704   0.220   3.386  0.4277 -0.0895 -0.2255
 2318TIP3    H128445   2.715   0.244   3.294 -0.7414  1.4578  0.0034
 2318TIP3    H228446   2.782   0.170   3.407  1.1136  0.2440 -1.8329
 2319TIP3   OH228447   3.830   0.844  35.839 -0.7537 -0.4125  0.1390
 2319TIP3    H128448   3.739   0.843  35.809 -0.0041  0.2923 -2.4072
 2319TIP3    H228449   3.838   0.925  35.890 -1.2894  0.1127 -0.5969
 2320TIP3   OH228450   3.887   2.131  35.415  1.0032  0.2413 -0.0748
 2320TIP3    H128451   3.867   2.092  35.330 -0.0735  2.0616 -0.7152
 2320TIP3    H228452   3.918   2.220  35.394 -1.2556  1.4838  1.4821
 2321TIP3   OH228453   3.678   0.198  39.686  0.3007  0.6557  0.2169
 2321TIP3    H128454   3.583   0.186  39.676  0.4998 -2.1718  0.9451
 2321TIP3    H228455   3.716   0.155  39.609  1.0564 -0.5160  1.2257
 2322TIP3   OH228456   3.545   2.899  13.576  0.6250 -0.1795 -0.0134
 2322TIP3    H128457   3.591   2.833  13.627  2.1416  0.6050 -0.3150
 2322TIP3    H228458   3.613   2.959  13.547 -0.5418  0.7949 -0.8471
 2323TIP3   OH228459   2.848   2.485  36.784  0.3568  0.5860  0.9059
 2323TIP3    H128460   2.857   2.507  36.691 -0.2343 -0.2730  0.6254
 2323TIP3    H228461   2.755   2.496  36.802  0.4707  0.7444  1.3930
 2324TIP3   OH228462   2.013   0.635  40.918 -0.0603  0.1686  0.5645
 2324TIP3    H128463   2.059   0.582  40.983 -0.5990 -0.4746  0.4257
 2324TIP3    H228464   2.077   0.701  40.891  0.5707 -0.3218  0.8421
 2325TIP3   OH228465   3.299   3.106  44.482  0.3974  0.1799  0.4202
 2325TIP3    H128466   3.323   3.116  44.575  1.3982  0.5150  0.1399
 2325TIP3    H228467   3.261   3.191  44.459 -0.1312 -0.0050  0.5972
 2326TIP3   OH228468   2.339   2.763   5.035  0.3117 -0.3584  0.3395
 2326TIP3    H128469   2.375   2.741   5.120 -3.8747  2.2487  3.1912
 2326TIP3    H228470   2.359   2.855   5.023 -1.8125  0.1337  0.1667
 2327TIP3   OH228471   0.878   2.460  45.003 -0.0005  0.3222  0.1055
 2327TIP3    H128472   0.964   2.442  45.041  0.0332  1.9390  0.8952
 2327TIP3    H228473   0.818   2.461  45.077 -0.2810  1.5293 -0.1051
 2328TIP3   OH228474   1.079   0.620   2.174 -0.7435  0.8510 -0.1896
 2328TIP3    H128475   1.145   0.659   2.116  1.4505 -1.5515  0.4516
 2328TIP3    H228476   1.007   0.597   2.116  0.2679  0.9153 -1.5367
 2329TIP3   OH228477   2.966   3.770  15.398 -0.2693  0.2273  0.0076
 2329TIP3    H128478   2.934   3.684  15.427  1.3195 -0.9205 -1.3963
 2329TIP3    H228479   2.934   3.831  15.463 -2.8470 -1.1800  0.2058
 2330TIP3   OH228480   1.400   3.823   4.135  0.0680  0.8812 -0.2401
 2330TIP3    H128481   1.382   3.903   4.087 -2.1112  1.6638  1.6921
 2330TIP3    H228482   1.425   3.853   4.223  1.3331 -0.5368 -0.0698
 2331TIP3   OH228483   3.520   3.472  32.614 -0.0140 -0.7300  0.0356
 2331TIP3    H128484   3.563   3.387  32.600 -0.0025 -0.6749 -0.2644
 2331TIP3    H228485   3.427   3.454  32.602 -0.1854 -1.0564  1.6394
 2332TIP3   OH228486   3.032   0.076  12.661  0.2423  0.5485  0.5281
 2332TIP3    H128487   2.979   0.098  12.737  0.2935 -0.4574  0.8694
 2332TIP3    H228488   3.122   0.088  12.691  0.2372  1.8319  0.0825
 2333TIP3   OH228489   3.963   0.688  12.482 -0.1160  0.2316  0.5134
 2333TIP3    H128490   3.975   0.610  12.536  0.9189  0.4782  0.6660
 2333TIP3    H228491   3.922   0.752  12.540  0.8844  0.4577  0.9972
 2334TIP3   OH228492   3.327   1.283  46.964 -0.0712  0.4002 -0.0839
 2334TIP3    H128493   3.237   1.290  46.930 -0.3162 -1.4485  0.0603
 2334TIP3    H228494   3.328   1.338  47.042 -1.2851 -0.1053  0.3006
 2335TIP3   OH228495   1.857   2.859  41.903  0.4201 -0.1467 -0.2038
 2335TIP3    H128496   1.874   2.856  41.809  0.0211  0.4754 -0.3095
 2335TIP3    H228497   1.888   2.776  41.937  0.0951 -0.5902 -0.9716
 2336TIP3   OH228498   1.987   1.461   3.717 -0.2191 -0.1044 -0.1050
 2336TIP3    H128499   1.985   1.483   3.623 -2.6145  2.9585  0.5035
 2336TIP3    H228500   2.024   1.539   3.758 -1.1464 -0.5642  1.6728
 2337TIP3   OH228501   3.480   3.884  43.287  0.1048 -0.0480  0.2856
 2337TIP3    H128502   3.509   3.794  43.299  2.5154  0.6436  0.2277
 2337TIP3    H228503   3.427   3.882  43.207 -1.3451 -1.6563  1.2259
 2338TIP3   OH228504   2.685   2.870  45.175 -0.2636 -0.4098 -0.2812
 2338TIP3    H128505   2.708   2.781  45.202  1.0343  0.0419  0.1444
 2338TIP3    H228506   2.626   2.901  45.244  2.0226  0.2713  1.4776
 2339TIP3   OH228507   3.140   0.671  10.216 -0.0072  0.2176 -0.1860
 2339TIP3    H128508   3.106   0.612  10.283  1.1171 -1.3282 -0.9071
 2339TIP3    H228509   3.230   0.689  10.242 -0.1146  1.0620 -0.3586
 2340TIP3   OH228510   0.214   1.003  37.598  0.3970 -0.4668  0.5502
 2340TIP3    H128511   0.151   1.016  37.527 -0.0063 -1.0990  0.7898
 2340TIP3    H228512   0.201   0.913  37.626  0.5733 -0.2337  1.4113
 2341TIP3   OH228513   1.921   3.007  33.836 -0.3479  0.4792  1.0055
 2341TIP3    H128514   1.884   3.064  33.768 -2.6333 -1.2007  0.6910
 2341TIP3    H228515   1.847   2.952  33.863  1.9922 -3.6253 -0.0287
 2342TIP3   OH228516   2.263   1.336  46.965 -0.0322 -0.6180 -0.1582
 2342TIP3    H128517   2.182   1.287  46.979  0.6700 -1.4601  1.1622
 2342TIP3    H228518   2.324   1.272  46.928  0.7199 -0.6362  1.0409
 2343TIP3   OH228519   0.968   1.778  13.332 -0.5618 -0.5751 -0.0178
 2343TIP3    H128520   0.997   1.806  13.418  0.4089  0.4237 -0.6564
 2343TIP3    H228521   0.921   1.696  13.348  0.8033 -1.1323  1.2866
 2344TIP3   OH228522   1.757   1.198   7.640  0.1335 -0.0190 -0.3274
 2344TIP3    H128523   1.834   1.255   7.640 -0.1681  0.4463 -1.9787
 2344TIP3    H228524   1.727   1.198   7.731 -1.0555  4.1535 -0.5110
 2345TIP3   OH228525   0.869   2.266  46.823  0.6678  0.0230  0.6602
 2345TIP3    H128526   0.877   2.174  46.849  0.8599 -0.3722 -0.6947
 2345TIP3    H228527   0.958   2.294  46.806  0.9588  1.3707  3.7969
 2346TIP3   OH228528   3.076   0.681  33.842  0.0435 -0.1208  0.1334
 2346TIP3    H128529   3.043   0.670  33.753  1.2475  0.4917 -0.4093
 2346TIP3    H228530   3.160   0.726  33.832  0.8705 -1.2672  1.4909
 2347TIP3   OH228531   4.084   0.765  43.046  0.0159  0.8262 -0.4140
 2347TIP3    H128532   4.064   0.674  43.024 -1.5553  0.5034  2.0071
 2347TIP3    H228533   4.173   0.763  43.079  0.3022  0.3502 -1.1746
 2348TIP3   OH228534   2.950   1.804   0.223 -0.1062  0.3687  0.1862
 2348TIP3    H128535   2.871   1.817   0.171 -0.3876 -0.4172  0.4000
 2348TIP3    H228536   3.009   1.874   0.196 -1.1963  1.5092  0.6523
 2349TIP3   OH228537   3.542   0.021  36.593  0.2564  0.3244  0.4196
 2349TIP3    H128538   3.474  -0.040  36.564  0.8713  0.4838 -1.5108
 2349TIP3    H228539   3.585   0.049  36.512  0.8895  2.2652  1.3657
 2350TIP3   OH228540   1.964   3.326  10.773  0.1169 -0.4081  0.0763
 2350TIP3    H128541   1.875   3.361  10.768  1.1273  2.2987 -0.2026
 2350TIP3    H228542   2.004   3.348  10.689  1.3729 -0.7079  0.5768
 2351TIP3   OH228543   2.350   3.216  12.526 -0.0559 -0.7642  0.3969
 2351TIP3    H128544   2.422   3.155  12.512  0.1528 -0.2766 -0.7978
 2351TIP3    H228545   2.370   3.257  12.610  0.4551 -1.4454  0.6204
 2352TIP3   OH228546   4.063   0.493  45.032 -0.1517  0.4019 -0.6781
 2352TIP3    H128547   4.055   0.581  45.069 -1.8261 -0.1185  0.2837
 2352TIP3    H228548   3.978   0.452  45.047 -0.3373 -0.4826 -3.5214
 2353TIP3   OH228549   3.157   3.436  31.745 -0.5981  0.3045 -0.4178
 2353TIP3    H128550   3.085   3.375  31.728 -0.4618 -0.0188  0.1670
 2353TIP3    H228551   3.220   3.386  31.796 -0.9567  1.2396  0.9943
 2354TIP3   OH228552   0.119   1.034   2.340  0.1606  0.7278  0.3155
 2354TIP3    H128553   0.050   0.990   2.387  0.3822  0.8269  0.7369
 2354TIP3    H228554   0.199   0.987   2.363  0.3082  0.9417  0.2504
 2355TIP3   OH228555   2.912   3.102  40.029  0.1188  0.0794 -0.2830
 2355TIP3    H128556   2.896   3.029  40.088 -0.9170  1.8404  1.7668
 2355TIP3    H228557   3.007   3.114  40.032  0.0895  0.2110  1.2106
 2356TIP3   OH228558   1.642   1.597   2.968  0.0544  0.5262 -0.5795
 2356TIP3    H128559   1.665   1.589   2.876  0.1289  0.2476 -0.5369
 2356TIP3    H228560   1.589   1.520   2.987  1.0887 -0.0823 -0.0744
 2357TIP3   OH228561   0.299   0.048   1.839 -0.1219  0.6743 -0.5569
 2357TIP3    H128562   0.383   0.033   1.796  0.4712  2.3810 -0.0805
 2357TIP3    H228563   0.322   0.080   1.926 -1.2420  1.9263 -0.6925
 2358TIP3   OH228564   2.329   3.163  33.428  0.1192  0.4947 -0.7556
 2358TIP3    H128565   2.395   3.098  33.452  1.5018  2.3081  0.6483
 2358TIP3    H228566   2.259   3.152  33.493  1.3855  1.7907  0.9488
 2359TIP3   OH228567   0.709   1.563  33.103  0.1128 -0.3096  0.0065
 2359TIP3    H128568   0.631   1.611  33.077  1.0860  1.5680  0.3506
 2359TIP3    H228569   0.687   1.524  33.188 -1.1191 -1.5830 -0.8634
 2360TIP3   OH228570   2.797   0.308  13.641 -0.1721  0.6173  0.0677
 2360TIP3    H128571   2.825   0.222  13.610 -0.0981  0.0354  1.6488
 2360TIP3    H228572   2.811   0.366  13.566  2.1923 -0.2586 -0.2830
 2361TIP3   OH228573   2.858   1.963  35.337  0.6141 -0.2412 -0.0643
 2361TIP3    H128574   2.807   2.035  35.372  0.2851 -0.5108  0.0133
 2361TIP3    H228575   2.876   1.907  35.413 -0.8277 -1.2737 -0.4472
 2362TIP3   OH228576   3.103   2.941   1.620  0.4827 -0.0237 -0.4767
 2362TIP3    H128577   3.049   2.873   1.581  0.2788  1.3366 -2.8013
 2362TIP3    H228578   3.084   2.937   1.714  0.0552 -2.7079 -0.6110
 2363TIP3   OH228579   4.055   3.899  47.656  0.3138  1.3272 -0.1330
 2363TIP3    H128580   4.087   3.812  47.634 -1.1787  0.8726 -0.5758
 2363TIP3    H228581   4.093   3.917  47.742  0.5426  0.1923  0.0168
 2364TIP3   OH228582   3.970   0.784   4.075 -0.5558  0.3325  0.0104
 2364TIP3    H128583   3.982   0.692   4.048 -1.5369 -0.2181  1.3501
 2364TIP3    H228584   3.913   0.820   4.007 -2.1217 -0.7375  0.7030
 2365TIP3   OH228585   3.899   2.157  12.828  0.9619 -0.1104 -0.1238
 2365TIP3    H128586   3.839   2.226  12.798 -0.0163 -0.7376  0.3229
 2365TIP3    H228587   3.951   2.135  12.751 -0.2300 -0.3823 -0.8824
 2366TIP3   OH228588   2.124   3.462  39.212 -0.2191  0.0371 -0.4267
 2366TIP3    H128589   2.044   3.411  39.202 -2.1201  2.8704 -0.9546
 2366TIP3    H228590   2.105   3.524  39.283  1.5371  0.7540 -0.5117
 2367TIP3   OH228591   3.290   1.324   1.530 -0.0607 -0.1799 -0.3761
 2367TIP3    H128592   3.379   1.359   1.537  0.1327 -0.7268  0.0125
 2367TIP3    H228593   3.235   1.400   1.512  0.4603  0.1904 -0.4284
 2368TIP3   OH228594   3.490   2.223  14.863 -0.5768  0.1497 -0.4803
 2368TIP3    H128595   3.395   2.230  14.873 -0.8972 -1.6513 -1.8331
 2368TIP3    H228596   3.506   2.239  14.771  0.6084  1.6094 -0.0585
 2369TIP3   OH228597   0.359   1.006  11.157  0.2971  0.2799  0.6793
 2369TIP3    H128598   0.381   1.014  11.064 -0.7819  0.1300  0.3992
 2369TIP3    H228599   0.297   0.933  11.161  1.6754 -0.9017  1.7628
 2370TIP3   OH228600   0.547   3.846  34.689  0.1552 -0.5132  0.2328
 2370TIP3    H128601   0.554   3.807  34.777 -1.5628 -1.0593  0.1757
 2370TIP3    H228602   0.497   3.927  34.703 -0.1497 -0.6174 -0.2302
 2371TIP3   OH228603   1.505   0.237   8.206 -0.1812  0.1395 -0.3172
 2371TIP3    H128604   1.518   0.184   8.285 -1.1276  0.6886  0.2379
 2371TIP3    H228605   1.569   0.205   8.144  0.1172 -0.7813  0.4466
 2372TIP3   OH228606   2.638   2.708  40.177 -0.0907 -0.2103 -0.4810
 2372TIP3    H128607   2.726   2.684  40.204 -0.4602 -1.9002 -0.6806
 2372TIP3    H228608   2.629   2.673  40.088 -0.1942  1.9820 -1.4100
 2373TIP3   OH228609   1.049   3.094   7.104 -0.4984 -0.2893  0.7516
 2373TIP3    H128610   0.967   3.057   7.137 -0.7046 -0.2704  0.2760
 2373TIP3    H228611   1.117   3.049   7.153 -0.7491 -1.2712  0.2205
 2374TIP3   OH228612   2.034   3.537  39.446  0.0046  0.0287  0.1860
 2374TIP3    H128613   2.104   3.509  39.505  1.2753  0.4710 -1.0618
 2374TIP3    H228614   1.995   3.613  39.489 -0.0089 -0.4691  1.0881
 2375TIP3   OH228615   2.265   3.770   9.308  0.3446  0.0971 -1.0708
 2375TIP3    H128616   2.283   3.681   9.340  1.5697  0.4251 -0.8234
 2375TIP3    H228617   2.323   3.781   9.233  0.1976  0.6951 -1.0987
 2376TIP3   OH228618   0.017   0.402  47.178  0.0367 -0.2117 -0.0015
 2376TIP3    H128619  -0.062   0.456  47.177 -2.1418 -3.1964 -0.1324
 2376TIP3    H228620  -0.011   0.318  47.213  3.4111 -1.1423  0.8464
 2377TIP3   OH228621   3.341   0.816  34.984  0.2772 -0.5454  0.0674
 2377TIP3    H128622   3.415   0.793  35.040  0.4594 -0.7535 -0.2600
 2377TIP3    H228623   3.265   0.780  35.031  0.1816  1.0638  1.2260
 2378TIP3   OH228624   0.295   3.799  36.670  0.0716 -0.6381 -0.4327
 2378TIP3    H128625   0.335   3.870  36.720  1.8788 -1.3373 -0.8135
 2378TIP3    H228626   0.207   3.831  36.650  0.3053  0.8479  0.6991
 2379TIP3   OH228627   0.109   2.891  10.175 -0.3661 -0.1855 -0.7201
 2379TIP3    H128628   0.204   2.900  10.167 -0.3403 -1.1993 -1.8197
 2379TIP3    H228629   0.082   2.969  10.223  1.2765 -1.0069  1.7732
 2380TIP3   OH228630   3.576   3.864   8.075  0.5796  0.2807 -0.0630
 2380TIP3    H128631   3.559   3.954   8.106 -0.5311  0.0173  0.1564
 2380TIP3    H228632   3.520   3.855   7.998  1.3944  0.0728 -0.6374
 2381TIP3   OH228633   3.932   2.236  14.046  0.2232 -0.0650 -0.1194
 2381TIP3    H128634   3.870   2.230  13.973 -0.4842 -0.0375  0.4674
 2381TIP3    H228635   3.967   2.148  14.055  1.3871  0.2296 -1.3892
 2382TIP3   OH228636   2.250   0.529  12.610  0.2704  0.0708  0.1654
 2382TIP3    H128637   2.269   0.506  12.701 -1.1761 -0.9867  0.2471
 2382TIP3    H228638   2.285   0.456  12.558  0.9151  0.5741 -0.1215
 2383TIP3   OH228639   1.725   2.153  19.952 -0.1967  0.0190  0.5442
 2383TIP3    H128640   1.757   2.064  19.961  0.5513  0.3413  1.1450
 2383TIP3    H228641   1.653   2.159  20.015 -0.4122 -0.2214  0.3279
 2384TIP3   OH228642   1.684   1.625  43.514 -0.0360  1.0620  0.2320
 2384TIP3    H128643   1.760   1.666  43.556  0.7292  2.7223 -2.5263
 2384TIP3    H228644   1.696   1.641  43.421 -2.0254 -1.7215 -0.6512
 2385TIP3   OH228645   1.703   1.256  46.856  0.5260 -0.7814  0.2253
 2385TIP3    H128646   1.748   1.182  46.896  2.9733 -0.3533 -1.5206
 2385TIP3    H228647   1.711   1.242  46.762  0.9446  1.5772 -0.1677
 2386TIP3   OH228648   1.382   2.132  36.600 -0.4040  0.1337  0.1641
 2386TIP3    H128649   1.304   2.089  36.565 -1.1250  1.0304  0.6059
 2386TIP3    H228650   1.350   2.217  36.632  0.6746  0.3445  0.7463
 2387TIP3   OH228651   1.476   2.362  16.161  0.6653  0.0491 -0.5973
 2387TIP3    H128652   1.558   2.407  16.181  0.0912  0.8931 -0.1042
 2387TIP3    H228653   1.504   2.275  16.130  1.7117 -0.2209  0.9644
 2388TIP3   OH228654   0.061   2.380  43.934  0.4512  0.0190 -0.5729
 2388TIP3    H128655   0.011   2.298  43.925 -1.8830  1.1705  0.9360
 2388TIP3    H228656   0.018   2.426  44.006  2.6828  1.9196 -0.3657
 2389TIP3   OH228657   3.743   0.124   8.273 -0.7435 -0.1949 -0.5484
 2389TIP3    H128658   3.726   0.207   8.228 -1.4924  0.0708  0.1946
 2389TIP3    H228659   3.823   0.140   8.324 -0.4949 -0.1529 -0.9535
 2390TIP3   OH228660   1.090   1.620  36.455 -0.2542  0.1734 -0.1895
 2390TIP3    H128661   1.145   1.571  36.394  0.2829  0.7262 -0.1616
 2390TIP3    H228662   1.013   1.644  36.403 -0.6951 -0.9819 -0.1076
 2391TIP3   OH228663   2.961   1.411  37.333 -0.5509 -0.3566  0.4004
 2391TIP3    H128664   2.989   1.488  37.284  1.8388  0.1494  2.3805
 2391TIP3    H228665   2.866   1.421  37.341 -1.0159 -0.1498 -3.3826
 2392TIP3   OH228666   1.832   1.875   3.214 -0.0500 -0.0302  0.2014
 2392TIP3    H128667   1.856   1.956   3.259 -2.2282  0.8805 -0.1260
 2392TIP3    H228668   1.913   1.825   3.209  1.5579  2.4403 -0.2476
 2393TIP3   OH228669   3.910   3.756  36.598  0.6521  0.4884 -0.8834
 2393TIP3    H128670   3.889   3.769  36.506  0.1366  2.4496 -0.5249
 2393TIP3    H228671   3.851   3.815  36.645  0.8122 -0.5582  0.7227
 2394TIP3   OH228672   0.727   3.905   1.154 -0.2239 -0.1789  0.0283
 2394TIP3    H128673   0.778   3.854   1.218 -0.3883  1.8192  1.8634
 2394TIP3    H228674   0.650   3.934   1.203 -0.8273  0.6739 -1.3763
 2395TIP3   OH228675   0.104   3.825   8.048  0.1780 -0.0554  0.9809
 2395TIP3    H128676   0.157   3.848   7.972 -1.0064 -1.4167 -0.3171
 2395TIP3    H228677   0.022   3.872   8.036 -1.0308 -2.2743 -0.0365
 2396TIP3   OH228678   1.280   2.864  42.445  0.2598  0.0111  0.3903
 2396TIP3    H128679   1.260   2.955  42.467 -2.9537 -0.5769  0.3513
 2396TIP3    H228680   1.223   2.813  42.502  0.5134 -1.9199 -1.0037
 2397TIP3   OH228681   0.841   0.712  15.067  0.1484 -0.2663 -0.1839
 2397TIP3    H128682   0.889   0.755  15.138 -1.6300 -0.0410  0.9429
 2397TIP3    H228683   0.907   0.658  15.024  1.5330  0.4353  0.9334
 2398TIP3   OH228684   2.092   3.448  34.647  0.0264 -0.5494 -0.0113
 2398TIP3    H128685   2.035   3.401  34.708 -0.8659  0.4851  0.0034
 2398TIP3    H228686   2.101   3.535  34.686  0.5241 -0.2903 -0.6991
 2399TIP3   OH228687   1.246   1.533  38.499  0.3289  0.1753 -0.5803
 2399TIP3    H128688   1.166   1.509  38.451 -0.0517 -0.1842  0.2065
 2399TIP3    H228689   1.268   1.454  38.547  2.7834 -0.7094 -2.8995
 2400TIP3   OH228690   1.609   0.589  43.654  0.3409 -0.4335 -0.3691
 2400TIP3    H128691   1.696   0.562  43.622  0.8618  1.6649 -0.8564
 2400TIP3    H228692   1.592   0.672  43.610 -1.6531 -0.4798  0.2247
 2401TIP3   OH228693   1.222   0.573  12.182 -0.4758  0.2329 -0.1931
 2401TIP3    H128694   1.191   0.662  12.200  0.1843  0.3177  0.6109
 2401TIP3    H228695   1.289   0.558  12.249  2.1468  0.5377 -2.5711
 2402TIP3   OH228696   3.315   3.599  44.872  0.5055 -0.3110 -0.0221
 2402TIP3    H128697   3.243   3.655  44.842  2.6166  3.6133  1.5364
 2402TIP3    H228698   3.275   3.546  44.941 -0.9810  1.7230  0.7932
 2403TIP3   OH228699   3.638   3.488   2.803 -0.1687  0.1330 -0.5964
 2403TIP3    H128700   3.551   3.483   2.764 -1.2779  2.2177  1.3252
 2403TIP3    H228701   3.660   3.398   2.826 -1.1295 -0.6232 -2.4300
 2404TIP3   OH228702   2.368   0.726  37.452 -0.3362 -0.2854 -0.4054
 2404TIP3    H128703   2.296   0.691  37.399  0.3150 -1.0737 -0.7896
 2404TIP3    H228704   2.437   0.746  37.389  0.0834 -0.2988  0.0420
 2405TIP3   OH228705   3.397   0.611  14.859  0.3273  0.1516 -0.1382
 2405TIP3    H128706   3.326   0.574  14.807 -0.8133 -1.0225  2.0622
 2405TIP3    H228707   3.375   0.703  14.869  0.3362  0.2913 -1.3162
 2406TIP3   OH228708   1.336   0.455  32.697 -0.5607  0.6401 -0.5517
 2406TIP3    H128709   1.247   0.461  32.732 -0.0136 -3.0572  2.0745
 2406TIP3    H228710   1.391   0.496  32.764  0.0785 -2.1203  0.7382
 2407TIP3   OH228711   2.343   0.905  13.733  0.3864 -0.2929 -0.3561
 2407TIP3    H128712   2.263   0.880  13.781  1.9640 -1.3066  1.9442
 2407TIP3    H228713   2.334   0.999  13.720 -1.5910 -0.5241 -0.9940
 2408TIP3   OH228714   3.526   2.504   3.035 -0.1435  0.0332 -0.0672
 2408TIP3    H128715   3.555   2.581   2.986  0.8567 -0.1768  0.1764
 2408TIP3    H228716   3.507   2.439   2.968  0.0237  0.1512 -0.2313
 2409TIP3   OH228717   2.018   2.414  33.883  0.6822  0.0137 -0.4243
 2409TIP3    H128718   2.008   2.361  33.804  1.2863 -0.7255 -0.0249
 2409TIP3    H228719   2.021   2.504  33.852  1.7158 -0.3155 -1.3224
 2410TIP3   OH228720   2.740   1.788  46.380 -0.1917 -0.1422  0.0648
 2410TIP3    H128721   2.651   1.754  46.379 -0.5873  0.5824  2.8099
 2410TIP3    H228722   2.795   1.713  46.357 -1.3442 -1.2927  0.9360
 2411TIP3   OH228723   2.350   3.108   8.295  0.1590  0.1445  0.7374
 2411TIP3    H128724   2.272   3.102   8.351 -0.4474  0.5218 -0.0535
 2411TIP3    H228725   2.419   3.065   8.346 -0.2295  1.0127  2.0241
 2412TIP3   OH228726   0.252   1.186  44.574  0.0504  0.2059  0.5357
 2412TIP3    H128727   0.341   1.221  44.584 -0.1890  0.3338  2.6316
 2412TIP3    H228728   0.196   1.263  44.582 -0.2883  0.1639 -1.0471
 2413TIP3   OH228729   0.275   1.259  11.706  0.7776 -0.1237 -0.1695
 2413TIP3    H128730   0.232   1.339  11.735 -0.7846 -0.3590 -1.7182
 2413TIP3    H228731   0.291   1.210  11.788 -2.2167 -0.1521  0.5133
 2414TIP3   OH228732   3.542   1.097  46.867  0.3736  0.2936  0.5145
 2414TIP3    H128733   3.465   1.146  46.897  0.4662  0.9089 -0.2076
 2414TIP3    H228734   3.615   1.138  46.912  0.3354  0.0792  0.7711
 2415TIP3   OH228735   3.470   1.330  35.415  0.0203 -0.4198  0.0463
 2415TIP3    H128736   3.522   1.395  35.461 -0.8532 -1.0246  1.9832
 2415TIP3    H228737   3.386   1.329  35.460 -1.0870 -0.7334 -1.8783
 2416TIP3   OH228738   3.028   3.280  42.865 -0.3023 -0.3293  0.7385
 2416TIP3    H128739   2.943   3.285  42.821 -1.5089 -1.4870  2.8161
 2416TIP3    H228740   3.039   3.188  42.888  0.7825  0.0556  1.8815
 2417TIP3   OH228741   0.261   4.047  31.546  0.2263 -0.0055 -0.3671
 2417TIP3    H128742   0.232   4.120  31.601  1.9230  0.7971 -0.4669
 2417TIP3    H228743   0.213   3.971  31.578 -0.6930  0.9299  0.5287
 2418TIP3   OH228744   2.973   4.066  30.972 -0.0407  0.5411 -0.4697
 2418TIP3    H128745   2.927   3.986  30.943 -0.0075  0.0914  0.6452
 2418TIP3    H228746   3.064   4.053  30.944  0.3247 -0.5907  1.1155
 2419TIP3   OH228747   2.841   1.305   3.163 -0.0391 -0.2997  0.6732
 2419TIP3    H128748   2.847   1.400   3.155 -0.3025 -0.1563  1.9200
 2419TIP3    H228749   2.810   1.290   3.252 -2.5450 -1.4718 -0.2785
 2420TIP3   OH228750   1.295   3.908   8.656  0.1211  0.0705 -0.2614
 2420TIP3    H128751   1.230   3.866   8.600 -1.3813  0.4841  1.0962
 2420TIP3    H228752   1.375   3.910   8.603 -0.8574 -0.7919 -1.8428
 2421TIP3   OH228753   2.811   2.428  32.299  0.1584 -0.6726  0.1317
 2421TIP3    H128754   2.892   2.448  32.251  0.0152  0.1111  0.2094
 2421TIP3    H228755   2.801   2.501  32.360  1.2175 -2.3990  2.5581
 2422TIP3   OH228756   2.403   1.992  35.317 -0.4746  0.5100 -0.0362
 2422TIP3    H128757   2.447   1.921  35.271  0.4065  0.6724  0.5138
 2422TIP3    H228758   2.450   2.071  35.289 -2.2631  1.0619 -1.6431
 2423TIP3   OH228759   1.845   2.551  45.692  0.2117 -0.0295  0.5949
 2423TIP3    H128760   1.773   2.502  45.734 -0.3030  1.4080  1.4732
 2423TIP3    H228761   1.920   2.536  45.749  0.2888 -0.4891  0.3806
 2424TIP3   OH228762   1.128   2.013  11.813 -0.0066  0.0017 -0.3126
 2424TIP3    H128763   1.082   1.940  11.854  0.7673  0.2479  1.0887
 2424TIP3    H228764   1.215   2.012  11.853  1.2397 -0.4259 -2.8539
 2425TIP3   OH228765   2.761   2.292  40.725 -0.0378 -0.3182 -0.5483
 2425TIP3    H128766   2.666   2.293  40.737  0.1420 -1.2873  1.2978
 2425TIP3    H228767   2.774   2.330  40.638 -1.9627  1.8971  0.0203
 2426TIP3   OH228768   1.680   3.070   3.714 -0.0543  0.2372  0.3518
 2426TIP3    H128769   1.706   3.095   3.625 -2.2627 -0.1251 -0.4591
 2426TIP3    H228770   1.692   3.150   3.765  0.8794  0.5590 -0.3403
 2427TIP3   OH228771   0.242   1.808  12.663 -0.1477 -0.0425 -0.5752
 2427TIP3    H128772   0.168   1.755  12.693 -0.7288  1.3091  0.5051
 2427TIP3    H228773   0.318   1.753  12.679 -0.8051 -0.9755 -0.5174
 2428TIP3   OH228774   1.676   1.091   3.467 -0.2036 -0.5825  0.2705
 2428TIP3    H128775   1.593   1.084   3.515  0.0213  0.3920  0.8143
 2428TIP3    H228776   1.733   1.027   3.509 -0.8893 -1.8410 -0.6139
 2429TIP3   OH228777   2.472   1.438  35.763  0.0934 -0.5015  0.0041
 2429TIP3    H128778   2.524   1.360  35.745  0.5499  0.1409 -1.7402
 2429TIP3    H228779   2.480   1.451  35.857  0.2490 -2.3685  0.2879
 2430TIP3   OH228780   2.851   0.452   2.907 -0.1305 -0.1567  0.1099
 2430TIP3    H128781   2.757   0.455   2.889 -0.0923  0.9905  0.0517
 2430TIP3    H228782   2.864   0.370   2.955 -0.9547 -0.9647 -1.0075
 2431TIP3   OH228783   3.176   2.239  46.437  0.2340 -0.0494  0.3936
 2431TIP3    H128784   3.267   2.213  46.450 -0.0065 -0.5628  1.1609
 2431TIP3    H228785   3.125   2.163  46.466 -0.4475  0.4546  0.5451
 2432TIP3   OH228786   3.644   1.310  34.946 -0.1690  0.0818  0.1711
 2432TIP3    H128787   3.639   1.399  34.912 -0.7746  0.3057  0.8165
 2432TIP3    H228788   3.597   1.313  35.030 -0.4144 -0.8913  0.0891
 2433TIP3   OH228789   1.879   1.404   9.299 -0.0803 -0.0323  0.2361
 2433TIP3    H128790   1.928   1.481   9.270 -0.4142  0.6403  1.4015
 2433TIP3    H228791   1.787   1.429   9.289 -0.1894 -0.3758  0.3688
 2434TIP3   OH228792   1.424   3.760   1.283  0.1408 -0.0373 -0.2302
 2434TIP3    H128793   1.451   3.851   1.271 -1.1507  0.5092  0.8334
 2434TIP3    H228794   1.339   3.765   1.326 -0.1133 -1.7535 -0.4574
 2435TIP3   OH228795   1.873   1.957   5.713  0.0348  0.1271 -0.1422
 2435TIP3    H128796   1.916   2.037   5.745 -1.5340  0.5030  1.1509
 2435TIP3    H228797   1.913   1.887   5.764  1.2785  0.0802 -1.1414
 2436TIP3   OH228798   2.644   3.149  25.332 -0.7209  1.1884  0.2353
 2436TIP3    H128799   2.595   3.221  25.370 -2.0551  1.1575 -1.3092
 2436TIP3    H228800   2.591   3.121  25.257 -0.9295 -2.2894  1.5173
 2437TIP3   OH228801   0.590   1.875  17.209  0.4512  0.7711 -0.7019
 2437TIP3    H128802   0.509   1.825  17.216  0.3761  0.7643 -1.5483
 2437TIP3    H228803   0.566   1.953  17.160  0.6768  1.4130  0.1876
 2438TIP3   OH228804   2.068   2.418   6.829 -0.2460 -0.1262 -0.5450
 2438TIP3    H128805   2.126   2.404   6.755 -0.1146 -0.8823 -0.3133
 2438TIP3    H228806   2.121   2.394   6.906 -0.6005 -0.0432 -0.2725
 2439TIP3   OH228807   0.913   3.252  29.337  0.2133 -0.4086 -0.0239
 2439TIP3    H128808   0.834   3.198  29.330  0.1871 -1.0019  3.1729
 2439TIP3    H228809   0.901   3.302  29.417  2.5251  0.4670 -0.1457
 2440TIP3   OH228810   1.187   3.802  26.838  0.0748 -0.5456 -1.0355
 2440TIP3    H128811   1.180   3.812  26.743  0.4890  1.3528 -0.8931
 2440TIP3    H228812   1.107   3.843  26.872  1.2593  1.4265 -0.4678
 2441TIP3   OH228813   2.329   2.856   2.651  0.3739 -0.4481 -0.1759
 2441TIP3    H128814   2.316   2.775   2.701  1.5621 -0.6158 -0.1141
 2441TIP3    H228815   2.408   2.895   2.688  0.0336  0.5540 -0.4666
 2442TIP3   OH228816   0.521   0.415   2.074 -0.4263 -0.2278 -0.0172
 2442TIP3    H128817   0.558   0.352   2.012  0.5264  0.5753 -0.2950
 2442TIP3    H228818   0.539   0.377   2.160 -1.1451 -1.0192 -0.2076
 2443TIP3   OH228819   3.233   1.958  36.713 -0.1940 -0.0862 -0.4330
 2443TIP3    H128820   3.297   2.020  36.749  0.0189  0.3536 -1.5523
 2443TIP3    H228821   3.171   1.944  36.785  1.6261 -1.2430  1.0216
 2444TIP3   OH228822   0.539   2.245  11.112  0.3991 -0.9239  0.7630
 2444TIP3    H128823   0.547   2.325  11.059  1.1630 -1.2034  0.4402
 2444TIP3    H228824   0.617   2.246  11.168  0.7228 -1.7410  0.3336
 2445TIP3   OH228825   3.341   1.568  41.964  0.1420 -0.2299  0.1346
 2445TIP3    H128826   3.247   1.568  41.984  0.3540  0.6544  1.1910
 2445TIP3    H228827   3.347   1.619  41.883 -0.4143 -1.4223 -0.6888
 2446TIP3   OH228828   3.292   2.921   7.021 -0.3502 -0.3470  0.0049
 2446TIP3    H128829   3.297   2.945   7.113 -0.8715 -1.7310  0.4186
 2446TIP3    H228830   3.372   2.870   7.004 -0.1922  0.0112 -0.3444
 2447TIP3   OH228831   1.998   0.588  13.660 -0.6973 -0.5512 -0.6086
 2447TIP3    H128832   2.008   0.643  13.582  0.3731  0.5995  0.3107
 2447TIP3    H228833   2.017   0.499  13.629  0.0421 -0.0631 -1.5846
 2448TIP3   OH228834   3.284   4.016  34.731 -0.1585  0.1196  0.7959
 2448TIP3    H128835   3.288   3.935  34.782 -2.8261 -0.7942 -0.2621
 2448TIP3    H228836   3.242   4.079  34.789 -2.0537 -0.5611  0.2161
 2449TIP3   OH228837   0.942   2.500  42.786 -0.0509 -0.5857  0.0219
 2449TIP3    H128838   0.964   2.415  42.826  1.0055  1.1225  3.5305
 2449TIP3    H228839   0.853   2.488  42.753  0.2650 -3.2098 -0.1242
 2450TIP3   OH228840   3.340   1.755   5.120 -0.2779  0.1897 -0.0329
 2450TIP3    H128841   3.429   1.787   5.129 -0.0491 -0.2467 -0.6877
 2450TIP3    H228842   3.298   1.777   5.203  0.4709  0.2940  0.3251
 2451TIP3   OH228843   2.137   3.213   3.532  0.2086 -0.2031 -0.6280
 2451TIP3    H128844   2.050   3.222   3.573  0.1272 -0.9044 -0.6336
 2451TIP3    H228845   2.173   3.134   3.572  0.3442 -0.6016 -1.5283
 2452TIP3   OH228846   3.082   1.124  12.668  0.2396 -0.5105  0.6828
 2452TIP3    H128847   3.019   1.171  12.723  0.6859 -1.3794  1.9906
 2452TIP3    H228848   3.082   1.171  12.585 -1.0234  0.3912  1.1733
 2453TIP3   OH228849   3.183   0.878  39.364 -0.3445  0.3547  0.0699
 2453TIP3    H128850   3.089   0.865  39.354 -0.0472 -0.8601 -1.4630
 2453TIP3    H228851   3.217   0.793  39.390  0.4831  0.4314 -0.7058
 2454TIP3   OH228852   3.297   2.387  40.925  0.1433 -0.5067 -0.0197
 2454TIP3    H128853   3.288   2.394  41.020 -0.0244 -1.4772  0.0447
 2454TIP3    H228854   3.305   2.294  40.909 -1.6950 -0.5173 -1.1288
 2455TIP3   OH228855   0.606   0.146  43.871  0.3091 -0.5837  0.0701
 2455TIP3    H128856   0.528   0.171  43.822  0.0263 -0.0379  0.7873
 2455TIP3    H228857   0.673   0.130  43.804 -0.1885 -0.2684 -0.5066
 2456TIP3   OH228858   1.264   0.193  45.486 -0.2130  0.3753 -0.6476
 2456TIP3    H128859   1.175   0.208  45.520 -1.5488 -1.2561 -3.1473
 2456TIP3    H228860   1.321   0.233  45.551 -2.6931  0.1962  1.8238
 2457TIP3   OH228861   0.018   0.269   6.224  0.1111  0.4153  0.2076
 2457TIP3    H128862  -0.002   0.215   6.300 -0.2219 -0.3296 -0.4032
 2457TIP3    H228863  -0.067   0.304   6.196 -0.0126 -0.6851 -0.8398
 2458TIP3   OH228864   0.379   0.033   9.826 -0.8567 -0.2521 -0.4303
 2458TIP3    H128865   0.339   0.116   9.850  2.4227  1.0027  1.2917
 2458TIP3    H228866   0.355  -0.027   9.896 -2.4210 -0.5408 -1.1741
 2459TIP3   OH228867   3.250   1.681  12.604 -0.3933  0.0687 -0.1552
 2459TIP3    H128868   3.292   1.605  12.564 -2.2621  0.1387 -2.4571
 2459TIP3    H228869   3.166   1.689  12.558  0.1530  4.1567 -0.8273
 2460TIP3   OH228870   3.777   1.116   5.249 -0.1952 -0.4953  0.5301
 2460TIP3    H128871   3.751   1.207   5.238 -1.6812 -0.9547  0.0013
 2460TIP3    H228872   3.770   1.078   5.161 -1.3037 -1.5199  1.0211
 2461TIP3   OH228873   1.177   0.023  11.824 -0.1507  0.2011  0.6250
 2461TIP3    H128874   1.248  -0.002  11.765 -0.8804 -0.0481 -0.1742
 2461TIP3    H228875   1.143  -0.060  11.858  0.9741  0.3837  2.2902
 2462TIP3   OH228876   4.052   3.878  30.190 -0.0556  0.4338 -0.4045
 2462TIP3    H128877   4.057   3.957  30.135 -1.2990  1.0742  0.3613
 2462TIP3    H228878   4.065   3.806  30.129  1.0599  1.2154 -1.1329
 2463TIP3   OH228879   1.932   2.763   2.025 -0.7214  0.4260 -0.8931
 2463TIP3    H128880   2.008   2.818   2.040 -0.8164  0.3229  0.0620
 2463TIP3    H228881   1.857   2.819   2.046 -0.7987 -0.2046  0.6425
 2464TIP3   OH228882   1.097   4.003  39.303 -0.1813 -0.0051  0.2368
 2464TIP3    H128883   1.031   4.062  39.340 -0.3105  0.2318 -0.3528
 2464TIP3    H228884   1.100   4.027  39.210  2.0458  1.2796  0.5502
 2465TIP3   OH228885   1.191   1.998   1.774 -0.3071 -0.2201 -0.2205
 2465TIP3    H128886   1.145   2.029   1.696  1.4135 -0.1684 -1.2629
 2465TIP3    H228887   1.246   2.072   1.800  0.3200 -0.7856  0.0881
 2466TIP3   OH228888   2.682   1.943  33.466  0.0968  0.0956 -0.0886
 2466TIP3    H128889   2.729   2.020  33.434 -0.1728 -0.3248 -1.5500
 2466TIP3    H228890   2.742   1.904  33.530  1.2673  0.1982 -1.0888
 2467TIP3   OH228891   1.259   0.408   1.954  0.0222 -0.1332  1.1088
 2467TIP3    H128892   1.330   0.449   2.004  1.9458  1.9617 -2.8382
 2467TIP3    H228893   1.189   0.473   1.953  0.1867  0.0378  0.6754
 2468TIP3   OH228894   2.011   3.262  32.126 -0.0755  0.4003  0.3451
 2468TIP3    H128895   2.086   3.303  32.169  0.6079 -0.8323  0.4096
 2468TIP3    H228896   2.001   3.309  32.044  1.2662  0.1177 -0.0061
 2469TIP3   OH228897   1.180   3.195  32.125 -0.3970 -0.2090 -0.2618
 2469TIP3    H128898   1.162   3.155  32.210 -1.3638  1.3197  0.2960
 2469TIP3    H228899   1.260   3.153  32.095 -0.5357 -1.4298  0.9807
 2470TIP3   OH228900   1.394   1.983  35.567  0.0842 -0.0238 -0.1121
 2470TIP3    H128901   1.300   1.995  35.582 -0.2594  0.0866 -2.1556
 2470TIP3    H228902   1.435   2.056  35.614 -0.9317  0.5783 -0.1330
 2471TIP3   OH228903   0.607   1.736  45.634  0.0847  0.0397  0.0142
 2471TIP3    H128904   0.634   1.648  45.606  0.0562 -0.3140  1.0841
 2471TIP3    H228905   0.677   1.765  45.692 -0.8936 -0.1281  1.3240
 2472TIP3   OH228906   3.039   0.257   1.257  0.6319  0.2621 -0.3609
 2472TIP3    H128907   3.055   0.168   1.289 -0.4500  0.8123  1.8943
 2472TIP3    H228908   3.093   0.264   1.178 -0.7045 -3.0184 -1.7380
 2473TIP3   OH228909   2.977   0.224  35.750 -0.2813  0.1577 -0.0511
 2473TIP3    H128910   2.911   0.244  35.685 -0.8537 -2.8796 -0.5707
 2473TIP3    H228911   2.929   0.180  35.821  0.6576  1.3568  1.3866
 2474TIP3   OH228912   0.219   0.434  36.468 -0.6799  0.1416  0.3530
 2474TIP3    H128913   0.171   0.414  36.388 -1.1912 -1.1835  0.9677
 2474TIP3    H228914   0.154   0.473  36.526 -0.4441  0.5744  0.3278
 2475TIP3   OH228915   3.570   0.685  33.477  0.1044  0.1869 -0.3837
 2475TIP3    H128916   3.600   0.726  33.396 -1.8032  1.3843 -0.5456
 2475TIP3    H228917   3.485   0.647  33.454  0.8178 -1.9665  0.3596
 2476TIP3   OH228918   0.735   1.427  14.639  0.2995 -0.0797  0.2073
 2476TIP3    H128919   0.717   1.333  14.637  1.4169 -0.3101  0.3456
 2476TIP3    H228920   0.697   1.457  14.722 -1.1536 -0.1585 -0.4038
 2477TIP3   OH228921   2.225   2.351  39.143  0.0520  0.2912  0.1823
 2477TIP3    H128922   2.226   2.421  39.209  1.3663 -0.3455  0.8631
 2477TIP3    H228923   2.150   2.373  39.086 -0.9321  1.0103  1.6999
 2478TIP3   OH228924   0.904   1.600  14.204 -0.2244 -0.1003 -0.3585
 2478TIP3    H128925   0.890   1.540  14.277  1.7902 -0.1234  0.0688
 2478TIP3    H228926   0.879   1.686  14.238 -0.1749 -0.2434  0.0334
 2479TIP3   OH228927   2.120   1.834  44.852  0.4896 -0.6588  0.2005
 2479TIP3    H128928   2.177   1.878  44.914  0.6992 -0.2852 -0.2532
 2479TIP3    H228929   2.168   1.836  44.769  0.0692 -0.8494 -0.0509
 2480TIP3   OH228930   0.017   1.183   8.550  0.6187 -0.0172 -0.3075
 2480TIP3    H128931   0.091   1.139   8.591  0.8158 -0.2287 -0.8818
 2480TIP3    H228932   0.031   1.276   8.567  1.1805 -0.0323 -0.6726
 2481TIP3   OH228933   0.589   0.416   5.763 -0.0711 -0.1916 -0.0409
 2481TIP3    H128934   0.542   0.348   5.715 -0.7233 -0.1269  0.5018
 2481TIP3    H228935   0.598   0.488   5.701 -0.7535 -0.1753 -0.1231
 2482TIP3   OH228936   3.771   0.184  42.818  0.0502  0.3027 -0.0445
 2482TIP3    H128937   3.825   0.135  42.879 -0.1643 -1.1070 -0.9518
 2482TIP3    H228938   3.807   0.164  42.732 -0.1768  1.5973 -0.4699
 2483TIP3   OH228939   3.302   2.958  38.254 -0.4629 -0.4758 -0.2361
 2483TIP3    H128940   3.252   3.037  38.275  1.6154  1.0145 -0.5847
 2483TIP3    H228941   3.265   2.928  38.171 -0.8386  0.5333 -0.4491
 2484TIP3   OH228942   1.551   3.826  29.640  0.1779  0.4276 -0.4098
 2484TIP3    H128943   1.524   3.804  29.729 -0.8725  1.8694 -0.3313
 2484TIP3    H228944   1.593   3.912  29.648 -1.2037  1.2497 -1.4626
 2485TIP3   OH228945   2.895   0.076  46.779 -0.1849  0.4438  0.0530
 2485TIP3    H128946   2.887   0.073  46.684  0.3946  0.2897  0.0031
 2485TIP3    H228947   2.870   0.165  46.803  0.0965  0.6166 -0.2857
 2486TIP3   OH228948   1.464   1.844   5.498 -0.2094  0.2085  1.4903
 2486TIP3    H128949   1.459   1.829   5.403 -1.3170 -0.2760  1.6170
 2486TIP3    H228950   1.425   1.930   5.510  0.4000  0.4942  1.4582
 2487TIP3   OH228951   3.415   1.207   6.567  0.2178 -0.6364 -0.4072
 2487TIP3    H128952   3.495   1.158   6.588  0.4548  0.0953  0.4755
 2487TIP3    H228953   3.350   1.139   6.550  0.4766 -1.2932  1.0208
 2488TIP3   OH228954   2.817   0.169  15.598 -0.3322  0.1868  0.4714
 2488TIP3    H128955   2.762   0.106  15.644  0.3656 -0.3474  0.6060
 2488TIP3    H228956   2.876   0.114  15.545 -0.0910  0.7435  0.1583
 2489TIP3   OH228957   2.608   0.921  47.524  1.0527  0.5109 -0.0815
 2489TIP3    H128958   2.606   1.000  47.577  0.5891  0.3656  0.1136
 2489TIP3    H228959   2.624   0.850  47.586 -0.9193  0.1623  0.0903
 2490TIP3   OH228960   2.775   2.245  42.518 -0.1891 -0.1560 -0.6619
 2490TIP3    H128961   2.727   2.308  42.571 -0.7515  0.9786 -2.4218
 2490TIP3    H228962   2.825   2.298  42.457 -0.0742 -1.3933 -1.6959
 2491TIP3   OH228963   0.933   3.391  45.117 -0.8015  0.0035 -0.8247
 2491TIP3    H128964   1.002   3.348  45.067 -0.3424 -0.0915 -0.1159
 2491TIP3    H228965   0.931   3.481  45.084  1.3885  0.7438  0.8625
 2492TIP3   OH228966   2.764   2.518   1.646 -0.0479  0.3407 -0.3388
 2492TIP3    H128967   2.804   2.605   1.650 -0.8558  0.6917  0.5842
 2492TIP3    H228968   2.696   2.520   1.714 -0.2048 -0.9481 -0.4375
 2493TIP3   OH228969   2.375   2.541  38.476 -0.4221 -0.4859 -0.2449
 2493TIP3    H128970   2.395   2.596  38.400  0.5959 -0.5575 -0.0388
 2493TIP3    H228971   2.460   2.511  38.508 -0.7020  0.6015  1.7211
 2494TIP3   OH228972   3.735   1.236  38.409  0.4745  0.3270 -0.6992
 2494TIP3    H128973   3.737   1.147  38.442 -0.5559  0.5394 -0.0149
 2494TIP3    H228974   3.659   1.238  38.350  1.2156  0.4330 -1.6699
 2495TIP3   OH228975   0.263   3.830  47.687 -0.1561 -0.2414 -0.2525
 2495TIP3    H128976   0.243   3.801  47.775  1.2661 -0.0184  0.1774
 2495TIP3    H228977   0.257   3.752  47.633 -0.3913 -0.5120  0.1659
 2496TIP3   OH228978   0.435   0.722   8.060  0.3157 -0.7081  0.1323
 2496TIP3    H128979   0.404   0.702   8.148 -0.4405  0.2904  0.1183
 2496TIP3    H228980   0.509   0.782   8.074  2.2040 -2.8797  0.1550
 2497TIP3   OH228981   2.594   0.928   4.141 -0.3412 -0.6335 -0.1460
 2497TIP3    H128982   2.661   0.885   4.194  0.2969  1.0825  0.5274
 2497TIP3    H228983   2.638   0.950   4.059 -0.3993 -0.5010 -0.1425
 2498TIP3   OH228984   1.281   2.740  38.601 -0.7252 -0.2946  0.3301
 2498TIP3    H128985   1.293   2.728  38.695 -0.4438  0.6088  0.4177
 2498TIP3    H228986   1.344   2.681  38.560 -1.3310 -1.2086  0.6917
 2499TIP3   OH228987   0.607   3.537  37.025  0.1878 -0.1843 -0.3876
 2499TIP3    H128988   0.626   3.577  37.110  2.0947  0.4860 -1.0707
 2499TIP3    H228989   0.655   3.454  37.026 -1.0086 -0.8883 -0.2575
 2500TIP3   OH228990   0.011   2.476   8.092 -0.7780 -0.3812 -0.2169
 2500TIP3    H128991   0.052   2.444   8.172 -1.6278 -3.2141 -0.7934
 2500TIP3    H228992   0.041   2.567   8.084  0.2539 -0.3648  2.6521
 2501TIP3   OH228993   0.449   2.848  45.991 -0.6411 -0.0878 -0.1123
 2501TIP3    H128994   0.506   2.913  45.950 -0.4414  0.7194  1.3803
 2501TIP3    H228995   0.508   2.776  46.015 -0.8216 -0.7404 -1.5335
 2502TIP3   OH228996   3.383   1.584  34.730 -0.0567 -0.1762  0.3923
 2502TIP3    H128997   3.433   1.530  34.669 -0.4773 -0.8042  0.5952
 2502TIP3    H228998   3.444   1.602  34.802 -0.2606 -1.3705  0.8900
 2503TIP3   OH228999   3.678   2.832  15.463 -0.3513  0.0691  0.3059
 2503TIP3    H129000   3.732   2.853  15.539  0.0146 -0.8134  0.3036
 2503TIP3    H229001   3.698   2.900  15.400  1.6933 -0.8653 -0.1457
 2504TIP3   OH229002   2.197   3.424  15.008 -0.2565 -0.4369  0.7864
 2504TIP3    H129003   2.255   3.406  14.934  1.6444  0.3243  1.9965
 2504TIP3    H229004   2.181   3.518  15.003  0.9255 -0.1357  1.9889
 2505TIP3   OH229005   0.709   2.056   5.662  0.1366  0.0330 -0.2413
 2505TIP3    H129006   0.745   2.000   5.594 -2.1922 -1.0207 -0.6925
 2505TIP3    H229007   0.671   2.131   5.615 -0.7345 -0.2793 -0.0546
 2506TIP3   OH229008   1.206   2.385   8.017 -0.2505  0.1203  0.6325
 2506TIP3    H129009   1.292   2.387   7.976 -0.4405  3.2258  0.1561
 2506TIP3    H229010   1.184   2.292   8.023  2.7916 -0.7286  0.1311
 2507TIP3   OH229011   3.925   2.033  39.374 -0.4154 -0.3287  0.4644
 2507TIP3    H129012   3.976   2.073  39.444  1.4965 -0.2886 -0.8863
 2507TIP3    H229013   3.886   2.106  39.327  1.7324 -0.0416 -0.9996
 2508TIP3   OH229014   2.167   2.918  46.321 -0.4135  0.4843  0.1624
 2508TIP3    H129015   2.099   2.876  46.374 -0.4317 -0.9514 -0.9435
 2508TIP3    H229016   2.194   2.851  46.258  1.2695  1.3786 -0.1320
 2509TIP3   OH229017   1.650   3.980  30.879  0.5319 -0.1123 -0.6457
 2509TIP3    H129018   1.686   4.024  30.957 -1.5956  0.5266  0.0300
 2509TIP3    H229019   1.575   3.930  30.912 -0.8454  0.7227 -2.3734
 2510TIP3   OH229020   3.040   2.169  15.831 -0.0956  0.3035 -0.6705
 2510TIP3    H129021   3.080   2.083  15.847 -0.9054 -0.0537 -0.5165
 2510TIP3    H229022   2.987   2.157  15.752 -1.9189  0.0443  0.5330
 2511TIP3   OH229023   1.700   3.363  39.627 -0.2665 -0.3374  0.0920
 2511TIP3    H129024   1.676   3.366  39.535  0.6046  1.7446 -0.1079
 2511TIP3    H229025   1.624   3.398  39.673 -0.3149 -0.4306  0.0851
 2512TIP3   OH229026   2.341   2.848  36.922  0.3942 -0.3844  0.0802
 2512TIP3    H129027   2.364   2.940  36.910 -0.3398 -0.1307  0.5465
 2512TIP3    H229028   2.411   2.813  36.977  0.3287  0.0610  0.4485
 2513TIP3   OH229029   2.559   1.488  38.894 -0.3478 -0.0287 -0.2599
 2513TIP3    H129030   2.579   1.475  38.802 -0.5913  0.7214 -0.4234
 2513TIP3    H229031   2.514   1.407  38.921  1.8006 -1.2831 -0.1702
 2514TIP3   OH229032   2.100   3.348  34.254 -0.2097  0.6996 -0.0927
 2514TIP3    H129033   2.176   3.406  34.258 -1.5767  2.7136 -1.3469
 2514TIP3    H229034   2.081   3.341  34.160  0.1167 -2.1321 -0.0095
 2515TIP3   OH229035   3.858   3.014  35.972 -0.3064  0.1422  0.3709
 2515TIP3    H129036   3.842   3.091  35.916  1.2613  0.2276  0.0060
 2515TIP3    H229037   3.952   3.013  35.986 -0.2946 -1.7113  0.4023
 2516TIP3   OH229038   0.781   1.093  12.631  0.0642  0.2609 -0.1168
 2516TIP3    H129039   0.830   1.042  12.694  1.1646  2.2091  0.6974
 2516TIP3    H229040   0.710   1.133  12.682 -0.9319 -0.5954 -0.7863
 2517TIP3   OH229041   0.109   3.955  26.480  0.3901  0.3714 -0.6504
 2517TIP3    H129042   0.126   3.982  26.570  0.5527  1.5978 -1.0343
 2517TIP3    H229043   0.181   3.895  26.459 -0.0904 -0.5759  0.2797
 2518TIP3   OH229044   0.667   1.327  34.320  0.4415 -0.3165 -0.1897
 2518TIP3    H129045   0.687   1.399  34.260  0.7544 -1.9650 -2.1458
 2518TIP3    H229046   0.572   1.333  34.333  0.4911  0.5454 -0.1873
 2519TIP3   OH229047   1.519   1.120  47.190 -0.5765 -0.0517  0.1531
 2519TIP3    H129048   1.564   1.204  47.201 -0.5836 -0.1239  0.7658
 2519TIP3    H229049   1.461   1.134  47.115  0.9283 -0.1621 -1.0821
 2520TIP3   OH229050   2.885   2.024  43.009  0.1014 -0.2665  0.0344
 2520TIP3    H129051   2.979   2.008  43.008  0.3349  0.8897 -1.9021
 2520TIP3    H229052   2.853   1.986  42.927 -0.7320  1.2761 -0.3983
 2521TIP3   OH229053   1.144   1.627   9.672 -0.2738 -0.5303 -0.9125
 2521TIP3    H129054   1.049   1.612   9.666 -1.0321  2.5590  1.2428
 2521TIP3    H229055   1.163   1.628   9.765  2.0673 -1.7165 -1.3106
 2522TIP3   OH229056   4.100   0.856  43.539 -0.2143 -0.5985  0.2999
 2522TIP3    H129057   4.101   0.951  43.535  1.3976 -0.5633  0.9036
 2522TIP3    H229058   4.009   0.832  43.521 -0.9490  1.1125  1.5129
 2523TIP3   OH229059   3.588   1.214  46.597 -0.3801  0.1693  0.5805
 2523TIP3    H129060   3.575   1.154  46.670  0.6142 -1.0659 -0.2345
 2523TIP3    H229061   3.604   1.299  46.638 -0.6568 -0.3436  1.7690
 2524TIP3   OH229062   3.677   1.188   4.378 -0.1548 -0.0788 -0.3445
 2524TIP3    H129063   3.697   1.278   4.404 -1.0062  0.4142 -1.3163
 2524TIP3    H229064   3.590   1.172   4.414  0.4941 -0.9705  0.8877
 2525TIP3   OH229065   0.022   2.928  14.558 -0.2607 -0.8254  0.8273
 2525TIP3    H129066  -0.037   3.003  14.562  0.7900  0.0432  0.4074
 2525TIP3    H229067   0.072   2.932  14.639  2.1222  0.9339 -0.6190
 2526TIP3   OH229068   0.944   2.983   0.843 -0.1234  0.0785 -0.1298
 2526TIP3    H129069   0.997   2.917   0.888 -0.0491 -0.4612 -0.9892
 2526TIP3    H229070   0.950   3.061   0.898  1.7421  0.0959 -0.3005
 2527TIP3   OH229071   4.045   1.322  31.103 -0.5527 -0.5907  0.2012
 2527TIP3    H129072   4.088   1.408  31.110 -1.5164  0.0489 -1.2877
 2527TIP3    H229073   4.094   1.277  31.034  0.1227 -1.3797  1.1624
 2528TIP3   OH229074   2.307   3.060  15.370 -0.1162  0.7458  0.5458
 2528TIP3    H129075   2.346   3.136  15.328 -1.6998  1.5454  0.4643
 2528TIP3    H229076   2.241   3.096  15.430 -0.1646 -0.5099  1.2967
 2529TIP3   OH229077   0.675   0.138  35.433  0.2748 -0.1189 -0.0174
 2529TIP3    H129078   0.588   0.122  35.469 -0.5627 -1.6847 -2.4962
 2529TIP3    H229079   0.668   0.223  35.391  0.1291  0.0120  0.2647
 2530TIP3   OH229080   2.264   1.489  12.998 -0.0723 -0.3098 -0.6706
 2530TIP3    H129081   2.242   1.484  13.091  0.7260 -0.4464 -0.4778
 2530TIP3    H229082   2.324   1.415  12.984  1.2877  0.7860 -0.8560
 2531TIP3   OH229083   2.030   3.377  37.296  0.7736  0.5643 -0.1754
 2531TIP3    H129084   2.038   3.363  37.390  0.2939  0.8000 -0.0959
 2531TIP3    H229085   2.112   3.343  37.259  1.0484  0.6574  0.3447
 2532TIP3   OH229086   2.958   2.167  19.037  0.0049  0.5160 -0.2187
 2532TIP3    H129087   3.024   2.098  19.025 -0.9986 -0.3006 -1.4482
 2532TIP3    H229088   2.967   2.222  18.959 -0.5742  0.5464 -0.2705
 2533TIP3   OH229089   3.185   3.600  46.369  0.2483 -0.0499 -0.0280
 2533TIP3    H129090   3.249   3.606  46.299  1.2497 -0.8616  0.7892
 2533TIP3    H229091   3.140   3.516  46.354 -0.8576  0.6561 -0.7765
 2534TIP3   OH229092   3.076   3.018   8.953 -0.1566  0.5098 -0.2930
 2534TIP3    H129093   3.002   3.079   8.955 -0.0375  0.7323 -1.6781
 2534TIP3    H229094   3.038   2.936   8.921 -0.0567  0.2412  0.2729
 2535TIP3   OH229095   0.472   0.735  43.260 -0.1460  0.6694 -0.8726
 2535TIP3    H129096   0.550   0.681  43.246 -0.8825 -0.8385  0.5348
 2535TIP3    H229097   0.499   0.800  43.325 -0.1514 -0.1253 -0.0538
 2536TIP3   OH229098   1.820   2.051  40.143 -0.5239 -0.0218  0.1870
 2536TIP3    H129099   1.880   2.022  40.212  0.4519  2.3834  0.4544
 2536TIP3    H229100   1.739   2.071  40.189 -0.5803 -0.4891  0.2899
 2537TIP3   OH229101   3.152   1.977  12.332 -0.4478  0.5031 -0.1098
 2537TIP3    H129102   3.242   1.950  12.315 -0.5537  0.3973 -0.5314
 2537TIP3    H229103   3.140   1.967  12.426 -0.4534 -0.8305 -0.2385
 2538TIP3   OH229104   3.726   3.841  26.355 -0.3317  0.3819  0.5527
 2538TIP3    H129105   3.630   3.847  26.354 -0.2681  1.7773  0.1018
 2538TIP3    H229106   3.745   3.756  26.315 -1.3993 -0.6188  2.0562
 2539TIP3   OH229107   3.162   2.466   2.448  0.3304 -0.5275 -0.0376
 2539TIP3    H129108   3.184   2.559   2.448  1.1164 -0.7085 -0.1150
 2539TIP3    H229109   3.238   2.423   2.409 -0.3188 -1.1411 -0.6429
 2540TIP3   OH229110   1.914   2.293  40.064 -0.4369 -0.1218  0.6302
 2540TIP3    H129111   1.858   2.340  40.001 -0.0077 -1.3077 -0.6944
 2540TIP3    H229112   1.865   2.213  40.084  0.7377 -1.1827 -0.5636
 2541TIP3   OH229113   3.362   1.269  42.502  0.2248  0.0008 -0.3687
 2541TIP3    H129114   3.354   1.338  42.568 -0.6557 -0.4152 -0.0228
 2541TIP3    H229115   3.410   1.199  42.547 -1.6466 -0.8824  0.3674
 2542TIP3   OH229116   0.352   4.006  37.950  0.0174 -0.7307  0.1912
 2542TIP3    H129117   0.315   4.051  37.874 -2.6737 -0.0730  1.7530
 2542TIP3    H229118   0.403   4.074  37.995 -1.8632  0.1373  1.1322
 2543TIP3   OH229119   2.192   3.849  12.893 -0.0515 -0.3215 -0.0109
 2543TIP3    H129120   2.239   3.775  12.853  2.2356  0.3549  1.2167
 2543TIP3    H229121   2.164   3.816  12.978 -4.2811 -1.5281 -1.6268
 2544TIP3   OH229122   1.169   1.542   5.342  0.0871 -1.0314  0.4563
 2544TIP3    H129123   1.118   1.573   5.417  1.3270 -0.9066  1.2713
 2544TIP3    H229124   1.257   1.530   5.376  0.9356  0.0319 -1.2183
 2545TIP3   OH229125   1.340   1.395  33.859 -0.2669  0.7178  0.0309
 2545TIP3    H129126   1.341   1.448  33.778 -1.9847 -0.5704 -0.8832
 2545TIP3    H229127   1.417   1.339  33.852  1.1904  2.5350  0.6836
 2546TIP3   OH229128   0.032   2.132  36.665  0.5560 -0.0892 -0.4700
 2546TIP3    H129129   0.082   2.165  36.590  2.3468  0.2750  0.8120
 2546TIP3    H229130   0.073   2.173  36.741  1.4095 -3.3628  1.0467
 2547TIP3   OH229131   3.246   4.085  31.380  0.4792 -0.6360 -0.3581
 2547TIP3    H129132   3.239   4.014  31.316  1.9236  0.0861 -1.3955
 2547TIP3    H229133   3.244   4.041  31.465 -1.4847 -1.6228 -0.8636
 2548TIP3   OH229134   4.037   3.877  11.769 -0.2426  0.6947  0.2972
 2548TIP3    H129135   4.041   3.785  11.795  0.4483  0.4046 -0.7517
 2548TIP3    H229136   4.127   3.899  11.746 -0.0470  2.1743  2.2449
 2549TIP3   OH229137   0.934   3.409   8.067  0.1484  0.4447 -0.0583
 2549TIP3    H129138   0.981   3.401   8.150 -1.2026  1.2201  0.8268
 2549TIP3    H229139   0.842   3.415   8.093 -0.3062  0.6141 -1.6340
 2550TIP3   OH229140   2.538   0.651  41.759 -0.4792  0.3257 -0.3027
 2550TIP3    H129141   2.603   0.721  41.767 -1.0662  0.7709  0.6988
 2550TIP3    H229142   2.556   0.612  41.673  2.0568 -0.5226  0.5135
 2551TIP3   OH229143   1.208   3.893   9.802 -0.3045  0.7019 -0.1085
 2551TIP3    H129144   1.265   3.964   9.832 -0.2105  0.9081 -0.7591
 2551TIP3    H229145   1.233   3.879   9.711 -2.3475  1.8778 -0.9161
 2552TIP3   OH229146   3.429   2.081   8.916 -0.1805 -0.5012  0.0753
 2552TIP3    H129147   3.473   2.119   8.992  2.1947 -0.3114 -1.3127
 2552TIP3    H229148   3.381   2.155   8.878  2.6254  0.7117 -1.3448
 2553TIP3   OH229149   1.047   1.615  38.802 -0.5491 -0.2324 -0.0906
 2553TIP3    H129150   1.096   1.554  38.858 -0.0944 -0.5630 -0.8272
 2553TIP3    H229151   0.979   1.561  38.762 -0.2595 -0.2301 -0.6037
 2554TIP3   OH229152   1.622   3.406  30.518  0.1652 -0.4878  0.3436
 2554TIP3    H129153   1.632   3.392  30.424  0.2621 -0.3274  0.3274
 2554TIP3    H229154   1.550   3.349  30.544  0.4212 -0.8563  0.2487
 2555TIP3   OH229155   1.245   1.387  40.226 -0.2161  0.0604  0.3464
 2555TIP3    H129156   1.258   1.454  40.159 -1.7533  0.1011  0.0688
 2555TIP3    H229157   1.179   1.423  40.285 -0.0079 -0.6159  1.0117
 2556TIP3   OH229158   1.596   3.929  24.733 -0.3394  0.0241 -0.0428
 2556TIP3    H129159   1.600   3.850  24.788  0.5481 -1.4597 -2.0767
 2556TIP3    H229160   1.684   3.966  24.738 -0.7991  1.0514  1.0418
 2557TIP3   OH229161   1.389   2.115  46.649 -0.3976  0.5680  0.3467
 2557TIP3    H129162   1.299   2.108  46.680  0.6496 -0.0826  3.7236
 2557TIP3    H229163   1.441   2.076  46.719  2.3877 -1.4873 -2.5864
 2558TIP3   OH229164   1.382   2.137  47.309  0.0247  0.1412 -0.0223
 2558TIP3    H129165   1.325   2.060  47.316 -2.4810  1.6583 -2.1607
 2558TIP3    H229166   1.388   2.169  47.399 -0.3875 -1.4820  0.6314
 2559TIP3   OH229167   0.119   2.444   6.156 -0.3909 -0.0382  0.2471
 2559TIP3    H129168   0.065   2.365   6.149 -0.7035  0.2839 -1.5085
 2559TIP3    H229169   0.208   2.414   6.139 -0.5594  0.0242 -0.8070
 2560TIP3   OH229170   2.404   1.514  37.014  0.3502  0.3539 -0.2883
 2560TIP3    H129171   2.446   1.473  37.089  1.0378  1.6121  0.0407
 2560TIP3    H229172   2.398   1.443  36.949 -1.3994 -1.1092  1.3326
 2561TIP3   OH229173   4.046   1.864  19.956 -0.4526  0.6475 -0.1167
 2561TIP3    H129174   4.119   1.915  19.921 -0.5210  0.2162 -0.9098
 2561TIP3    H229175   4.061   1.776  19.923 -0.6555  0.2824  0.7644
 2562TIP3   OH229176   1.397   2.259   0.840 -0.1557  0.8058  0.2421
 2562TIP3    H129177   1.470   2.270   0.901 -1.0004 -1.1405  1.7202
 2562TIP3    H229178   1.327   2.313   0.877 -1.2060 -1.6224  2.0714
 2563TIP3   OH229179   2.813   3.453  47.250  0.0606 -0.1026  0.0902
 2563TIP3    H129180   2.809   3.402  47.332 -1.4958 -0.6056 -0.2631
 2563TIP3    H229181   2.767   3.398  47.187 -0.4643  1.1657 -0.6402
 2564TIP3   OH229182   1.253   3.942   0.605 -0.6873  0.2886 -0.2802
 2564TIP3    H129183   1.331   3.896   0.573 -0.5007 -1.4397  2.2977
 2564TIP3    H229184   1.277   4.034   0.606  0.5310  0.0050 -1.5691
 2565TIP3   OH229185   2.471   3.465   9.745  0.2510  0.1014 -0.7580
 2565TIP3    H129186   2.413   3.536   9.720  0.3438  0.5468  0.2480
 2565TIP3    H229187   2.440   3.390   9.695 -0.9801  0.4164 -0.5055
 2566TIP3   OH229188   1.908   2.162  39.802 -0.2103  0.3642 -0.6771
 2566TIP3    H129189   1.993   2.136  39.766  0.0480  3.9001 -3.0782
 2566TIP3    H229190   1.924   2.175  39.895  1.2784 -1.0477 -0.6813
 2567TIP3   OH229191   0.764   0.596  41.703 -0.4481 -0.9353  0.0121
 2567TIP3    H129192   0.712   0.658  41.652 -0.7593 -3.4871 -3.0382
 2567TIP3    H229193   0.838   0.648  41.736 -1.5047  1.3443 -1.0215
 2568TIP3   OH229194   2.386   2.457  20.202  0.3919  0.0194  0.8934
 2568TIP3    H129195   2.392   2.481  20.294 -0.2411 -0.3822  1.0451
 2568TIP3    H229196   2.375   2.541  20.156  1.5436  0.3021  1.0863
 2569TIP3   OH229197   1.636   3.640  44.221  0.9439 -0.3955  0.3466
 2569TIP3    H129198   1.705   3.598  44.170  0.4539  1.8357 -2.3609
 2569TIP3    H229199   1.649   3.734  44.207 -1.6756  0.1580  1.0613
 2570TIP3   OH229200   3.095   1.388  32.416 -0.5098  0.1298  0.5022
 2570TIP3    H129201   3.131   1.375  32.504 -0.0282  0.3688  0.3473
 2570TIP3    H229202   3.028   1.455  32.427 -1.0747 -0.4814  0.8366
 2571TIP3   OH229203   2.722   2.777  46.870 -0.1237 -0.0023 -0.0752
 2571TIP3    H129204   2.638   2.738  46.894 -0.2986 -0.7547 -1.7305
 2571TIP3    H229205   2.766   2.708  46.819  0.5127  1.1673 -1.1715
 2572TIP3   OH229206   2.417   0.430  31.923 -0.1977 -0.0360 -0.8634
 2572TIP3    H129207   2.421   0.344  31.966  0.7930 -0.0295 -0.9282
 2572TIP3    H229208   2.401   0.491  31.995 -1.2458 -0.2918 -0.8582
 2573TIP3   OH229209   1.654   2.403   8.734 -0.4146 -0.1928 -0.2432
 2573TIP3    H129210   1.705   2.411   8.653  1.7824  1.9616  1.2368
 2573TIP3    H229211   1.683   2.320   8.772  1.7707  0.7946  0.3622
 2574TIP3   OH229212   2.326   2.786  21.010 -0.4567  0.2482 -0.1947
 2574TIP3    H129213   2.266   2.792  20.936  0.3766  0.6776 -0.8432
 2574TIP3    H229214   2.390   2.720  20.984  0.5847  1.3077 -0.4209
 2575TIP3   OH229215   1.881   3.327  33.686 -0.3933 -0.0026 -0.0884
 2575TIP3    H129216   1.932   3.408  33.679  0.4521 -0.5143 -0.0773
 2575TIP3    H229217   1.818   3.333  33.614  1.0014 -0.2284 -1.4004
 2576TIP3   OH229218   3.906   0.929  40.197 -0.1086 -0.4981  0.6231
 2576TIP3    H129219   3.842   0.926  40.268  1.2831 -0.5472  1.9411
 2576TIP3    H229220   3.960   0.851  40.211 -0.0960 -0.7729 -0.8119
 2577TIP3   OH229221   3.709   3.876  46.751 -0.0678 -0.1284  0.3262
 2577TIP3    H129222   3.615   3.893  46.743  0.2415  1.6751  0.0062
 2577TIP3    H229223   3.724   3.799  46.696 -1.3335 -0.3594  0.2720
 2578TIP3   OH229224   3.407   2.375   1.604 -0.6638  0.1493  0.0086
 2578TIP3    H129225   3.485   2.382   1.659 -1.4107 -0.5376  1.2102
 2578TIP3    H229226   3.407   2.455   1.552  0.1917  0.7311  0.8524
 2579TIP3   OH229227   1.056   0.719  33.590 -0.2751 -0.1266  0.5702
 2579TIP3    H129228   1.112   0.650  33.555 -1.4759 -0.3083 -1.1466
 2579TIP3    H229229   0.986   0.728  33.525 -1.1830  1.4033  1.6867
 2580TIP3   OH229230   0.128   3.886  32.042 -0.2746 -0.0095  0.5600
 2580TIP3    H129231   0.213   3.865  32.003 -0.3464 -0.3485  0.5883
 2580TIP3    H229232   0.102   3.806  32.087 -0.6252  0.0860  0.5252
 2581TIP3   OH229233   2.593   3.056  15.379 -0.2994  0.0820  0.1966
 2581TIP3    H129234   2.514   3.062  15.432 -1.7169  2.4260 -1.9487
 2581TIP3    H229235   2.569   3.001  15.305 -0.0296  0.9763 -0.5803
 2582TIP3   OH229236   3.957   3.711  42.447 -0.2707  0.7843 -0.6676
 2582TIP3    H129237   3.935   3.722  42.540 -2.3053  1.0712 -1.1465
 2582TIP3    H229238   3.886   3.658  42.411  1.8390 -1.6134 -1.5592
 2583TIP3   OH229239   0.299   2.727  12.563 -0.4140 -0.8254 -0.1608
 2583TIP3    H129240   0.254   2.788  12.621  0.6917 -0.7835  0.6934
 2583TIP3    H229241   0.302   2.771  12.478 -0.1695  0.0514  0.2964
 2584TIP3   OH229242   2.133   3.371   2.702 -0.1675 -0.0566 -0.2418
 2584TIP3    H129243   2.060   3.391   2.761 -0.4089  1.0694 -0.8956
 2584TIP3    H229244   2.194   3.443   2.715  0.3643 -0.4709 -0.4376
 2585TIP3   OH229245   3.668   0.325   8.733 -0.2730 -0.2409 -0.0790
 2585TIP3    H129246   3.667   0.372   8.650 -1.2839  0.1047  0.1195
 2585TIP3    H229247   3.582   0.342   8.772  0.7522  0.9370  1.7854
 2586TIP3   OH229248   0.039   1.694  15.076 -0.3879  0.3190  0.4049
 2586TIP3    H129249  -0.004   1.629  15.020  0.5259  0.1377 -0.0982
 2586TIP3    H229250  -0.030   1.722  15.137 -0.5745 -1.8336  1.2765
 2587TIP3   OH229251   1.548   1.707  35.807 -0.2235 -0.6271  0.0557
 2587TIP3    H129252   1.584   1.626  35.770  0.0670 -0.2263 -0.5712
 2587TIP3    H229253   1.561   1.772  35.737 -1.3701 -0.2734  0.1580
 2588TIP3   OH229254   0.757   2.098  45.352  0.3139 -0.0373  0.0821
 2588TIP3    H129255   0.688   2.034  45.371  0.2342 -0.0604 -0.2799
 2588TIP3    H229256   0.719   2.183  45.373  0.1264 -0.0384 -0.2601
 2589TIP3   OH229257   0.189   2.628   4.042  0.2566 -0.6136  0.1358
 2589TIP3    H129258   0.100   2.615   4.007 -0.0380 -0.1259  0.6904
 2589TIP3    H229259   0.231   2.543   4.030 -0.6401 -1.1849  0.8536
 2590TIP3   OH229260   1.601   3.357   4.826 -0.4481  0.2683 -0.4328
 2590TIP3    H129261   1.644   3.364   4.741 -1.0915  3.2712 -0.6032
 2590TIP3    H229262   1.509   3.339   4.805 -0.5554  0.7275 -0.3524
 2591TIP3   OH229263   1.048   0.839  14.676  0.5178 -0.0592 -0.2181
 2591TIP3    H129264   1.101   0.760  14.691  1.4174  0.7802  1.2192
 2591TIP3    H229265   0.963   0.818  14.715  0.4424 -0.6463 -0.6767
 2592TIP3   OH229266   0.741   0.406  38.841 -1.2056 -0.1884  0.1937
 2592TIP3    H129267   0.759   0.415  38.934 -1.4862  0.9363  0.1571
 2592TIP3    H229268   0.660   0.355  38.836  0.3546 -2.9064  0.4383
 2593TIP3   OH229269   2.549   2.891  36.005  0.2720  0.3499  0.0718
 2593TIP3    H129270   2.596   2.873  36.086 -0.9826  1.5141  1.1142
 2593TIP3    H229271   2.459   2.909  36.033  0.2442  2.8782 -1.3160
 2594TIP3   OH229272   2.557   1.447  31.497 -0.5251 -0.2814 -0.3718
 2594TIP3    H129273   2.605   1.368  31.521  4.3902  2.3088 -0.5094
 2594TIP3    H229274   2.588   1.468  31.409  1.0892  3.4535  0.8993
 2595TIP3   OH229275   0.521   0.789  11.679  0.0895 -0.4382  0.0725
 2595TIP3    H129276   0.512   0.883  11.692  1.4928  0.4189 -3.9374
 2595TIP3    H229277   0.614   0.772  11.693 -0.4735 -1.8305  3.0455
 2596TIP3   OH229278   2.599   0.087   7.015  0.1336  0.1109  0.6911
 2596TIP3    H129279   2.591   0.014   7.076 -0.2926 -0.7434 -0.3558
 2596TIP3    H229280   2.648   0.051   6.941  0.6982  1.1470  0.5514
 2597TIP3   OH229281   0.720   3.880  33.741  0.0987  0.3489  0.0852
 2597TIP3    H129282   0.757   3.831  33.667 -3.1217 -1.6175 -0.4359
 2597TIP3    H229283   0.628   3.854  33.743 -0.4756  2.0680  3.4621
 2598TIP3   OH229284   0.225   1.877  39.524 -0.6317 -0.2210 -0.7024
 2598TIP3    H129285   0.181   1.831  39.596  0.0621 -2.0639 -1.4193
 2598TIP3    H229286   0.191   1.967  39.530  0.2647  0.0565  2.6631
 2599TIP3   OH229287   0.937   0.906  15.459 -0.1478  0.5145 -0.2709
 2599TIP3    H129288   0.885   0.841  15.506 -0.4410 -0.2116 -1.5489
 2599TIP3    H229289   0.880   0.982  15.452 -0.3906  0.3457 -0.1506
 2600TIP3   OH229290   0.309   3.486  30.893 -0.2810 -0.3509  0.2589
 2600TIP3    H129291   0.403   3.477  30.909  0.4219  1.9308 -1.9192
 2600TIP3    H229292   0.283   3.402  30.853  1.0304 -0.6770  0.0482
 2601TIP3   OH229293   3.020   3.610  38.981 -0.0626 -0.1719  0.1936
 2601TIP3    H129294   2.962   3.665  39.033 -1.3585 -0.9630 -0.3598
 2601TIP3    H229295   3.020   3.650  38.894  2.3917  1.3664  0.7852
 2602TIP3   OH229296   2.915   1.369   6.322 -0.3691  0.1429 -0.0246
 2602TIP3    H129297   2.842   1.341   6.267  0.6337 -1.6291 -0.5307
 2602TIP3    H229298   2.886   1.351   6.412 -0.2691 -1.3721 -0.2709
 2603TIP3   OH229299   0.601   1.693  43.289 -0.2350 -0.3195 -0.2480
 2603TIP3    H129300   0.640   1.607  43.273 -1.0561 -0.6351 -0.6007
 2603TIP3    H229301   0.513   1.673  43.322 -1.2094  0.3788 -2.2758
 2604TIP3   OH229302   0.993   3.952  26.630  0.7159 -0.4628  0.6839
 2604TIP3    H129303   1.012   4.045  26.624  0.5827 -0.3969  1.2615
 2604TIP3    H229304   1.000   3.932  26.724  0.1863 -0.9161  0.6281
 2605TIP3   OH229305   1.414   2.718  46.138  0.5011 -0.5214  0.4534
 2605TIP3    H129306   1.393   2.754  46.224 -0.1613  0.0875  0.0470
 2605TIP3    H229307   1.382   2.628  46.141 -2.3690  0.3849 -0.1618
 2606TIP3   OH229308   2.554   1.150  36.245 -0.3037  0.2627  0.3813
 2606TIP3    H129309   2.622   1.125  36.182  0.0503  0.1705  0.7996
 2606TIP3    H229310   2.477   1.165  36.191 -0.8083 -2.5505  0.1466
 2607TIP3   OH229311   0.165   3.446   8.594  0.3578  0.5274  0.4067
 2607TIP3    H129312   0.228   3.386   8.633 -1.3401 -0.7160  1.3890
 2607TIP3    H229313   0.143   3.407   8.509  1.7885  1.6334 -0.5234
 2608TIP3   OH229314   2.175   1.916  36.145 -0.0769  0.3184  0.6587
 2608TIP3    H129315   2.144   1.995  36.101 -1.1394  0.1662  1.1045
 2608TIP3    H229316   2.149   1.927  36.236  1.5562  0.3479  1.1405
 2609TIP3   OH229317   1.879   0.074  25.710 -0.0622  0.6697  0.3703
 2609TIP3    H129318   1.934   0.130  25.656  1.9845 -0.3653  1.2871
 2609TIP3    H229319   1.936   0.045  25.781 -1.9552 -0.0235  1.6945
 2610TIP3   OH229320   2.211   1.724  16.971  0.6886 -0.5311 -0.2143
 2610TIP3    H129321   2.274   1.669  16.926 -0.9873 -1.1009 -2.0040
 2610TIP3    H229322   2.225   1.812  16.934  0.5193 -0.6299 -0.5137
 2611TIP3   OH229323   3.668   3.900  14.781  0.5219  0.2151  0.0385
 2611TIP3    H129324   3.643   3.990  14.799  0.3281  0.0798  0.4562
 2611TIP3    H229325   3.683   3.897  14.686 -2.3865 -0.0230 -0.4954
 2612TIP3   OH229326   1.483   1.655  32.082 -0.3238 -0.4792 -0.1294
 2612TIP3    H129327   1.422   1.698  32.022  2.0486  3.3434 -0.1727
 2612TIP3    H229328   1.432   1.642  32.162 -1.5759  1.5355 -0.5172
 2613TIP3   OH229329   0.420   1.312   0.529  1.1743  0.1621 -0.6546
 2613TIP3    H129330   0.439   1.256   0.605  1.1442  0.6159 -0.3086
 2613TIP3    H229331   0.386   1.252   0.463 -1.0510  0.0429  0.4862
 2614TIP3   OH229332   0.235   3.034  36.884 -0.5513 -0.1733  0.1009
 2614TIP3    H129333   0.286   2.962  36.846 -0.6415  0.1936 -0.7503
 2614TIP3    H229334   0.173   2.991  36.943  1.6354 -0.5428  2.2551
 2615TIP3   OH229335   3.087   0.416  36.102 -0.4750 -0.6047 -0.1449
 2615TIP3    H129336   3.145   0.349  36.139 -1.2312 -0.6317  1.0635
 2615TIP3    H229337   3.102   0.412  36.008  2.2488  0.0905  0.1660
 2616TIP3   OH229338   1.195   2.418  42.546  0.4773 -0.0191 -0.4190
 2616TIP3    H129339   1.173   2.448  42.634  0.7640 -0.1805 -0.2909
 2616TIP3    H229340   1.199   2.322  42.554  2.6276  0.0574 -0.0919
 2617TIP3   OH229341   3.939   2.753   0.756 -0.4191  0.2083 -0.0686
 2617TIP3    H129342   3.966   2.817   0.690  0.7337 -0.0031  0.1749
 2617TIP3    H229343   3.900   2.682   0.706  1.5485 -0.5145 -0.6770
 2618TIP3   OH229344   3.492   2.312  32.239 -0.5850  0.2405 -0.6221
 2618TIP3    H129345   3.586   2.329  32.225 -0.7344 -0.5544 -3.1205
 2618TIP3    H229346   3.487   2.217  32.253 -1.1231 -0.0452 -2.4244
 2619TIP3   OH229347   1.747   1.260  12.528 -0.0000  0.1478 -0.4285
 2619TIP3    H129348   1.717   1.345  12.494 -0.2969  0.9566  1.7197
 2619TIP3    H229349   1.675   1.230  12.584  0.7800 -0.7435  0.1212
 2620TIP3   OH229350   0.770   2.397  42.572 -0.5880  0.1575 -0.4264
 2620TIP3    H129351   0.814   2.352  42.499  2.0698 -0.2556  1.2862
 2620TIP3    H229352   0.730   2.327  42.623  1.9756 -0.2190  1.2319
 2621TIP3   OH229353   1.018   3.269   4.414 -0.1817  0.0739 -0.6514
 2621TIP3    H129354   0.990   3.178   4.408 -1.9451  0.5001  0.4680
 2621TIP3    H229355   1.095   3.266   4.472 -1.9242 -0.4674  1.7959
 2622TIP3   OH229356   0.618   1.130  20.134 -0.0458 -0.6076  0.1668
 2622TIP3    H129357   0.684   1.088  20.189 -0.9859 -0.8306  1.1815
 2622TIP3    H229358   0.560   1.174  20.197  0.5914  1.8039 -0.8196
 2623TIP3   OH229359   0.193   2.223   2.569 -0.2900 -0.3874  0.2325
 2623TIP3    H129360   0.209   2.222   2.664 -0.1531  0.7153  0.2381
 2623TIP3    H229361   0.280   2.219   2.530 -0.2274  0.8950  0.1948
 2624TIP3   OH229362   3.318   4.072  30.190  0.0955  0.4049 -0.2438
 2624TIP3    H129363   3.345   4.131  30.259  1.1333  0.6311 -0.8248
 2624TIP3    H229364   3.366   4.101  30.113 -0.3083 -0.4334 -0.8332
 2625TIP3   OH229365   2.912   3.615  44.672 -0.5365 -0.8039  0.1155
 2625TIP3    H129366   2.847   3.575  44.614 -1.3136 -0.6115  0.8432
 2625TIP3    H229367   2.861   3.655  44.742  0.2065  1.4567 -0.5493
 2626TIP3   OH229368   1.696   0.332  35.597  0.6104 -0.0600  0.0675
 2626TIP3    H129369   1.670   0.273  35.526  0.2244 -0.5527  0.5999
 2626TIP3    H229370   1.686   0.279  35.676 -0.0237  0.8163  0.5872
 2627TIP3   OH229371   1.420   0.344  40.783  0.2933 -0.2780 -0.1525
 2627TIP3    H129372   1.390   0.418  40.835  0.2765 -0.1165 -0.3937
 2627TIP3    H229373   1.340   0.297  40.758  0.3162 -0.4862  0.1594
 2628TIP3   OH229374   3.172   4.030   7.604 -0.4054 -0.0652 -0.2593
 2628TIP3    H129375   3.119   4.051   7.527 -0.2011 -2.6302 -1.1771
 2628TIP3    H229376   3.246   3.980   7.569  0.7233  0.3506  1.4080
 2629TIP3   OH229377   2.373   1.055  46.994  0.6012  0.5746 -0.4221
 2629TIP3    H129378   2.336   1.018  46.914 -0.8389  0.3549  0.3169
 2629TIP3    H229379   2.400   0.979  47.046 -0.8122  0.5961  0.3738
 2630TIP3   OH229380   4.094   0.206  27.692 -0.4403 -0.4956 -0.1229
 2630TIP3    H129381   4.102   0.205  27.597 -0.4918  1.2158 -0.1745
 2630TIP3    H229382   4.005   0.235  27.709 -0.6095 -1.3179  0.4563
 2631TIP3   OH229383   1.179   3.956   2.067 -0.1688  0.4936  0.1657
 2631TIP3    H129384   1.256   3.947   2.012  0.0727 -1.3566  0.7406
 2631TIP3    H229385   1.200   4.027   2.127  1.2126 -0.1629  0.4853
 2632TIP3   OH229386   0.997   0.967  32.045 -0.7008 -0.7162 -0.1420
 2632TIP3    H129387   0.918   0.983  32.097 -1.2117  1.3974 -1.4393
 2632TIP3    H229388   1.068   1.003  32.098 -0.8412 -1.0524  0.2805
 2633TIP3   OH229389   1.253   2.368  15.110  0.7291 -0.4894 -0.2911
 2633TIP3    H129390   1.212   2.434  15.165  1.7843  0.1842 -0.2913
 2633TIP3    H229391   1.180   2.317  15.075 -0.0709  0.3713  0.0947
 2634TIP3   OH229392   0.129   2.535   6.801  0.3058 -0.2311 -0.4072
 2634TIP3    H129393   0.075   2.582   6.736 -2.9026 -3.0317 -0.0492
 2634TIP3    H229394   0.167   2.463   6.752  0.1820 -0.7479  0.2507
 2635TIP3   OH229395   0.764   3.180  11.820  0.4274  0.0617  0.3335
 2635TIP3    H129396   0.723   3.132  11.892  0.3097  1.8283  1.5112
 2635TIP3    H229397   0.693   3.191  11.756  0.8808 -2.7262 -0.7894
 2636TIP3   OH229398   2.816   3.453  12.886  0.8357  0.1170  0.3095
 2636TIP3    H129399   2.887   3.502  12.844  1.4380 -0.0936  1.0539
 2636TIP3    H229400   2.802   3.377  12.830 -0.2385  1.2046 -0.9647
 2637TIP3   OH229401   0.268   1.495   5.433  0.0169  0.0734 -0.5726
 2637TIP3    H129402   0.304   1.437   5.366  1.5254  0.5726 -0.2161
 2637TIP3    H229403   0.338   1.556   5.453  0.2374 -1.0211  2.6046
 2638TIP3   OH229404   0.144   2.850  41.918 -0.2614  0.5327  0.1880
 2638TIP3    H129405   0.153   2.942  41.892  0.7013  1.0429  2.0914
 2638TIP3    H229406   0.224   2.832  41.968 -1.1904 -0.8419  1.2387
 2639TIP3   OH229407   3.061   3.169  29.132  0.3162 -0.2128  0.0797
 2639TIP3    H129408   3.036   3.248  29.179 -1.1788  0.2165 -1.3051
 2639TIP3    H229409   3.011   3.099  29.174  1.9402 -0.5430  1.5624
 2640TIP3   OH229410   2.913   1.772  32.354 -0.6404  0.1629  0.4629
 2640TIP3    H129411   2.854   1.715  32.305 -0.9874 -1.0878  2.2550
 2640TIP3    H229412   2.865   1.855  32.362 -1.2805 -0.1773  0.1606
 2641TIP3   OH229413   3.315   3.697  40.594  0.4310 -0.3633 -0.4634
 2641TIP3    H129414   3.301   3.726  40.684  3.5578  0.5044 -0.1572
 2641TIP3    H229415   3.340   3.605  40.601  2.3482  0.1404 -0.2121
 2642TIP3   OH229416   2.745   3.155  45.509  0.0342 -0.7613 -0.2292
 2642TIP3    H129417   2.777   3.209  45.436 -0.2071 -1.2375 -0.6974
 2642TIP3    H229418   2.663   3.196  45.536 -0.5762 -1.3639 -1.1320
 2643TIP3   OH229419   2.314   1.703  38.697  0.0788  0.3196  0.7775
 2643TIP3    H129420   2.304   1.621  38.745  0.9189  0.0845  0.5713
 2643TIP3    H229421   2.375   1.755  38.750 -0.8553  1.0416  1.1823
 2644TIP3   OH229422   1.257   3.102  36.840  0.8073 -0.0589  0.0951
 2644TIP3    H129423   1.200   3.095  36.763 -1.7972  0.4585  1.8673
 2644TIP3    H229424   1.310   3.180  36.823 -0.0580  0.3232 -0.9727
 2645TIP3   OH229425   2.346   1.195  39.917 -0.1866  0.4393  0.4874
 2645TIP3    H129426   2.318   1.227  39.832  0.8157  1.2509  0.4325
 2645TIP3    H229427   2.374   1.105  39.901 -0.5833  0.3850  0.0896
 2646TIP3   OH229428   1.502   0.076  33.150 -0.0820 -0.5931  0.2376
 2646TIP3    H129429   1.544   0.067  33.235 -1.4486  1.5924  1.2291
 2646TIP3    H229430   1.408   0.064  33.167 -0.5423  1.3024 -0.6195
 2647TIP3   OH229431   2.683   1.677  38.424  0.0067  0.3180  0.0249
 2647TIP3    H129432   2.756   1.620  38.400 -0.1571  0.0299  0.1983
 2647TIP3    H229433   2.721   1.765  38.427  0.1457  0.2876 -0.7435
 2648TIP3   OH229434   0.902   1.438   6.344 -0.2406  0.1572  0.2182
 2648TIP3    H129435   0.953   1.478   6.415 -0.5667 -0.2950  0.7093
 2648TIP3    H229436   0.922   1.492   6.268  1.4709 -0.3610  0.2554
 2649TIP3   OH229437   2.939   2.068  16.398 -0.1751  0.1410 -0.3244
 2649TIP3    H129438   2.883   2.119  16.457  0.2007  1.0826 -0.7759
 2649TIP3    H229439   3.028   2.093  16.421  0.3089 -3.0791  2.0321
 2650TIP3   OH229440   1.784   3.303   3.109  0.0955  0.1800  0.0205
 2650TIP3    H129441   1.848   3.282   3.177 -1.5061 -2.2077  0.9443
 2650TIP3    H229442   1.833   3.296   3.027  1.3071 -0.3313  0.7588
 2651TIP3   OH229443   0.818   1.635  13.902  0.2921  0.0701  0.9239
 2651TIP3    H129444   0.910   1.649  13.881  0.2146  0.9715  1.1678
 2651TIP3    H229445   0.816   1.622  13.997  0.0444  1.2007  1.0834
 2652TIP3   OH229446   0.871   1.225   4.588  0.7101 -0.7370  0.3572
 2652TIP3    H129447   0.885   1.264   4.502 -0.5262  0.4531  0.6703
 2652TIP3    H229448   0.938   1.157   4.594 -0.2384 -2.0740 -2.2682
 2653TIP3   OH229449   2.827   2.856  45.901  0.5877 -0.2171  0.2586
 2653TIP3    H129450   2.849   2.871  45.993 -2.1161  0.4473  0.8802
 2653TIP3    H229451   2.849   2.937  45.857  0.6803 -0.0689  0.5775
 2654TIP3   OH229452   2.631   0.082  36.243  0.4295  0.5419  0.0325
 2654TIP3    H129453   2.572   0.018  36.283 -0.3150  1.6256  0.7094
 2654TIP3    H229454   2.719   0.047  36.261  0.1127  0.7106  2.2309
 2655TIP3   OH229455   1.763   3.046  37.010 -0.4916  0.5172  0.0754
 2655TIP3    H129456   1.839   3.098  36.983 -0.8164  0.0851 -1.7927
 2655TIP3    H229457   1.800   2.963  37.041 -0.1828  0.2236 -1.0301
 2656TIP3   OH229458   1.021   2.633  41.524  0.1557 -0.3757  0.1153
 2656TIP3    H129459   1.030   2.568  41.455 -0.5653 -0.3369 -0.0196
 2656TIP3    H229460   1.110   2.665  41.538  0.4892 -1.2388  0.0467
 2657TIP3   OH229461   1.844   3.061   8.975 -0.6013 -0.1399  0.5709
 2657TIP3    H129462   1.911   3.032   9.037  0.2961  3.4541  1.5199
 2657TIP3    H229463   1.887   3.053   8.889  0.7766  1.2827  1.0909
 2658TIP3   OH229464   3.276   2.964   2.317  0.2239  0.1817 -0.0944
 2658TIP3    H129465   3.237   3.045   2.351  1.0548  0.6307 -0.1796
 2658TIP3    H229466   3.328   2.992   2.242  1.1976 -0.2989  0.3736
 2659TIP3   OH229467   0.625   1.265  41.820  0.8802 -0.3106 -0.4021
 2659TIP3    H129468   0.717   1.262  41.847  0.8979 -0.2266 -0.4515
 2659TIP3    H229469   0.576   1.241  41.899  0.7523  3.2360  0.7984
 2660TIP3   OH229470   3.478   0.516  26.007  0.8628  0.0900  0.5407
 2660TIP3    H129471   3.524   0.514  25.922  0.9477 -4.8760  0.4148
 2660TIP3    H229472   3.386   0.523  25.983  1.0014  1.0396  0.2304
 2661TIP3   OH229473   3.498   0.830  36.861 -0.3073  0.1719 -0.4789
 2661TIP3    H129474   3.438   0.897  36.829  0.7983  1.5504  0.2188
 2661TIP3    H229475   3.452   0.747  36.847 -2.7137  1.2002  0.7658
 2662TIP3   OH229476   2.355   1.942   9.731  0.3416  0.5075 -0.4488
 2662TIP3    H129477   2.291   1.999   9.689 -1.9079 -2.6996 -1.7355
 2662TIP3    H229478   2.427   1.938   9.668 -0.6266 -0.0604 -1.5531
 2663TIP3   OH229479   0.228   1.478  41.675  0.6558  0.4716 -0.6605
 2663TIP3    H129480   0.275   1.478  41.758 -0.6542  1.8634  0.1225
 2663TIP3    H229481   0.291   1.443  41.612  1.5745 -0.9366  0.9448
 2664TIP3   OH229482   3.037   3.598  39.342  0.1897 -0.6809 -0.2074
 2664TIP3    H129483   3.032   3.536  39.270  0.2239 -1.5058  0.4805
 2664TIP3    H229484   2.954   3.645  39.338  0.0593 -0.9376 -0.5944
 2665TIP3   OH229485   2.836   1.288   5.103 -0.3312 -0.6116  0.1084
 2665TIP3    H129486   2.906   1.286   5.169 -0.3188  0.7647  0.1701
 2665TIP3    H229487   2.763   1.332   5.147 -1.1013 -1.6257 -0.1097
 2666TIP3   OH229488   1.637   0.493  11.064 -0.1087 -0.3772  0.4276
 2666TIP3    H129489   1.574   0.422  11.056  0.6930 -0.9561 -0.9528
 2666TIP3    H229490   1.594   0.568  11.023 -0.6448 -0.2439  1.2016
 2667TIP3   OH229491   3.959   0.153  41.282  0.7650  0.6044 -0.5831
 2667TIP3    H129492   4.048   0.187  41.293  0.2649  2.2596 -1.3274
 2667TIP3    H229493   3.927   0.141  41.371  1.6375  0.2250 -0.3097
 2668TIP3   OH229494   3.839   0.802  41.650 -0.2012 -0.1801 -0.4057
 2668TIP3    H129495   3.761   0.758  41.684  0.5638 -0.7474  0.6924
 2668TIP3    H229496   3.907   0.735  41.653  0.4838  0.4902 -0.7432
 2669TIP3   OH229497   0.330   3.107   0.748 -0.7202  0.1212 -0.4486
 2669TIP3    H129498   0.390   3.111   0.674 -2.1777 -1.7001 -1.8300
 2669TIP3    H229499   0.253   3.156   0.719 -0.9960  0.0757  0.1898
 2670TIP3   OH229500   0.584   2.243  13.579 -0.3250  0.1130  0.4779
 2670TIP3    H129501   0.611   2.299  13.507  0.2593 -0.7839 -0.0127
 2670TIP3    H229502   0.546   2.304  13.644 -0.7828  0.9296 -0.5290
 2671TIP3   OH229503   3.174   3.647  32.076  0.3981  0.1469  0.0281
 2671TIP3    H129504   3.187   3.725  32.130  0.4634  0.4619 -0.4342
 2671TIP3    H229505   3.108   3.674  32.012  0.0859 -0.3218  0.1441
 2672TIP3   OH229506   1.360   0.800  37.006  0.8358  0.5926 -0.0694
 2672TIP3    H129507   1.435   0.742  36.994 -0.5848 -1.5537  0.7468
 2672TIP3    H229508   1.397   0.883  37.037  2.8292 -0.5983  0.8947
 2673TIP3   OH229509   0.377   4.035  35.312 -0.0560 -0.0101  0.4019
 2673TIP3    H129510   0.430   4.038  35.233  0.4599  0.7174  0.7654
 2673TIP3    H229511   0.289   4.060  35.283  0.5681  2.3965  0.3857
 2674TIP3   OH229512   1.941   0.890  13.061 -0.3529 -0.2643 -0.2310
 2674TIP3    H129513   1.944   0.953  13.133 -0.1483 -0.6644  0.1176
 2674TIP3    H229514   2.013   0.829  13.080 -2.5998 -2.6340  1.3175
 2675TIP3   OH229515   0.775   1.413   7.540  0.3544 -0.4008  0.2464
 2675TIP3    H129516   0.804   1.398   7.450 -0.3109 -0.7450  0.0803
 2675TIP3    H229517   0.786   1.329   7.584 -0.5631 -0.6020  0.1209
 2676TIP3   OH229518   3.515   3.129  35.267 -0.3163  0.5632  0.4207
 2676TIP3    H129519   3.577   3.200  35.284  0.0606  0.6779 -1.2528
 2676TIP3    H229520   3.431   3.162  35.298 -0.2427  1.9718 -0.7658
 2677TIP3   OH229521   2.023   1.631  35.726  0.3065 -0.1466 -0.2444
 2677TIP3    H129522   2.062   1.690  35.662 -0.4611 -1.9728 -2.5483
 2677TIP3    H229523   1.946   1.678  35.758  0.0070  0.3325 -1.6176
 2678TIP3   OH229524   0.919   3.731   2.596  0.3069 -0.3648  0.4091
 2678TIP3    H129525   0.986   3.692   2.540  0.4717  0.6775 -0.1575
 2678TIP3    H229526   0.907   3.820   2.561 -0.0330  0.1033  1.6510
 2679TIP3   OH229527   0.291   3.572  12.667  0.4419 -0.4802  0.5164
 2679TIP3    H129528   0.306   3.546  12.576  3.0797  2.0152  0.0883
 2679TIP3    H229529   0.217   3.633  12.663  2.2238  1.7361 -0.4878
 2680TIP3   OH229530   2.196   2.345  32.254 -0.2241  0.1718  0.2506
 2680TIP3    H129531   2.148   2.324  32.333 -1.0461  0.9055 -0.0425
 2680TIP3    H229532   2.200   2.263  32.205 -0.7488 -0.0046  0.5077
 2681TIP3   OH229533   1.069   3.981  39.608 -0.0813 -0.2721 -0.2132
 2681TIP3    H129534   1.016   3.913  39.650  0.2408 -0.1690  0.3626
 2681TIP3    H229535   1.122   3.934  39.544  0.8061 -0.7097  0.8041
 2682TIP3   OH229536   2.625   0.761   1.774  0.0291  0.1634  0.0916
 2682TIP3    H129537   2.682   0.812   1.716 -1.6214  0.5319 -1.2671
 2682TIP3    H229538   2.537   0.775   1.741 -0.7803 -1.2903  1.4576
 2683TIP3   OH229539   3.850   2.181  41.190  0.3009 -0.2108 -0.0920
 2683TIP3    H129540   3.906   2.189  41.113 -1.3997  0.3790 -1.3391
 2683TIP3    H229541   3.837   2.087  41.201  0.3914 -0.2889 -0.6452
 2684TIP3   OH229542   0.446   3.180  37.534  0.6196 -0.4311 -0.3501
 2684TIP3    H129543   0.360   3.142  37.518  0.7271 -0.3600 -1.0974
 2684TIP3    H229544   0.431   3.243  37.605 -0.0149 -0.1483 -0.7284
 2685TIP3   OH229545   3.133   0.636  43.771 -0.1360  0.0572 -0.0466
 2685TIP3    H129546   3.086   0.710  43.809  0.4576  0.8480 -0.8013
 2685TIP3    H229547   3.105   0.633  43.680 -1.1646 -1.5073  0.2751
 2686TIP3   OH229548   1.883   2.297  31.025 -0.2969  0.5860 -0.8408
 2686TIP3    H129549   1.861   2.380  30.983 -1.6459  1.4451  1.3861
 2686TIP3    H229550   1.967   2.312  31.067  1.0879 -0.2956 -3.0717
 2687TIP3   OH229551   2.766   1.149   4.334 -0.0515 -0.2017 -0.2634
 2687TIP3    H129552   2.805   1.085   4.274  2.0842 -0.9199  1.7692
 2687TIP3    H229553   2.711   1.096   4.392 -0.4897  0.2079 -0.3009
 2688TIP3   OH229554   2.830   1.478   9.390  0.1265 -0.2629 -0.2361
 2688TIP3    H129555   2.902   1.496   9.451  0.6210 -0.0293 -0.8861
 2688TIP3    H229556   2.761   1.539   9.416  0.1390 -0.5173  0.4188
 2689TIP3   OH229557   3.568   0.652  33.734  0.0878  0.3217  0.4856
 2689TIP3    H129558   3.572   0.556  33.731  0.2229  0.3469 -1.3244
 2689TIP3    H229559   3.600   0.679  33.648 -0.8033  1.9643  0.6431
 2690TIP3   OH229560   1.015   0.102  29.814  0.2122 -0.7548  0.7107
 2690TIP3    H129561   1.095   0.128  29.860 -0.4920  0.1390  1.4690
 2690TIP3    H229562   0.956   0.177  29.824  0.4370  0.0370 -2.7294
 2691TIP3   OH229563   3.856   1.005  12.396 -0.2392  0.5601  0.2704
 2691TIP3    H129564   3.876   1.072  12.331 -1.1841  1.2883  0.7117
 2691TIP3    H229565   3.909   1.029  12.472 -0.5519  0.7930  0.4169
 2692TIP3   OH229566   3.736   2.823  39.926  0.5014 -0.4030  0.5830
 2692TIP3    H129567   3.816   2.874  39.927 -1.4044  2.8749  1.5152
 2692TIP3    H229568   3.686   2.854  40.002 -2.7938 -0.1997 -1.4576
 2693TIP3   OH229569   3.649   3.007  47.561  0.1780 -0.0939  0.3454
 2693TIP3    H129570   3.719   2.942  47.559  1.3264  1.1228 -0.8136
 2693TIP3    H229571   3.592   2.983  47.488  0.9794  0.5611 -0.5234
 2694TIP3   OH229572   0.676   3.599  35.618 -0.0873  0.3723  0.5762
 2694TIP3    H129573   0.610   3.604  35.687 -1.7352  1.0180 -0.9677
 2694TIP3    H229574   0.759   3.584  35.664 -0.8318  2.5964  2.8201
 2695TIP3   OH229575   3.060   1.804   8.550 -0.1769  0.6287 -0.4500
 2695TIP3    H129576   3.084   1.860   8.623  0.5453  2.2899 -1.8940
 2695TIP3    H229577   3.079   1.856   8.472 -3.0855 -0.1556 -1.8265
 2696TIP3   OH229578   3.301   1.347  42.233 -0.6004  0.5459 -0.4277
 2696TIP3    H129579   3.269   1.436  42.223 -0.0060  0.9044  0.7489
 2696TIP3    H229580   3.314   1.336  42.327  2.2288  0.2539 -0.7732
 2697TIP3   OH229581   0.532   0.785  33.846 -0.1280  0.3914 -0.1850
 2697TIP3    H129582   0.469   0.738  33.901  0.6215 -0.2989  0.1166
 2697TIP3    H229583   0.598   0.817  33.908  0.1521  0.5482 -0.5650
 2698TIP3   OH229584   0.337   3.469  26.597  0.0179 -0.6675 -0.0852
 2698TIP3    H129585   0.400   3.492  26.528  0.6022  1.7857  1.1740
 2698TIP3    H229586   0.376   3.502  26.678 -1.5441 -1.7670  1.1822
 2699TIP3   OH229587   3.696   2.236   6.853  0.5114  0.3364 -0.2766
 2699TIP3    H129588   3.661   2.147   6.858 -0.3993  0.7440  1.8441
 2699TIP3    H229589   3.778   2.227   6.804  0.6709 -1.7470  0.2726
 2700TIP3   OH229590   2.021   0.798   5.842  0.2809  0.5953 -0.6754
 2700TIP3    H129591   1.957   0.769   5.777  0.3543  1.0505 -0.9546
 2700TIP3    H229592   1.969   0.842   5.909 -0.0888 -1.8873  0.8031
 2701TIP3   OH229593   3.558   3.334  12.407  0.3324 -0.3259 -0.1701
 2701TIP3    H129594   3.467   3.326  12.437 -0.2865  0.7050 -1.6576
 2701TIP3    H229595   3.610   3.329  12.487 -1.1568  0.9339  0.9392
 2702TIP3   OH229596   2.789   3.418  34.032  0.0795  0.4839 -0.0807
 2702TIP3    H129597   2.806   3.477  34.106  3.7377 -0.7370  0.2275
 2702TIP3    H229598   2.766   3.335  34.073 -0.4927  0.4783 -0.4079
 2703TIP3   OH229599   0.159   0.714   5.665 -0.3893  0.1592  0.1162
 2703TIP3    H129600   0.106   0.668   5.730  1.8003  1.2242  2.8802
 2703TIP3    H229601   0.193   0.791   5.711 -0.1789  2.0478 -2.9193
 2704TIP3   OH229602   0.198   0.197  10.176 -0.1942  0.2012 -0.9717
 2704TIP3    H129603   0.128   0.257  10.149  0.1833  2.4350  2.4342
 2704TIP3    H229604   0.274   0.226  10.126 -0.6864  0.6772 -1.4647
 2705TIP3   OH229605   1.707   0.785  25.721 -0.1572  0.5137 -0.4176
 2705TIP3    H129606   1.632   0.799  25.662  0.0092  0.3872 -0.6577
 2705TIP3    H229607   1.783   0.813  25.670 -0.1489  1.7127  0.2216
 2706TIP3   OH229608   0.837   3.437  40.074  0.2731 -0.5006 -0.6825
 2706TIP3    H129609   0.781   3.362  40.093 -0.3791  0.3397  0.9546
 2706TIP3    H229610   0.925   3.400  40.066  0.2442 -1.2980  1.8571
 2707TIP3   OH229611   4.039   2.756   8.858 -1.0252 -0.1134  0.2659
 2707TIP3    H129612   4.093   2.721   8.929  2.6344  1.1269 -1.6609
 2707TIP3    H229613   4.047   2.692   8.788 -1.8076  0.2902 -0.2050
 2708TIP3   OH229614   2.661   0.142   7.939 -0.6919 -0.2325 -0.3372
 2708TIP3    H129615   2.701   0.113   7.857  0.2993 -2.5678  0.8652
 2708TIP3    H229616   2.593   0.078   7.957 -1.7165  0.9350  0.1101
 2709TIP3   OH229617   3.421   1.873   9.089 -0.0573 -0.3817  0.2803
 2709TIP3    H129618   3.439   1.917   9.172  0.7042  0.5038 -0.3379
 2709TIP3    H229619   3.425   1.943   9.023  0.5540 -1.2671 -0.6507
 2710TIP3   OH229620   3.662   1.133   1.897  0.3485  0.5051  0.4132
 2710TIP3    H129621   3.721   1.158   1.826 -0.2534  0.3089 -0.1621
 2710TIP3    H229622   3.631   1.217   1.932 -0.6196  0.5942 -0.6297
 2711TIP3   OH229623   3.806   1.376  13.241 -0.1083 -0.2524  0.0092
 2711TIP3    H129624   3.771   1.291  13.218 -0.7440  0.4897 -1.9540
 2711TIP3    H229625   3.854   1.404  13.163 -0.2866  1.3675  0.4494
 2712TIP3   OH229626   0.667   3.884   6.095  0.1847  0.1333 -0.8595
 2712TIP3    H129627   0.730   3.898   6.025  0.7555 -0.0853 -0.4031
 2712TIP3    H229628   0.658   3.969   6.137 -2.4454  1.0500 -3.0123
 2713TIP3   OH229629   2.055   3.966  27.880 -0.2559  0.1682  0.5106
 2713TIP3    H129630   2.109   4.043  27.894 -0.9993  1.1552 -1.5795
 2713TIP3    H229631   2.115   3.892  27.886  1.2648  1.1918 -1.2425
 2714TIP3   OH229632   1.031   1.377   2.904  0.1784 -0.1750 -0.3284
 2714TIP3    H129633   1.009   1.285   2.921 -2.2868  0.2423 -0.9452
 2714TIP3    H229634   1.059   1.410   2.989 -1.0798 -0.9595  0.4319
 2715TIP3   OH229635   0.489   3.127  13.301  0.7576 -0.2060  0.3206
 2715TIP3    H129636   0.482   3.122  13.206 -0.6588  0.0631  0.4018
 2715TIP3    H229637   0.407   3.090  13.334  1.1798 -0.1936  1.4400
 2716TIP3   OH229638   2.191   1.535  34.131 -0.0065  0.2446  0.6311
 2716TIP3    H129639   2.106   1.572  34.108 -0.3167 -0.1238  1.1922
 2716TIP3    H229640   2.177   1.440  34.132  0.8524  0.0545 -1.0847
 2717TIP3   OH229641   0.753   3.542   9.130  0.5396 -0.4786  0.4936
 2717TIP3    H129642   0.750   3.463   9.184 -1.1992 -0.1492  0.9434
 2717TIP3    H229643   0.716   3.515   9.046  1.4454 -0.5253  0.1061
 2718TIP3   OH229644   3.670   3.880  13.457  0.1536 -0.7183  0.1787
 2718TIP3    H129645   3.652   3.809  13.519  0.1258  0.1600  1.2157
 2718TIP3    H229646   3.705   3.950  13.512 -0.5270  0.3413 -0.7032
 2719TIP3   OH229647   1.890   0.757  44.725  0.2281 -0.0489 -0.0837
 2719TIP3    H129648   1.810   0.769  44.674  1.4689 -0.1833 -2.1918
 2719TIP3    H229649   1.930   0.844  44.727 -0.9196  0.5208  2.8110
 2720TIP3   OH229650   3.658   3.554  30.938 -0.0268  0.3889 -0.1489
 2720TIP3    H129651   3.638   3.469  30.977  0.5266  0.1616 -0.3444
 2720TIP3    H229652   3.573   3.591  30.917 -0.3033  0.2182  0.6414
 2721TIP3   OH229653   3.988   4.076  13.270 -0.2460 -0.1765 -0.0507
 2721TIP3    H129654   4.053   4.145  13.285 -0.5656 -0.0014  0.5567
 2721TIP3    H229655   3.943   4.066  13.354  0.6760 -2.0519  0.2765
 2722TIP3   OH229656   3.753   3.457  45.902  0.6551  0.0723  0.1854
 2722TIP3    H129657   3.780   3.522  45.838  0.1245  0.0062 -0.1089
 2722TIP3    H229658   3.779   3.494  45.987  1.4664  0.1059 -0.0674
 2723TIP3   OH229659   3.978   3.355  47.245 -0.5063 -0.5267 -0.1472
 2723TIP3    H129660   3.926   3.420  47.294 -1.6072 -1.0450 -0.5858
 2723TIP3    H229661   3.934   3.272  47.263  0.8569 -1.1583  0.3555
 2724TIP3   OH229662   2.293   1.774  19.258  0.3095  0.4596  0.2001
 2724TIP3    H129663   2.385   1.801  19.261  0.1649  0.8365  1.5246
 2724TIP3    H229664   2.282   1.717  19.334 -0.5688  0.4160  0.0436
 2725TIP3   OH229665   2.389   0.732  25.464 -0.1894  0.6546 -0.3352
 2725TIP3    H129666   2.421   0.691  25.544 -0.3440 -0.5122 -0.8559
 2725TIP3    H229667   2.463   0.729  25.404 -0.3979  0.5400 -0.5906
 2726TIP3   OH229668   1.619   3.527  40.722 -0.0734 -0.4640  0.0766
 2726TIP3    H129669   1.629   3.506  40.629 -2.1381  1.2417 -0.6115
 2726TIP3    H229670   1.524   3.522  40.737  0.0549  1.0558  1.6198
 2727TIP3   OH229671   3.532   0.879  30.812  0.6154 -0.4192  0.4765
 2727TIP3    H129672   3.506   0.957  30.861 -0.5257  0.4036 -1.3249
 2727TIP3    H229673   3.617   0.902  30.774 -0.3744  0.6228 -1.2707
 2728TIP3   OH229674   1.942   1.796  22.984  0.5896 -0.5168  0.1587
 2728TIP3    H129675   1.853   1.773  22.958  0.6578  1.2929 -2.0242
 2728TIP3    H229676   1.996   1.722  22.953  0.2778  0.2206 -2.3696
 2729TIP3   OH229677   1.623   3.945  11.768 -0.0429  0.1098 -0.3917
 2729TIP3    H129678   1.700   3.909  11.813 -1.9366 -2.1783  1.2402
 2729TIP3    H229679   1.609   3.886  11.694  0.2870  1.0670 -1.2295
 2730TIP3   OH229680   3.009   2.233  14.902 -0.2254  0.1798  0.5699
 2730TIP3    H129681   2.928   2.262  14.860 -0.2146  0.1056  0.4984
 2730TIP3    H229682   2.985   2.220  14.994 -0.7758 -1.7157  0.1911
 2731TIP3   OH229683   3.027   2.669  19.926  0.0664  0.0528  0.4095
 2731TIP3    H129684   2.999   2.730  19.858 -1.3062 -3.1121 -2.1244
 2731TIP3    H229685   2.950   2.659  19.983 -0.0729 -0.0767  0.1999
 2732TIP3   OH229686   3.448   1.922   0.011 -0.1653  0.1748  0.2052
 2732TIP3    H129687   3.430   1.915   0.105  1.2332 -3.2376  0.3625
 2732TIP3    H229688   3.543   1.914   0.004 -0.1048  1.7548 -1.4680
 2733TIP3   OH229689   3.102   1.777  33.862 -0.1249 -0.1961  0.9259
 2733TIP3    H129690   3.063   1.700  33.903  0.7369 -0.3906  1.4103
 2733TIP3    H229691   3.039   1.848  33.878 -0.1798 -0.4533  1.8765
 2734TIP3   OH229692   0.791   2.289  46.086  0.0383  0.1183  0.2856
 2734TIP3    H129693   0.848   2.236  46.030  1.0682 -0.7966  2.1289
 2734TIP3    H229694   0.707   2.244  46.083  0.3718 -0.5184  0.2964
 2735TIP3   OH229695   2.222   2.498  43.496  0.4254  0.2663 -0.2205
 2735TIP3    H129696   2.226   2.410  43.534  0.5661  0.6865  0.7627
 2735TIP3    H229697   2.290   2.547  43.543  0.9484  0.6778 -1.3620
 2736TIP3   OH229698   0.568   0.765   8.910 -0.3025  0.6970 -0.2766
 2736TIP3    H129699   0.544   0.709   8.836 -0.4562  1.1575 -0.5796
 2736TIP3    H229700   0.663   0.762   8.913 -0.2801  0.9127 -0.6838
 2737TIP3   OH229701   2.448   3.927  37.398  0.4959  0.1304  0.3953
 2737TIP3    H129702   2.440   3.915  37.304  0.6351 -1.5541  0.5691
 2737TIP3    H229703   2.542   3.916  37.416  0.4249  0.1228  0.7687
 2738TIP3   OH229704   1.660   2.593  13.642 -0.8330 -0.2564  0.3988
 2738TIP3    H129705   1.663   2.585  13.547  0.9434 -0.4112  0.4327
 2738TIP3    H229706   1.640   2.686  13.657 -1.7456 -0.3578 -0.0959
 2739TIP3   OH229707   3.382   2.830  42.517 -0.0599 -0.2023 -0.4116
 2739TIP3    H129708   3.388   2.848  42.423  2.0763 -2.7186 -0.8569
 2739TIP3    H229709   3.392   2.736  42.525 -1.2427 -0.2135  2.3256
 2740TIP3   OH229710   2.811   0.605  47.131  0.0409 -0.0392 -0.0624
 2740TIP3    H129711   2.784   0.673  47.193 -0.0488  0.2747 -0.4347
 2740TIP3    H229712   2.836   0.654  47.052 -1.4428 -0.5083 -0.8561
 2741TIP3   OH229713   2.758   3.884  10.162  0.1956 -0.3361 -0.0176
 2741TIP3    H129714   2.843   3.843  10.171  0.2418 -0.6215 -1.4547
 2741TIP3    H229715   2.710   3.859  10.241  0.8819 -1.5532  0.0371
 2742TIP3   OH229716   1.452   2.386  38.377  0.1648 -0.5832 -0.0261
 2742TIP3    H129717   1.378   2.332  38.350  0.1202 -0.6922  0.3007
 2742TIP3    H229718   1.518   2.322  38.406 -0.1854 -0.4475  1.1107
 2743TIP3   OH229719   3.813   4.089   1.328 -0.5030  0.2783  0.2501
 2743TIP3    H129720   3.892   4.038   1.347 -1.1614 -0.5157  0.9862
 2743TIP3    H229721   3.832   4.176   1.361 -0.2644 -0.1551  1.3100
 2744TIP3   OH229722   2.600   2.313   7.033 -0.1868  0.6314 -0.2584
 2744TIP3    H129723   2.650   2.250   6.982 -2.2523  0.1236 -1.8054
 2744TIP3    H229724   2.584   2.270   7.117  1.3580  0.5554  0.0128
 2745TIP3   OH229725   1.526   2.193   9.661 -0.1277 -0.0595  0.1444
 2745TIP3    H129726   1.530   2.268   9.720 -0.4268 -0.7220  1.0391
 2745TIP3    H229727   1.447   2.207   9.609  0.4597  0.8304 -0.5377
 2746TIP3   OH229728   0.245   4.014   2.778  0.5397 -0.2840 -0.2738
 2746TIP3    H129729   0.340   4.025   2.769  0.5567 -0.7870 -0.7525
 2746TIP3    H229730   0.212   4.027   2.689  0.0715  0.6485  0.0200
 2747TIP3   OH229731   3.898   0.057  35.619 -0.1913 -0.0330  0.5117
 2747TIP3    H129732   3.811   0.080  35.652  0.5908  1.3022  1.7692
 2747TIP3    H229733   3.951   0.046  35.698  0.3018 -3.0934 -0.1215
 2748TIP3   OH229734   1.501   2.745  32.023  0.3967  0.5897  0.3247
 2748TIP3    H129735   1.566   2.778  31.960  0.1940 -0.5660 -0.5407
 2748TIP3    H229736   1.552   2.696  32.086  0.5167  1.0357  0.5778
 2749TIP3   OH229737   2.155   2.544  41.911 -0.4996  0.7649  0.5810
 2749TIP3    H129738   2.153   2.533  41.816 -0.1859  0.0646  0.6476
 2749TIP3    H229739   2.239   2.585  41.929  0.9691 -2.0903  0.8182
 2750TIP3   OH229740   0.491   2.251  14.228 -0.1326  0.0258 -0.2121
 2750TIP3    H129741   0.481   2.225  14.137  1.3344 -3.8270  0.5566
 2750TIP3    H229742   0.403   2.242  14.265 -0.3011 -0.7051 -0.7572
 2751TIP3   OH229743   0.790   0.153   8.540  0.0999  0.1677  0.3972
 2751TIP3    H129744   0.749   0.071   8.568  1.7787 -1.0044 -0.3866
 2751TIP3    H229745   0.758   0.167   8.451  2.0379 -1.3044 -0.6144
 2752TIP3   OH229746   2.275   1.177  12.622 -0.3487 -0.8757 -0.0662
 2752TIP3    H129747   2.249   1.110  12.559 -1.5323 -0.9726  0.5008
 2752TIP3    H229748   2.200   1.236  12.627  0.8569  0.8268 -0.9504
 2753TIP3   OH229749   0.557   2.442   8.633 -0.2435 -0.0505  0.0964
 2753TIP3    H129750   0.629   2.382   8.610  0.6299  1.4900 -1.4470
 2753TIP3    H229751   0.512   2.399   8.706  2.3152 -1.0329  1.2101
 2754TIP3   OH229752   1.198   1.015  12.370  0.4161 -0.5844 -0.3047
 2754TIP3    H129753   1.267   0.978  12.426  1.6569 -2.5925 -2.9169
 2754TIP3    H229754   1.130   0.948  12.368 -1.5755  1.1939  1.8863
 2755TIP3   OH229755   1.994   1.280  15.376 -0.1053 -0.1739  0.2119
 2755TIP3    H129756   1.933   1.329  15.322  0.3834  0.8029  0.5262
 2755TIP3    H229757   2.025   1.343  15.441  2.3496 -0.1862 -0.8368
 2756TIP3   OH229758   3.278   3.752  32.667 -0.0881  0.3943  0.2363
 2756TIP3    H129759   3.249   3.806  32.594 -0.4011 -0.6319 -0.4127
 2756TIP3    H229760   3.218   3.677  32.668  0.8547 -0.3854  0.5741
 2757TIP3   OH229761   2.420   0.468   0.968  0.1504  0.2135 -0.3252
 2757TIP3    H129762   2.362   0.544   0.970 -0.5815 -0.3430  0.6759
 2757TIP3    H229763   2.413   0.435   0.878 -0.7940  0.3895 -0.3335
 2758TIP3   OH229764   2.197   3.236  44.395 -0.1488  0.1307  0.1401
 2758TIP3    H129765   2.232   3.151  44.368 -0.6829  0.6550 -2.5239
 2758TIP3    H229766   2.140   3.216  44.470 -1.7164 -2.2170 -1.5231
 2759TIP3   OH229767   0.975   1.650  41.086 -0.3926  0.2731 -0.1209
 2759TIP3    H129768   0.911   1.662  41.016 -2.2552  0.8354  1.5879
 2759TIP3    H229769   1.023   1.732  41.090 -1.3216  0.8027  0.2534
 2760TIP3   OH229770   0.393   3.021  46.902 -0.2799 -0.5011 -0.3187
 2760TIP3    H129771   0.416   3.004  46.811 -0.4279 -0.9399 -0.2737
 2760TIP3    H229772   0.337   3.099  46.898  1.8493  1.1260 -0.3424
 2761TIP3   OH229773   1.882   1.309   1.576 -0.2049  0.0058  0.2880
 2761TIP3    H129774   1.919   1.332   1.491 -1.0790  1.7536  0.3240
 2761TIP3    H229775   1.803   1.362   1.583  0.0461  0.2148  2.3376
 2762TIP3   OH229776   0.110   3.983  45.997 -0.6086 -0.5678  0.2444
 2762TIP3    H129777   0.075   3.954  46.081  0.1604 -1.1909  0.3620
 2762TIP3    H229778   0.043   3.958  45.933 -0.1177 -2.3559  0.3803
 2763TIP3   OH229779   1.726   1.728   4.584 -0.7072 -0.8848  0.0539
 2763TIP3    H129780   1.738   1.740   4.489 -1.3060 -1.5677 -0.1141
 2763TIP3    H229781   1.707   1.635   4.594 -1.2307 -0.7022  0.7931
 2764TIP3   OH229782   2.383   2.252  34.023  0.0032  0.2511 -0.6592
 2764TIP3    H129783   2.311   2.290  34.072 -0.3349 -0.8896 -0.2272
 2764TIP3    H229784   2.404   2.317  33.956 -0.7956  1.0010 -0.2011
 2765TIP3   OH229785   0.700   3.007  41.452  0.0697  0.6101 -0.1510
 2765TIP3    H129786   0.618   3.052  41.433  0.3470  1.1658 -0.0479
 2765TIP3    H229787   0.733   3.049  41.532  0.2717  0.1488  0.0119
 2766TIP3   OH229788   0.927   1.564   3.976  0.2412  0.1569 -0.0060
 2766TIP3    H129789   0.909   1.471   3.962  0.9791 -0.2290  1.3831
 2766TIP3    H229790   1.012   1.565   4.020  0.4005  1.5189 -0.3031
 2767TIP3   OH229791   2.762   2.294   3.900  0.0959  0.5451  0.0261
 2767TIP3    H129792   2.835   2.294   3.838 -0.8452  1.1550 -1.1322
 2767TIP3    H229793   2.755   2.385   3.929 -0.5501  0.6219 -0.3288
 2768TIP3   OH229794   1.877   0.972   6.004  0.0986 -0.5126 -0.1954
 2768TIP3    H129795   1.782   0.964   5.996  0.0740 -0.0411 -0.4353
 2768TIP3    H229796   1.894   1.065   5.992  0.5132 -0.4647  0.7145
 2769TIP3   OH229797   2.711   1.031   6.334 -0.2456  0.1466  0.3516
 2769TIP3    H129798   2.794   0.991   6.308 -0.2675 -0.8365  1.7153
 2769TIP3    H229799   2.690   1.090   6.261  0.5682 -1.1466 -1.0026
 2770TIP3   OH229800   1.745   0.644  47.302  0.2147 -0.4741 -0.0822
 2770TIP3    H129801   1.758   0.735  47.329 -0.8512 -0.1426 -0.6495
 2770TIP3    H229802   1.833   0.607  47.303  0.6341  0.4780  0.4409
 2771TIP3   OH229803   0.169   0.056  40.441  0.3484  0.0064 -0.5577
 2771TIP3    H129804   0.086   0.065  40.395  0.9708  0.7568 -1.5919
 2771TIP3    H229805   0.151   0.085  40.530 -0.0830  2.0159 -1.2475
 2772TIP3   OH229806   0.244   1.703  12.343 -0.5599  0.3155  0.2620
 2772TIP3    H129807   0.275   1.793  12.337 -0.3742  0.1839 -1.2079
 2772TIP3    H229808   0.322   1.650  12.327 -0.5305 -0.1320  1.8084
 2773TIP3   OH229809   1.541   1.103  14.616 -0.5591  0.0554 -0.4680
 2773TIP3    H129810   1.557   1.146  14.700  1.6820 -1.3696 -0.0704
 2773TIP3    H229811   1.520   1.174  14.556  1.8557  1.6408  0.3984
 2774TIP3   OH229812   1.238   3.243   6.033 -0.3527 -0.3753 -0.7506
 2774TIP3    H129813   1.159   3.259   6.085 -0.8263  1.5223 -1.9584
 2774TIP3    H229814   1.295   3.193   6.091 -1.8433 -0.5099  0.6727
 2775TIP3   OH229815   2.216   3.628  44.471 -0.0112  0.1061 -0.0126
 2775TIP3    H129816   2.130   3.662  44.497  0.3723  0.7947  0.4041
 2775TIP3    H229817   2.234   3.558  44.533  0.1137  0.5629  0.4804
 2776TIP3   OH229818   3.344   1.715  20.834 -0.4199 -0.6848 -0.0293
 2776TIP3    H129819   3.265   1.682  20.877 -0.9986  0.7739  0.0613
 2776TIP3    H229820   3.312   1.774  20.766  0.6074  1.0720  0.9596
 2777TIP3   OH229821   2.433   1.017   0.918  0.0640  0.4572  0.7943
 2777TIP3    H129822   2.481   1.098   0.933 -0.2483  1.1649 -1.6302
 2777TIP3    H229823   2.496   0.959   0.876  0.1052 -0.4001  1.9649
 2778TIP3   OH229824   3.896   3.223  10.354 -0.0294  0.2991  0.0195
 2778TIP3    H129825   3.890   3.190  10.265 -0.6501 -0.1772  0.2305
 2778TIP3    H229826   3.823   3.284  10.362  0.2635  0.6458  0.0798
 2779TIP3   OH229827   3.208   0.366  13.586 -0.0848  0.4267  0.8274
 2779TIP3    H129828   3.220   0.461  13.588  1.0879  0.2817  2.2750
 2779TIP3    H229829   3.120   0.352  13.620 -0.6011  1.0309 -0.2277
 2780TIP3   OH229830   3.469   3.683  39.075  0.3541  0.3142  0.4767
 2780TIP3    H129831   3.495   3.598  39.112  0.1768 -0.4540 -1.0597
 2780TIP3    H229832   3.388   3.705  39.121 -1.3826 -1.9551 -1.2400
 2781TIP3   OH229833   3.011   3.959  24.408  0.1243 -0.6298 -0.1257
 2781TIP3    H129834   2.977   4.018  24.476  1.3491 -0.3446  0.2655
 2781TIP3    H229835   3.094   3.999  24.382 -0.7070 -0.2610 -2.4288
 2782TIP3   OH229836   2.447   3.982   4.774  0.6556 -0.6917 -0.1159
 2782TIP3    H129837   2.524   4.032   4.804  1.0631 -1.7385  0.6030
 2782TIP3    H229838   2.390   4.049   4.735  1.1103  0.3722  0.9737
 2783TIP3   OH229839   0.069   2.563  38.409 -0.3955  0.6967  0.0831
 2783TIP3    H129840   0.018   2.570  38.490 -1.0098  0.3924 -0.2691
 2783TIP3    H229841   0.012   2.513  38.350  1.9750 -3.6549  1.0440
 2784TIP3   OH229842   3.467   2.762  33.595 -0.6180  0.1864 -0.1872
 2784TIP3    H129843   3.448   2.679  33.637  1.2517  0.9619  2.4951
 2784TIP3    H229844   3.532   2.741  33.528  0.4065 -0.5019  0.9689
 2785TIP3   OH229845   2.874   1.830  12.263 -0.5493 -0.0873 -0.1749
 2785TIP3    H129846   2.847   1.819  12.172 -1.6033  1.3288 -0.0655
 2785TIP3    H229847   2.964   1.863  12.257 -0.5869 -0.0686 -0.6973
 2786TIP3   OH229848   2.551   1.064  42.825 -0.2786  0.0471 -0.1688
 2786TIP3    H129849   2.510   1.145  42.793 -0.7602  0.7318  1.9943
 2786TIP3    H229850   2.484   0.997  42.814 -0.4140  0.2451 -0.5899
 2787TIP3   OH229851   3.140   3.239  38.650 -0.0913  0.4760 -0.3066
 2787TIP3    H129852   3.120   3.323  38.609 -0.4632  0.3896 -0.3076
 2787TIP3    H229853   3.138   3.257  38.744 -2.2687  0.0351 -0.2230
 2788TIP3   OH229854   0.745   3.541  46.758 -0.0538 -0.2109 -0.7990
 2788TIP3    H129855   0.769   3.633  46.758 -0.0814 -0.1885 -1.7478
 2788TIP3    H229856   0.656   3.539  46.792 -0.1776  0.1539 -1.0940
 2789TIP3   OH229857   2.496   2.983  33.591 -0.5151  0.2573 -0.4162
 2789TIP3    H129858   2.478   3.012  33.681  2.5107  2.2080 -0.2947
 2789TIP3    H229859   2.551   2.905  33.603  0.3190  0.8153 -0.5112
 2790TIP3   OH229860   3.375   1.848   4.055  0.5379  0.3053 -0.4770
 2790TIP3    H129861   3.297   1.899   4.035  0.7648  0.6241 -0.5556
 2790TIP3    H229862   3.363   1.766   4.006  0.7414  0.7821 -1.3421
 2791TIP3   OH229863   2.264   2.338  42.512 -0.1275  0.0957  0.0136
 2791TIP3    H129864   2.279   2.245  42.529  0.0434 -0.1343 -1.3162
 2791TIP3    H229865   2.290   2.381  42.594 -1.9176 -1.1418  1.3125
 2792TIP3   OH229866   4.031   3.402  35.299  0.0372 -0.0427  0.1174
 2792TIP3    H129867   3.952   3.451  35.273 -0.4992  0.0221  1.7340
 2792TIP3    H229868   4.100   3.468  35.300 -0.5225  0.5674  1.5387
 2793TIP3   OH229869   3.398   0.220  35.166 -0.7099 -0.8328  0.3384
 2793TIP3    H129870   3.399   0.192  35.074 -1.4075 -0.1787  0.1264
 2793TIP3    H229871   3.460   0.293  35.169 -2.0465  0.3488 -0.0212
 2794TIP3   OH229872   0.518   0.379  39.043 -0.0019  0.2990  0.1134
 2794TIP3    H129873   0.570   0.419  39.112 -0.0060  2.5727 -1.0928
 2794TIP3    H229874   0.428   0.387  39.073  0.1331 -2.1631  1.4591
 2795TIP3   OH229875   3.181   2.519  40.365  0.3983  0.0008  0.2868
 2795TIP3    H129876   3.189   2.558  40.452 -0.4109 -0.8459  0.7497
 2795TIP3    H229877   3.270   2.489  40.346  0.3296 -0.9937  1.4027
 2796TIP3   OH229878   3.968   3.919  12.062 -0.3037  0.3765 -0.2926
 2796TIP3    H129879   3.888   3.928  12.010 -0.4638  0.3041 -0.0592
 2796TIP3    H229880   4.039   3.922  11.998 -0.5678 -1.9055 -0.7736
 2797TIP3   OH229881   1.230   0.000  44.787  0.2576  0.2523  0.2921
 2797TIP3    H129882   1.151   0.015  44.735  0.6021  0.3278 -0.2220
 2797TIP3    H229883   1.243   0.082  44.835  0.7760  0.7373 -0.6582
 2798TIP3   OH229884   1.147   0.298   9.676  0.3653  0.0082  0.2006
 2798TIP3    H129885   1.138   0.248   9.595  1.5912 -2.3285  1.3740
 2798TIP3    H229886   1.069   0.353   9.680 -3.1150 -4.3794  0.3862
 2799TIP3   OH229887   3.373   3.942  27.761  0.6845 -0.3254 -0.0926
 2799TIP3    H129888   3.363   3.949  27.666  1.8787 -0.8314 -0.2822
 2799TIP3    H229889   3.375   3.848  27.778 -2.5232 -0.3413  0.8449
 2800TIP3   OH229890   3.282   2.107  38.607  0.5557  0.3053 -0.2703
 2800TIP3    H129891   3.319   2.160  38.537 -0.9707  1.4593 -0.2525
 2800TIP3    H229892   3.316   2.146  38.687 -0.2793  1.0610 -0.2709
 2801TIP3   OH229893   2.866   0.184  35.335 -0.0095 -0.3061  0.2994
 2801TIP3    H129894   2.838   0.272  35.310  0.2866 -0.2416  0.1902
 2801TIP3    H229895   2.962   0.187  35.331 -0.0091 -0.7766 -0.2089
 2802TIP3   OH229896   2.993   0.201  10.484  0.2834  1.1241 -0.8945
 2802TIP3    H129897   3.063   0.150  10.524 -2.1924 -1.9216 -0.1034
 2802TIP3    H229898   2.978   0.159  10.399 -3.3940 -1.3630  0.7383
 2803TIP3   OH229899   1.141   0.967  15.124  0.3539  0.0327  0.1723
 2803TIP3    H129900   1.098   0.894  15.169 -0.4633  0.0732 -0.5152
 2803TIP3    H229901   1.081   1.041  15.136  0.4533  0.2108 -0.4022
 2804TIP3   OH229902   2.898   2.063  20.417  0.0684 -0.2973 -0.2453
 2804TIP3    H129903   2.826   2.001  20.429  1.1198 -1.6543 -0.5538
 2804TIP3    H229904   2.856   2.148  20.409 -1.5683 -1.1458 -1.2693
 2805TIP3   OH229905   3.180   0.871   8.767 -0.1324 -0.3509 -0.3116
 2805TIP3    H129906   3.202   0.916   8.849 -0.9608 -1.4234  0.5255
 2805TIP3    H229907   3.100   0.914   8.736 -0.9211 -1.2086  0.4851
 2806TIP3   OH229908   2.620   0.805   9.401  0.1472  0.2857  0.0582
 2806TIP3    H129909   2.630   0.757   9.483 -0.0976 -0.9889 -0.6277
 2806TIP3    H229910   2.631   0.738   9.333  0.6595  1.3637 -0.9559
 2807TIP3   OH229911   0.943   3.531  41.021  0.3240 -0.0531 -0.0701
 2807TIP3    H129912   0.931   3.436  41.028  0.5402 -0.1011 -0.3087
 2807TIP3    H229913   0.859   3.563  40.986 -0.6498  0.1562  2.2971
 2808TIP3   OH229914   3.692   0.482  34.689 -0.2722  0.9764  0.0883
 2808TIP3    H129915   3.611   0.506  34.735  1.0066  0.9693  2.4792
 2808TIP3    H229916   3.743   0.435  34.755  0.9001 -0.7385 -1.9497
 2809TIP3   OH229917   3.910   0.462   4.641  0.1546  0.2116  0.0265
 2809TIP3    H129918   3.911   0.499   4.729 -2.5944 -1.5522  0.9223
 2809TIP3    H229919   3.872   0.531   4.586  2.4955  1.5721 -0.0156
 2810TIP3   OH229920   1.228   0.438  42.350  0.4981  0.2259 -0.1886
 2810TIP3    H129921   1.207   0.523  42.312 -1.0767  0.4825  1.1107
 2810TIP3    H229922   1.247   0.382  42.274  0.0029  1.3359 -1.1724
 2811TIP3   OH229923   1.841   1.737  33.654 -0.1647  0.8195  0.0954
 2811TIP3    H129924   1.856   1.823  33.693 -0.7270  1.0271 -0.1304
 2811TIP3    H229925   1.848   1.753  33.559 -0.8965  0.7394  0.0287
 2812TIP3   OH229926   0.528   3.395  41.613 -0.3192  0.5884  0.4902
 2812TIP3    H129927   0.440   3.405  41.576  0.1260  0.7530 -0.5591
 2812TIP3    H229928   0.520   3.426  41.703 -1.1866  1.2597  0.1990
 2813TIP3   OH229929   3.849   0.041  35.309  0.1608  0.2143 -0.1151
 2813TIP3    H129930   3.838   0.106  35.379  0.8918 -0.8672  1.0658
 2813TIP3    H229931   3.784  -0.027  35.329 -0.9473  0.7890 -1.6317
 2814TIP3   OH229932   3.277   2.117  44.214  0.9007 -0.3498 -0.5890
 2814TIP3    H129933   3.368   2.089  44.205  1.3901  0.5987  1.0153
 2814TIP3    H229934   3.281   2.212  44.215 -0.1165 -0.2962 -0.3822
 2815TIP3   OH229935   1.720   3.521  10.894  0.1282 -0.9636 -0.1967
 2815TIP3    H129936   1.668   3.558  10.965  0.9280 -0.8923  0.3561
 2815TIP3    H229937   1.777   3.593  10.866  0.7258 -1.3697 -0.0345
 2816TIP3   OH229938   3.781   0.537  31.848  0.1821 -0.3019  0.0074
 2816TIP3    H129939   3.873   0.550  31.871 -0.3922  2.2189  1.2870
 2816TIP3    H229940   3.752   0.467  31.907  1.4065 -1.6560 -0.9297
 2817TIP3   OH229941   1.752   2.134  11.237  0.0151  0.5428 -0.2054
 2817TIP3    H129942   1.827   2.099  11.286  0.7333  1.5792 -0.5353
 2817TIP3    H229943   1.700   2.056  11.214  0.8055 -0.1595  0.3127
 2818TIP3   OH229944   1.389   0.389  30.469  0.0423 -0.2101 -0.2693
 2818TIP3    H129945   1.459   0.422  30.413  2.1206 -1.9338  1.1412
 2818TIP3    H229946   1.407   0.425  30.555  0.3887 -2.1740  0.5435
 2819TIP3   OH229947   1.388   2.775  16.188 -0.7772  0.7353  0.0402
 2819TIP3    H129948   1.311   2.733  16.227 -1.5409 -0.8740 -2.8863
 2819TIP3    H229949   1.351   2.835  16.123  0.4326  1.0402 -0.3908
 2820TIP3   OH229950   0.854   3.651  38.114  0.1048 -0.2253 -0.2017
 2820TIP3    H129951   0.834   3.706  38.190  1.1216 -1.0675  0.7113
 2820TIP3    H229952   0.852   3.561  38.148  0.6219 -0.6146 -1.1563
 2821TIP3   OH229953   3.277   3.653   6.566 -0.4159 -0.2266  0.5802
 2821TIP3    H129954   3.279   3.564   6.601 -0.4607 -0.9675 -1.1783
 2821TIP3    H229955   3.363   3.663   6.523 -0.2853  0.7063  1.0378
 2822TIP3   OH229956   1.829   1.048  47.083 -0.4341 -0.2763 -0.1898
 2822TIP3    H129957   1.849   1.063  47.175 -0.1957 -0.6758 -0.1711
 2822TIP3    H229958   1.758   0.983  47.084 -0.4688 -0.2397 -0.2821
 2823TIP3   OH229959   3.296   0.309  33.323  0.3914  0.9720 -0.6219
 2823TIP3    H129960   3.366   0.284  33.383  1.7795  1.3758 -2.0306
 2823TIP3    H229961   3.299   0.405  33.321  0.9624  0.9392 -2.0135
 2824TIP3   OH229962   1.779   1.440  33.321 -0.3225 -0.6845 -0.3507
 2824TIP3    H129963   1.743   1.477  33.240  0.6181 -0.1276 -0.5363
 2824TIP3    H229964   1.703   1.426  33.377 -1.0988 -1.8530 -1.6216
 2825TIP3   OH229965   4.047   2.668  37.116  0.0718  0.0285  0.1627
 2825TIP3    H129966   3.979   2.686  37.181  0.7806 -0.2508  1.0075
 2825TIP3    H229967   4.001   2.663  37.033 -0.7479  1.2386  0.5273
 2826TIP3   OH229968   0.846   3.712  33.543 -0.4317 -0.4612  0.2793
 2826TIP3    H129969   0.796   3.676  33.470 -0.2589 -0.4313  0.1438
 2826TIP3    H229970   0.935   3.683  33.527  0.2047  1.9914 -1.1408
 2827TIP3   OH229971   2.175   2.361   3.424  0.0095 -0.1411  0.3105
 2827TIP3    H129972   2.173   2.431   3.490 -0.5447  0.4988 -0.3615
 2827TIP3    H229973   2.092   2.371   3.377  0.5225 -0.3945 -0.6716
 2828TIP3   OH229974   3.777   1.787  42.238  0.1452 -0.1067 -0.0020
 2828TIP3    H129975   3.784   1.860  42.178 -1.1053  1.2809  1.4550
 2828TIP3    H229976   3.770   1.827  42.325 -2.8282 -1.7876  0.6731
 2829TIP3   OH229977   1.471   1.351  40.035 -0.2787  0.2050  0.3252
 2829TIP3    H129978   1.457   1.401  39.954  0.4780 -1.4754 -0.8912
 2829TIP3    H229979   1.395   1.372  40.089 -1.7620 -0.0264 -1.5586
 2830TIP3   OH229980   3.338   2.361  37.089  0.4971 -0.5226 -0.0409
 2830TIP3    H129981   3.246   2.335  37.085  0.1258  0.6099  0.5759
 2830TIP3    H229982   3.380   2.293  37.141 -0.6205  0.4848  2.3209
 2831TIP3   OH229983   1.970   3.576  27.478 -0.3119  0.5956  0.3222
 2831TIP3    H129984   1.938   3.518  27.548 -0.7766  0.1566 -0.2462
 2831TIP3    H229985   1.891   3.609  27.436 -0.1116 -1.5814 -1.9952
 2832TIP3   OH229986   2.222   1.103  16.325  0.1725  0.7990 -0.5919
 2832TIP3    H129987   2.159   1.082  16.394 -0.5330  1.7225 -0.9381
 2832TIP3    H229988   2.190   1.054  16.248  0.1630  0.8677 -0.6323
 2833TIP3   OH229989   2.403   1.287  31.643 -0.0370  0.5370 -0.3652
 2833TIP3    H129990   2.461   1.343  31.591  0.2813  0.7726  0.2369
 2833TIP3    H229991   2.404   1.326  31.730  1.7972 -1.5215  0.6405
 2834TIP3   OH229992   3.687   3.911  11.938  0.4474  0.0914  0.3386
 2834TIP3    H129993   3.646   3.831  11.902 -1.2330  1.0435  0.0190
 2834TIP3    H229994   3.644   3.924  12.023 -0.2770  1.3348 -0.1822
 2835TIP3   OH229995   1.510   2.653   2.437  0.4595 -0.3075  0.3833
 2835TIP3    H129996   1.425   2.667   2.394  0.4169 -0.0362  0.5558
 2835TIP3    H229997   1.571   2.707   2.388  0.9181 -1.9343 -0.9453
 2836TIP3   OH229998   1.094   2.540  35.848  0.0651  0.1754 -0.1771
 2836TIP3    H129999   1.141   2.542  35.764 -0.4050  1.5985 -0.4467
 2836TIP3    H230000   1.003   2.524  35.823 -0.1535  1.0840  0.0039
 2837TIP3   OH230001   1.442   3.647  44.662 -0.3495  0.0839 -0.7793
 2837TIP3    H130002   1.503   3.637  44.589 -0.6940 -0.7609 -0.9603
 2837TIP3    H230003   1.457   3.571  44.717 -0.2005  0.6380 -0.0314
 2838TIP3   OH230004   1.262   1.938  13.962  0.5820 -0.4825  0.2717
 2838TIP3    H130005   1.344   1.949  14.011  0.4685  0.7083  0.2154
 2838TIP3    H230006   1.222   2.025  13.963 -0.9263 -1.1488  0.7240
 2839TIP3   OH230007   2.926   3.962  10.516  0.1692  0.5435 -1.0915
 2839TIP3    H130008   2.948   4.047  10.478 -1.3198  1.1517 -0.6638
 2839TIP3    H230009   2.899   3.983  10.606 -0.9821 -0.2737 -1.2322
 2840TIP3   OH230010   2.836   2.033  13.434  0.2793  0.2639  0.4175
 2840TIP3    H130011   2.880   1.981  13.367 -2.2001 -1.3982 -0.0711
 2840TIP3    H230012   2.825   1.974  13.508  1.4629  1.5633  1.6869
 2841TIP3   OH230013   1.522   0.123  42.250  0.5261  0.7024  0.5174
 2841TIP3    H130014   1.562   0.114  42.163  1.1428 -1.0407  0.9474
 2841TIP3    H230015   1.428   0.111  42.234  0.6896 -0.1737  0.1563
 2842TIP3   OH230016   3.646   0.674   7.621 -0.0973 -0.1350  0.2720
 2842TIP3    H130017   3.666   0.591   7.666 -0.2569 -0.0643  0.4762
 2842TIP3    H230018   3.727   0.724   7.627 -0.0506 -0.2130  0.2923
 2843TIP3   OH230019   1.022   4.082  13.918  0.2462  0.5193 -0.0259
 2843TIP3    H130020   0.984   3.995  13.906  0.8458  0.2483  0.0369
 2843TIP3    H230021   1.078   4.074  13.995  0.6542  0.8415 -0.2799
 2844TIP3   OH230022   0.158   3.820  30.861  0.0303  0.2297  0.1100
 2844TIP3    H130023   0.235   3.789  30.814  0.1572 -0.7003  0.9072
 2844TIP3    H230024   0.091   3.828  30.793  0.0972 -1.4625 -0.2012
 2845TIP3   OH230025   0.266   0.601  12.074  0.1465  0.8612 -0.1007
 2845TIP3    H130026   0.201   0.535  12.049  0.8337  0.2608 -0.3217
 2845TIP3    H230027   0.316   0.617  11.994  0.3492  1.2366  0.0975
 2846TIP3   OH230028   3.408   0.602  32.225  0.0042 -0.3622 -0.0584
 2846TIP3    H130029   3.412   0.635  32.135 -1.1419 -0.8153 -0.2860
 2846TIP3    H230030   3.412   0.681  32.279 -0.4078 -0.0074 -0.5346
 2847TIP3   OH230031   1.043   0.924   3.139 -0.0562  0.3231 -0.8864
 2847TIP3    H130032   0.966   0.886   3.097 -1.2187  1.6085  0.0049
 2847TIP3    H230033   1.117   0.874   3.103 -1.2009 -0.2724 -2.5133
 2848TIP3   OH230034   1.876   3.154  46.012  0.5510 -0.3451 -0.0974
 2848TIP3    H130035   1.908   3.071  45.977  1.9595  0.1342  0.0217
 2848TIP3    H230036   1.943   3.183  46.073  0.2816  1.0826 -0.4306
 2849TIP3   OH230037   1.958   0.147  41.752  0.3423  0.7726 -0.1896
 2849TIP3    H130038   1.989   0.167  41.841 -1.0699 -2.2004  1.1435
 2849TIP3    H230039   1.871   0.110  41.766 -0.5513  1.5857 -3.0329
 2850TIP3   OH230040   0.326   0.383  46.489  0.0156  0.0891  0.0905
 2850TIP3    H130041   0.363   0.370  46.576  2.0483  1.8472 -0.4407
 2850TIP3    H230042   0.243   0.429  46.505  0.1147 -0.0503  1.0994
 2851TIP3   OH230043   0.997   3.385  34.724  0.5296  0.3051 -0.8038
 2851TIP3    H130044   0.959   3.419  34.644 -2.4783  1.4847  0.9527
 2851TIP3    H230045   0.939   3.313  34.750  1.0466  0.3673  0.6147
 2852TIP3   OH230046   1.436   0.786  32.737 -0.2800  0.4837  0.2634
 2852TIP3    H130047   1.344   0.789  32.712 -0.1132  0.3877 -0.3676
 2852TIP3    H230048   1.442   0.708  32.794 -0.1389 -0.9346 -1.6087
 2853TIP3   OH230049   1.304   3.928  12.976  0.4998 -0.0657 -0.0621
 2853TIP3    H130050   1.228   3.900  12.925  1.4570 -1.4941 -0.7423
 2853TIP3    H230051   1.286   3.897  13.065  0.0849  0.0236 -0.1115
 2854TIP3   OH230052   1.007   1.069  45.997 -0.1609 -0.2527  0.1594
 2854TIP3    H130053   1.022   0.975  45.987  1.1126  0.0211 -0.9641
 2854TIP3    H230054   0.989   1.100  45.908  1.3159  0.8137  0.1749
 2855TIP3   OH230055   3.760   2.223   5.995 -0.4424 -0.1238 -0.6216
 2855TIP3    H130056   3.692   2.202   5.932  0.0238 -1.5916 -0.6647
 2855TIP3    H230057   3.720   2.205   6.080 -0.1273 -0.9961 -0.6473
 2856TIP3   OH230058   1.954   1.461  42.063 -0.1485 -0.4845 -0.2291
 2856TIP3    H130059   2.047   1.458  42.088 -0.5462  0.2118  1.4447
 2856TIP3    H230060   1.927   1.369  42.061  0.1500 -0.6339  1.1190
 2857TIP3   OH230061   3.446   2.852   1.073 -0.8079 -0.3410  0.1495
 2857TIP3    H130062   3.527   2.873   1.027 -1.1518 -0.6092 -0.5952
 2857TIP3    H230063   3.455   2.760   1.098 -0.7858 -0.3049  0.2779
 2858TIP3   OH230064   2.182   0.664   8.040  0.3884  0.2058 -0.4894
 2858TIP3    H130065   2.106   0.654   7.982  0.6016 -2.4782 -0.4473
 2858TIP3    H230066   2.152   0.721   8.110 -1.0664  0.4880 -1.2986
 2859TIP3   OH230067   2.597   0.784   2.895  0.8708  0.4922  0.0426
 2859TIP3    H130068   2.652   0.772   2.817 -0.8273 -0.5417 -1.0689
 2859TIP3    H230069   2.644   0.849   2.948  1.9105  1.5336 -2.0219
 2860TIP3   OH230070   0.323   2.795  32.554 -0.3874 -0.0070  0.4059
 2860TIP3    H130071   0.307   2.706  32.583  0.5422 -0.8803 -1.5828
 2860TIP3    H230072   0.249   2.814  32.495 -0.1117  0.1966  0.1238
 2861TIP3   OH230073   0.167   3.737  10.882  0.6583  0.3186 -0.0706
 2861TIP3    H130074   0.230   3.801  10.850  0.7198  0.1871 -0.2157
 2861TIP3    H230075   0.204   3.705  10.964  1.6017 -0.9686 -0.9739
 2862TIP3   OH230076   0.659   1.201  43.393 -0.9543  0.2208 -0.6921
 2862TIP3    H130077   0.567   1.178  43.378 -1.0815 -1.3129  1.8589
 2862TIP3    H230078   0.706   1.160  43.321 -1.9228 -2.6171  0.1630
 2863TIP3   OH230079   3.132   0.242  35.257 -0.0681 -0.0964 -0.5327
 2863TIP3    H130080   3.227   0.237  35.247  0.2346  0.9102  1.2974
 2863TIP3    H230081   3.110   0.332  35.235 -0.2549  0.2854  1.0616
 2864TIP3   OH230082   1.442   0.925  38.000  0.8360 -0.2496 -0.2488
 2864TIP3    H130083   1.448   0.922  37.904  0.5764 -0.3434 -0.2635
 2864TIP3    H230084   1.421   1.017  38.020  2.2160  0.0649 -0.2001
 2865TIP3   OH230085   0.252   0.037  33.037 -0.7624  0.4104 -0.2040
 2865TIP3    H130086   0.245  -0.053  33.007 -1.2960  0.1971  0.5325
 2865TIP3    H230087   0.169   0.054  33.081 -0.3108  0.9543  0.4637
 2866TIP3   OH230088   3.880   3.223  39.569  0.3982  0.0041  0.1626
 2866TIP3    H130089   3.856   3.286  39.501 -1.0433 -0.2063  0.4451
 2866TIP3    H230090   3.890   3.140  39.522 -1.0832 -0.2444  0.2455
 2867TIP3   OH230091   0.162   0.546   3.737 -0.7056  0.3452 -0.1039
 2867TIP3    H130092   0.180   0.578   3.648  1.6020  0.1171  0.2151
 2867TIP3    H230093   0.070   0.522   3.736 -0.4679 -0.8229 -2.8248
 2868TIP3   OH230094   1.350   2.883   6.779 -0.6555 -0.1082  1.0851
 2868TIP3    H130095   1.348   2.828   6.701 -0.4052  1.0419  0.2471
 2868TIP3    H230096   1.436   2.925   6.776 -1.6950  2.1120  0.4163
 2869TIP3   OH230097   1.840   3.215  34.302  0.4360  0.9475  0.5177
 2869TIP3    H130098   1.772   3.270  34.342  0.1107  2.4644 -1.9307
 2869TIP3    H230099   1.921   3.246  34.341 -0.0833 -0.2478  2.7684
 2870TIP3   OH230100   2.650   2.282  36.136 -0.0167  0.2466 -0.0275
 2870TIP3    H130101   2.567   2.235  36.121 -0.0787  0.8831 -2.0015
 2870TIP3    H230102   2.717   2.220  36.108  0.1037  0.2182  0.3171
 2871TIP3   OH230103   0.322   2.918  40.130 -0.4443 -0.2923  0.2737
 2871TIP3    H130104   0.416   2.940  40.134 -0.5212 -0.0611  1.3372
 2871TIP3    H230105   0.318   2.837  40.079  0.1911  0.4142 -0.9146
 2872TIP3   OH230106   3.818   2.777  12.756 -0.5147 -0.2141  0.3525
 2872TIP3    H130107   3.829   2.748  12.665 -0.1463 -1.5001  0.7854
 2872TIP3    H230108   3.726   2.804  12.762 -0.5894 -0.2976 -0.3518
 2873TIP3   OH230109   2.272   3.572  26.183  0.0251  0.1637  0.4669
 2873TIP3    H130110   2.206   3.515  26.223  2.1590 -1.7288  1.4980
 2873TIP3    H230111   2.354   3.544  26.222  1.4345  2.6911 -0.4943
 2874TIP3   OH230112   0.343   0.038  13.298  0.3525  0.1956  0.4053
 2874TIP3    H130113   0.337   0.033  13.202 -0.8195 -0.2428  0.4805
 2874TIP3    H230114   0.259   0.076  13.325  0.8366  0.6942  1.2372
 2875TIP3   OH230115   3.977   1.935  32.442 -0.5140  0.3228  0.3212
 2875TIP3    H130116   4.038   1.995  32.399 -1.6903 -0.1089 -2.1150
 2875TIP3    H230117   4.033   1.868  32.482  0.6708 -0.4007 -2.3436
 2876TIP3   OH230118   2.440   0.648  16.049  0.7411 -0.3367  0.8449
 2876TIP3    H130119   2.478   0.719  15.997  1.5167 -1.4628 -0.1702
 2876TIP3    H230120   2.512   0.620  16.106  0.9075 -1.2844  0.1856
 2877TIP3   OH230121   2.694   3.392  28.279  0.5194  0.4100 -0.0320
 2877TIP3    H130122   2.747   3.452  28.330  0.6933  0.4876 -0.3014
 2877TIP3    H230123   2.744   3.378  28.198  0.3300  0.1578 -0.1084
 2878TIP3   OH230124   1.489   2.381  38.698 -0.3164 -0.2331 -0.3382
 2878TIP3    H130125   1.396   2.381  38.717 -0.6967 -0.7724 -2.0163
 2878TIP3    H230126   1.513   2.474  38.698 -0.9767 -0.0573 -0.4445
 2879TIP3   OH230127   3.189   1.323  39.333  0.2316 -0.6188 -0.0347
 2879TIP3    H130128   3.106   1.299  39.374 -0.9324 -1.4641 -2.6275
 2879TIP3    H230129   3.245   1.246  39.345  0.6391 -0.1081  1.5745
 2880TIP3   OH230130   0.297   2.923  38.513  0.4099  0.6819  0.1541
 2880TIP3    H130131   0.310   2.830  38.534 -1.1807  0.2794 -0.4615
 2880TIP3    H230132   0.383   2.962  38.523  1.8575 -1.4392 -2.5217
 2881TIP3   OH230133   2.657   3.628   4.309 -0.5808 -0.7426  0.3479
 2881TIP3    H130134   2.671   3.642   4.403  0.3407 -1.5936  0.3466
 2881TIP3    H230135   2.672   3.535   4.296 -0.9379 -0.6757 -0.6132
 2882TIP3   OH230136   0.215   3.007  40.726 -0.1950  0.6033 -0.0455
 2882TIP3    H130137   0.163   3.046  40.797  0.3761 -0.7405  1.1761
 2882TIP3    H230138   0.304   3.034  40.745 -0.2648  2.0223 -1.5365
 2883TIP3   OH230139   2.328   0.700  39.931 -0.5058  0.3512  0.4013
 2883TIP3    H130140   2.412   0.654  39.926 -0.4036  0.6423 -0.7027
 2883TIP3    H230141   2.320   0.746  39.848 -2.4363 -0.8551 -0.1552
 2884TIP3   OH230142   0.412   0.646   8.332 -0.0246 -0.4594  0.2336
 2884TIP3    H130143   0.458   0.717   8.376 -1.4686 -0.6293  2.1513
 2884TIP3    H230144   0.474   0.573   8.333  0.6076  0.0703  0.4154
 2885TIP3   OH230145   0.652   2.195  33.043 -0.4212 -0.0080  0.1232
 2885TIP3    H130146   0.678   2.111  33.082 -0.1679  0.8104  1.7949
 2885TIP3    H230147   0.577   2.224  33.094 -0.0019  1.1699  0.1104
 2886TIP3   OH230148   0.436   1.610  39.849  0.4463 -0.4235  0.6276
 2886TIP3    H130149   0.389   1.589  39.929 -0.6256  1.0225  0.4211
 2886TIP3    H230150   0.386   1.567  39.780 -0.6063  1.0462  0.4190
 2887TIP3   OH230151   1.930   0.042  27.248  0.0182 -0.4661 -0.1350
 2887TIP3    H130152   1.854   0.092  27.279  0.8341  0.7246 -0.0316
 2887TIP3    H230153   2.005   0.083  27.290  0.6258 -2.8151  1.3209
 2888TIP3   OH230154   1.740   0.879   7.054 -0.1402 -0.1665 -0.0512
 2888TIP3    H130155   1.658   0.838   7.025 -1.2503  0.5279  1.9630
 2888TIP3    H230156   1.748   0.958   7.000  0.4164 -1.3475 -1.8005
 2889TIP3   OH230157   0.330   1.628  12.947 -0.1012  0.5469  0.0798
 2889TIP3    H130158   0.410   1.652  12.992  1.1182 -0.7205 -1.2832
 2889TIP3    H230159   0.260   1.673  12.995  1.2078  0.2063  2.4440
 2890TIP3   OH230160   1.912   0.400  44.404  0.3416 -0.2697  0.2992
 2890TIP3    H130161   1.879   0.321  44.448 -1.5176 -0.6189 -1.5606
 2890TIP3    H230162   1.841   0.464  44.414  0.7852  0.3323 -0.3505
 2891TIP3   OH230163   0.561   0.830   2.764 -0.6167 -0.4075  0.2415
 2891TIP3    H130164   0.621   0.900   2.738  0.3808 -1.5392 -0.6037
 2891TIP3    H230165   0.474   0.863   2.742 -0.0564  0.0186 -1.4669
 2892TIP3   OH230166   0.925   2.721   1.841  0.1016  0.1636  0.4709
 2892TIP3    H130167   0.839   2.760   1.852 -0.0532  0.1129 -0.4661
 2892TIP3    H230168   0.914   2.630   1.868 -0.0549  0.2357  0.6521
 2893TIP3   OH230169   3.944   1.123  34.576 -0.3568 -0.1587  0.2404
 2893TIP3    H130170   3.918   1.102  34.666  1.8475 -2.0252  0.5319
 2893TIP3    H230171   3.982   1.042  34.542  3.7951  1.8291 -0.4851
 2894TIP3   OH230172   2.966   3.426  37.874  0.1630 -0.0951  0.4212
 2894TIP3    H130173   2.949   3.390  37.961 -0.0148 -0.4201  0.2526
 2894TIP3    H230174   3.011   3.510  37.891  1.8054 -1.0008  0.8061
 2895TIP3   OH230175   0.018   1.583  33.006  0.0055 -0.0359 -0.0673
 2895TIP3    H130176   0.088   1.623  33.059  0.2780  0.5911 -0.8723
 2895TIP3    H230177  -0.053   1.568  33.068  0.7461 -0.4161  0.7072
 2896TIP3   OH230178   2.693   0.407   3.168 -0.0290 -0.3406 -0.2655
 2896TIP3    H130179   2.725   0.484   3.215 -1.5310  0.5956 -0.7061
 2896TIP3    H230180   2.605   0.393   3.201 -0.5485 -0.6063 -1.6865
 2897TIP3   OH230181   0.157   3.413  32.809 -0.4970  0.5277  0.0358
 2897TIP3    H130182   0.089   3.435  32.873 -0.8136  0.5984 -0.3210
 2897TIP3    H230183   0.137   3.324  32.783 -0.4382  0.5419 -0.0556
 2898TIP3   OH230184   1.344   1.576  31.694  0.6833  0.2359  0.3508
 2898TIP3    H130185   1.272   1.560  31.755  0.3663 -1.0113 -0.3158
 2898TIP3    H230186   1.351   1.496  31.643  2.2274  0.5226  0.0550
 2899TIP3   OH230187   3.239   1.655  35.018  0.2690  0.3582 -0.1117
 2899TIP3    H130188   3.278   1.605  34.946 -0.8384 -0.5832 -0.0891
 2899TIP3    H230189   3.274   1.614  35.097  1.6182  1.5006 -0.0876
 2900TIP3   OH230190   3.092   0.357  45.447 -0.2841  0.4162  0.8871
 2900TIP3    H130191   3.080   0.263  45.466  1.1800 -0.4302 -1.8024
 2900TIP3    H230192   3.132   0.393  45.526  1.3148 -1.7650  1.1540
 2901TIP3   OH230193   3.827   1.728  43.447 -0.3446  0.1806 -0.1695
 2901TIP3    H130194   3.757   1.722  43.382 -0.6904  0.5880  0.1605
 2901TIP3    H230195   3.818   1.815  43.485  0.5020  0.3319 -0.2919
 2902TIP3   OH230196   2.844   1.604  41.654  0.3603 -0.1447  0.4797
 2902TIP3    H130197   2.788   1.531  41.631  0.3780 -0.7681  2.2468
 2902TIP3    H230198   2.785   1.669  41.693  0.3606  0.7637 -0.9672
 2903TIP3   OH230199   2.353   3.907  14.580  0.5174  0.1682  0.2247
 2903TIP3    H130200   2.410   3.893  14.655 -0.6367 -0.2498  1.0526
 2903TIP3    H230201   2.400   3.971  14.526  1.0666  1.0206  1.6462
 2904TIP3   OH230202   3.820   2.137  17.043  0.5541 -0.5467  0.1644
 2904TIP3    H130203   3.782   2.054  17.072 -1.9959  0.6185  0.4227
 2904TIP3    H230204   3.848   2.181  17.123  0.8711 -0.6614  0.1194
 2905TIP3   OH230205   3.645   1.579  15.066 -0.7470 -0.3837  0.5469
 2905TIP3    H130206   3.616   1.497  15.106 -1.1346 -0.5769 -0.1036
 2905TIP3    H230207   3.603   1.579  14.980  1.2107 -0.6863 -0.4672
 2906TIP3   OH230208   3.130   2.830  45.751  0.4773  0.5932 -0.4794
 2906TIP3    H130209   3.043   2.828  45.790 -0.3605  2.7299 -2.0630
 2906TIP3    H230210   3.176   2.757  45.792 -1.2165  0.9346  2.3062
 2907TIP3   OH230211   3.877   1.109  45.714 -0.4122  0.5814  0.3455
 2907TIP3    H130212   3.967   1.109  45.680 -1.1301 -0.8039 -1.7211
 2907TIP3    H230213   3.876   1.182  45.776  2.5737 -0.3776  1.7244
 2908TIP3   OH230214   2.515   1.633  13.548 -0.7909  0.0383 -0.3638
 2908TIP3    H130215   2.518   1.606  13.640 -3.4258  1.2964  0.2015
 2908TIP3    H230216   2.518   1.729  13.551  2.2434  0.1282 -1.8946
 2909TIP3   OH230217   0.562   1.954   3.099 -0.8111 -0.5195  0.5676
 2909TIP3    H130218   0.584   2.037   3.141 -0.0278 -1.4277  2.0228
 2909TIP3    H230219   0.640   1.900   3.109 -1.2121 -1.3543 -0.6068
 2910TIP3   OH230220   0.261   0.128  43.016  0.0175 -0.4153 -0.0526
 2910TIP3    H130221   0.319   0.180  43.071 -1.9081 -0.8808  2.6788
 2910TIP3    H230222   0.224   0.063  43.076 -0.3288 -2.7083 -2.5317
 2911TIP3   OH230223   0.391   3.205  43.318  0.3418 -0.9340 -0.6435
 2911TIP3    H130224   0.407   3.295  43.289  2.1748 -0.6526  0.9804
 2911TIP3    H230225   0.343   3.165  43.246 -1.2164  1.5366 -1.1071
 2912TIP3   OH230226   2.579   0.064  11.475  0.3114  1.0039  0.6283
 2912TIP3    H130227   2.599  -0.022  11.514  0.5084  1.0370  0.5991
 2912TIP3    H230228   2.546   0.116  11.549  0.2337  0.9176  0.6549
 2913TIP3   OH230229   3.025   1.284  32.828  0.4405  0.1580  0.3026
 2913TIP3    H130230   2.939   1.294  32.787 -0.1152  1.9497  1.7752
 2913TIP3    H230231   3.077   1.357  32.794  2.0178 -1.7927 -1.8333
 2914TIP3   OH230232   0.331   1.569   3.297  0.0160  0.0119 -0.4222
 2914TIP3    H130233   0.410   1.585   3.247  0.5213 -0.2061  0.2956
 2914TIP3    H230234   0.340   1.480   3.330  0.1431  0.4596  0.8236
 2915TIP3   OH230235   0.623   3.460  12.371 -0.2115  0.4164 -0.2645
 2915TIP3    H130236   0.675   3.450  12.291 -2.4032 -0.6807 -1.6592
 2915TIP3    H230237   0.575   3.378  12.378 -1.6911  1.3424  0.9584
 2916TIP3   OH230238   1.819   2.637  46.217 -0.3409  0.0410  0.1196
 2916TIP3    H130239   1.795   2.728  46.199  3.6652  1.3469  0.3664
 2916TIP3    H230240   1.818   2.595  46.132 -1.0026  0.6368 -0.1815
 2917TIP3   OH230241   3.170   2.125  18.740  0.1025 -0.4877 -0.6356
 2917TIP3    H130242   3.107   2.195  18.757 -0.9166 -1.3127 -0.9354
 2917TIP3    H230243   3.219   2.116  18.822  0.7996  1.0880 -0.8404
 2918TIP3   OH230244   0.013   2.750   8.036 -0.3825  0.1482 -0.0035
 2918TIP3    H130245   0.084   2.762   7.974 -1.7388 -1.5996 -2.0486
 2918TIP3    H230246  -0.063   2.790   7.995 -0.9662  0.4973  1.3499
 2919TIP3   OH230247   1.061   1.931  42.257  0.5189 -0.0189 -0.3939
 2919TIP3    H130248   1.058   2.015  42.211 -0.0917 -0.4537 -1.1723
 2919TIP3    H230249   0.983   1.933  42.313 -0.2967 -0.6498 -1.4806
 2920TIP3   OH230250   2.914   2.192  35.779 -0.0386 -0.4251 -0.2535
 2920TIP3    H130251   2.952   2.277  35.757  0.3323 -0.2435  0.9901
 2920TIP3    H230252   2.955   2.130  35.718  2.0244 -0.1753  0.7814
 2921TIP3   OH230253   2.779   3.430  30.699 -0.1877  0.0040 -0.4191
 2921TIP3    H130254   2.726   3.403  30.624 -0.1699 -1.3326  0.0336
 2921TIP3    H230255   2.824   3.351  30.727  1.9806  1.0642 -0.7111
 2922TIP3   OH230256   3.527   0.031  41.453  0.3009 -0.3947 -0.1385
 2922TIP3    H130257   3.540  -0.058  41.422 -1.2592 -0.1422 -1.6356
 2922TIP3    H230258   3.433   0.038  41.468  0.3686  1.0704 -0.2692
 2923TIP3   OH230259   3.335   0.127  45.504 -0.2925  0.3954  0.1486
 2923TIP3    H130260   3.370   0.207  45.463 -1.8432  0.5336 -0.9812
 2923TIP3    H230261   3.358   0.057  45.443 -1.7581  0.4662 -0.5262
 2924TIP3   OH230262   3.960   2.552  11.085 -0.0846 -0.8466  0.1571
 2924TIP3    H130263   4.022   2.494  11.129  0.8101 -0.1404 -0.1490
 2924TIP3    H230264   4.012   2.629  11.060 -1.3817  0.4461  1.2469
 2925TIP3   OH230265   3.448   0.646  42.274  0.5505 -0.2138 -1.0278
 2925TIP3    H130266   3.395   0.713  42.318  0.6568 -1.0741  0.4989
 2925TIP3    H230267   3.391   0.569  42.274  1.3935 -0.8582 -0.3073
 2926TIP3   OH230268   2.157   1.212  20.940  0.3643 -0.0077 -0.0798
 2926TIP3    H130269   2.192   1.126  20.920 -0.9120 -0.7754  0.8537
 2926TIP3    H230270   2.088   1.226  20.875  0.1574  0.0428  0.1498
 2927TIP3   OH230271   3.895   1.812  43.005 -0.4064  0.5213  0.1552
 2927TIP3    H130272   3.813   1.856  43.023 -0.2620  1.3026 -1.0135
 2927TIP3    H230273   3.959   1.883  42.993 -0.0177  0.0059 -1.0333
 2928TIP3   OH230274   1.611   3.679  13.185 -0.2535 -0.2977 -0.3812
 2928TIP3    H130275   1.595   3.713  13.097  0.9917  1.0344 -0.1147
 2928TIP3    H230276   1.687   3.727  13.216 -1.0690 -0.2594  1.6976
 2929TIP3   OH230277   1.020   3.712  41.544 -0.2013 -0.0976 -0.5824
 2929TIP3    H130278   1.065   3.788  41.508  1.3831 -0.8180 -0.1926
 2929TIP3    H230279   0.934   3.714  41.503  0.0182  1.5585 -1.0328
 2930TIP3   OH230280   1.191   3.942  39.974 -0.2325 -0.1548 -0.1287
 2930TIP3    H130281   1.247   3.886  40.029  0.3189 -0.1071 -0.6242
 2930TIP3    H230282   1.123   3.973  40.033  0.8536  0.6229  0.7654
 2931TIP3   OH230283   2.989   3.896  25.800 -0.2274  0.3600  0.0233
 2931TIP3    H130284   3.000   3.964  25.867 -0.6889 -0.7064  1.2241
 2931TIP3    H230285   3.017   3.815  25.843 -0.7002 -0.3768 -1.0180
 2932TIP3   OH230286   3.184   2.064  46.070  0.4458 -0.4169 -0.6659
 2932TIP3    H130287   3.246   2.131  46.099 -1.3989  0.2240  2.1344
 2932TIP3    H230288   3.105   2.112  46.046 -0.7657 -1.4862  0.9789
 2933TIP3   OH230289   2.732   3.438  10.503 -0.5356 -0.1309  0.3414
 2933TIP3    H130290   2.647   3.393  10.502 -1.9962  2.4247  0.6780
 2933TIP3    H230291   2.764   3.430  10.413 -2.3267  0.8857 -0.4476
 2934TIP3   OH230292   2.685   2.451  43.546 -0.2557  0.0680 -0.6953
 2934TIP3    H130293   2.770   2.427  43.509 -0.2438  0.9519 -1.2641
 2934TIP3    H230294   2.623   2.396  43.498 -0.0497 -0.3034 -0.5439
 2935TIP3   OH230295   0.227   2.742   5.540 -0.0357 -0.0067  0.6075
 2935TIP3    H130296   0.212   2.835   5.557  1.1405  0.2108  0.5343
 2935TIP3    H230297   0.264   2.708   5.621  3.7503  0.6122 -0.6360
 2936TIP3   OH230298   0.992   1.687   7.668  0.4811 -0.0332 -0.0928
 2936TIP3    H130299   0.997   1.609   7.723 -1.1145  0.6207  1.0736
 2936TIP3    H230300   1.081   1.721   7.665  0.5774  0.1381  2.4942
 2937TIP3   OH230301   2.242   1.802  36.737  0.2174 -0.1411 -0.1157
 2937TIP3    H130302   2.238   1.868  36.807 -0.2189  0.7029 -0.9062
 2937TIP3    H230303   2.162   1.751  36.749  0.7116 -0.7589  0.6967
 2938TIP3   OH230304   3.088   3.819  34.978  0.2117  0.4527 -0.0360
 2938TIP3    H130305   3.018   3.850  34.920 -0.0529  0.1290  0.1026
 2938TIP3    H230306   3.107   3.893  35.035  0.0109  0.5567 -0.1027
 2939TIP3   OH230307   2.355   0.348  40.942  0.5500 -0.6664  0.3072
 2939TIP3    H130308   2.435   0.368  40.990 -0.1294 -0.2881  1.3326
 2939TIP3    H230309   2.353   0.412  40.870  1.2755 -0.8400  0.1237
 2940TIP3   OH230310   1.388   1.589   3.694 -0.8038 -0.1237  0.5041
 2940TIP3    H130311   1.386   1.615   3.786 -3.5367 -0.5215  0.6493
 2940TIP3    H230312   1.349   1.663   3.647  2.4345  0.9766 -0.7088
 2941TIP3   OH230313   3.012   2.526  36.531 -0.0276 -0.4312  0.1848
 2941TIP3    H130314   3.035   2.573  36.450 -0.3481  0.9616  0.8673
 2941TIP3    H230315   2.953   2.457  36.503 -2.6156  1.8761 -0.4890
 2942TIP3   OH230316   1.574   0.479  10.538 -0.2141  0.4934 -0.4130
 2942TIP3    H130317   1.534   0.395  10.562 -0.7101  0.6940 -0.5318
 2942TIP3    H230318   1.568   0.481  10.443  0.8511  0.1475 -0.5024
 2943TIP3   OH230319   0.240   3.642  12.178  0.2268 -0.2536 -0.2146
 2943TIP3    H130320   0.205   3.588  12.107 -1.3900 -1.8239  1.6494
 2943TIP3    H230321   0.225   3.732  12.149  0.6319 -0.8143 -2.3147
 2944TIP3   OH230322   1.870   1.957  32.101  0.0011 -0.1087  0.0984
 2944TIP3    H130323   1.838   2.025  32.160  0.8700 -0.3429  0.8624
 2944TIP3    H230324   1.790   1.915  32.068 -0.5138  0.1717  0.9454
 2945TIP3   OH230325   2.485   0.581  31.287  0.0890 -0.1095  0.5570
 2945TIP3    H130326   2.422   0.556  31.355 -1.4762 -1.2882 -1.2295
 2945TIP3    H230327   2.445   0.658  31.246  0.0480 -0.5584 -0.2595
 2946TIP3   OH230328   1.693   0.729  45.530  0.5706  0.1412  0.4100
 2946TIP3    H130329   1.772   0.748  45.479  1.8137  1.7099  2.6905
 2946TIP3    H230330   1.623   0.723  45.465  1.5958  4.3490 -1.4282
 2947TIP3   OH230331   1.044   3.894  11.925 -0.6726 -0.5442 -0.1822
 2947TIP3    H130332   0.999   3.811  11.943 -1.1967 -0.1450  0.3978
 2947TIP3    H230333   1.049   3.937  12.011  0.0990 -0.2180 -0.3778
 2948TIP3   OH230334   0.473   1.588  37.284 -0.0395 -0.4276  0.0584
 2948TIP3    H130335   0.450   1.653  37.349  1.6750 -0.2936  0.6062
 2948TIP3    H230336   0.434   1.506  37.316  0.0415 -0.1834  0.7925
 2949TIP3   OH230337   0.627   2.295   9.979 -0.7282 -0.1207 -0.0199
 2949TIP3    H130338   0.672   2.233  10.038 -2.3091  0.3010  1.7297
 2949TIP3    H230339   0.697   2.351   9.947  0.3069 -0.7967  0.9457
 2950TIP3   OH230340   0.091   4.040  29.213 -0.6144  0.0342 -0.0378
 2950TIP3    H130341   0.097   4.081  29.299 -0.4418 -0.1010  0.0172
 2950TIP3    H230342   0.004   4.064  29.181 -1.2448 -1.0622  0.7715
 2951TIP3   OH230343   1.700   1.456  38.602  0.0788 -0.3937 -0.8775
 2951TIP3    H130344   1.791   1.477  38.585 -0.1160  1.5851  0.3182
 2951TIP3    H230345   1.700   1.415  38.689 -0.2657  0.5170 -0.4384
 2952TIP3   OH230346   3.787   1.938  45.097  0.2319  0.1427 -0.1049
 2952TIP3    H130347   3.780   1.916  45.190 -0.6302 -2.2791 -0.6790
 2952TIP3    H230348   3.849   2.011  45.095  1.5271 -0.7852  2.2224
 2953TIP3   OH230349   2.141   1.948  33.490  0.0560  0.1160 -0.2155
 2953TIP3    H130350   2.202   2.016  33.519  2.5184 -1.1303 -2.0972
 2953TIP3    H230351   2.116   1.975  33.402  1.1907 -1.4182 -1.0436
 2954TIP3   OH230352   1.530   1.890  38.381 -0.0045 -0.6106  0.0911
 2954TIP3    H130353   1.566   1.902  38.469 -1.8638  0.7078  0.7362
 2954TIP3    H230354   1.607   1.887  38.324  1.1730  0.6676  1.5293
 2955TIP3   OH230355   1.915   3.815  44.347  0.0544  0.2707  0.3553
 2955TIP3    H130356   1.968   3.893  44.327  1.5178 -0.7719  0.0020
 2955TIP3    H230357   1.927   3.802  44.441  1.8201 -0.8907  0.0169
 2956TIP3   OH230358   2.777   1.062   3.295 -0.3479 -0.3253 -0.1759
 2956TIP3    H130359   2.722   1.130   3.333 -0.0662 -0.2462  0.0952
 2956TIP3    H230360   2.862   1.104   3.283 -0.4722 -0.3115 -1.0247
 2957TIP3   OH230361   0.559   0.930  14.148  0.2406  0.6815  0.2655
 2957TIP3    H130362   0.619   0.992  14.190  1.1579 -1.2742  2.0684
 2957TIP3    H230363   0.532   0.872  14.219 -4.4378  1.7945 -0.2424
 2958TIP3   OH230364   1.956   1.321   5.017  0.2767 -0.1022  0.3736
 2958TIP3    H130365   1.877   1.352   4.973 -0.2322  0.4250  1.6032
 2958TIP3    H230366   2.027   1.367   4.974  0.1583 -1.9607 -2.0197
 2959TIP3   OH230367   3.040   2.566   0.254 -0.3374  0.0329  0.3910
 2959TIP3    H130368   3.049   2.619   0.333  2.1297 -0.5230  0.5908
 2959TIP3    H230369   3.010   2.480   0.285  1.9496 -0.6279  1.0334
 2960TIP3   OH230370   0.751   3.326   0.221  0.0020 -0.4181 -0.6864
 2960TIP3    H130371   0.845   3.342   0.225  0.2225 -1.8793  0.8549
 2960TIP3    H230372   0.730   3.332   0.127  1.8109 -1.0334 -1.1710
 2961TIP3   OH230373   0.438   0.109   6.220  0.2071 -0.3349 -0.0034
 2961TIP3    H130374   0.511   0.164   6.193  0.2069 -1.8583 -3.7094
 2961TIP3    H230375   0.360   0.164   6.204  0.3517 -0.3702 -0.9127
 2962TIP3   OH230376   2.931   3.790  45.290  0.1946  0.5747 -0.0248
 2962TIP3    H130377   2.849   3.825  45.256 -0.5603  0.0732  1.2134
 2962TIP3    H230378   2.973   3.864  45.333  0.3527  0.8070 -0.5726
 2963TIP3   OH230379   0.949   3.223  37.359 -0.1746  0.0903  0.0288
 2963TIP3    H130380   0.946   3.315  37.331 -0.4160  0.7334  1.9998
 2963TIP3    H230381   0.873   3.213  37.416 -1.0089 -1.7977 -1.3083
 2964TIP3   OH230382   1.759   1.096  11.067  0.2436  0.0924  0.2800
 2964TIP3    H130383   1.672   1.122  11.098 -0.1966  0.3456 -1.1011
 2964TIP3    H230384   1.800   1.178  11.040  0.2472 -0.2115 -0.6661
 2965TIP3   OH230385   3.212   0.635   9.484  0.2333  0.4697  0.4369
 2965TIP3    H130386   3.287   0.601   9.533 -0.1252 -0.4241  0.3956
 2965TIP3    H230387   3.233   0.617   9.392 -0.1598 -0.0902  0.4463
 2966TIP3   OH230388   3.428   2.899   5.388 -0.1780 -0.5135 -0.0361
 2966TIP3    H130389   3.418   2.993   5.396 -0.9401 -0.5939  0.0562
 2966TIP3    H230390   3.395   2.864   5.471  2.8816 -0.7220  1.2008
 2967TIP3   OH230391   0.207   1.147  38.288 -0.1596 -0.3157 -0.3172
 2967TIP3    H130392   0.172   1.236  38.277  2.2320  0.5045 -2.1266
 2967TIP3    H230393   0.193   1.105  38.203  1.3472 -0.6459 -0.4214
 2968TIP3   OH230394   2.894   1.827  32.932  0.0444 -0.0064  0.1408
 2968TIP3    H130395   2.846   1.893  32.882  0.0795 -0.1314 -0.0566
 2968TIP3    H230396   2.833   1.800  33.000 -0.3142 -0.4480 -0.3484
 2969TIP3   OH230397   0.067   1.098  18.746 -0.1825 -0.0813  0.8172
 2969TIP3    H130398   0.068   1.114  18.651 -0.9653 -1.5388  0.5326
 2969TIP3    H230399   0.145   1.144  18.778  0.0416  0.5337 -0.5121
 2970TIP3   OH230400   0.389   1.775  16.930 -0.2943  0.9302 -0.2135
 2970TIP3    H130401   0.464   1.832  16.913  0.9370  0.5122  3.0807
 2970TIP3    H230402   0.316   1.836  16.945 -0.7554  1.3386 -3.4292
 2971TIP3   OH230403   3.703   3.424   3.863  0.2060 -0.0738 -0.3898
 2971TIP3    H130404   3.671   3.496   3.809 -1.1808  0.4987  1.1360
 2971TIP3    H230405   3.786   3.455   3.899  0.1855  0.2837 -0.6492
 2972TIP3   OH230406   2.691   2.304  11.694  0.2300 -0.2960  0.0759
 2972TIP3    H130407   2.769   2.260  11.662  1.3019  1.2516  0.4521
 2972TIP3    H230408   2.673   2.372  11.629  0.0043  0.2194  0.6637
 2973TIP3   OH230409   1.504   1.315  17.607 -0.7071 -0.0731 -0.3606
 2973TIP3    H130410   1.572   1.350  17.548 -1.5434  1.0040 -0.7134
 2973TIP3    H230411   1.427   1.305  17.551 -1.0977 -0.4283  0.2364
 2974TIP3   OH230412   3.129   3.372  41.697  0.4294 -0.3959 -0.1653
 2974TIP3    H130413   3.069   3.385  41.771  1.1154 -1.0016  0.5239
 2974TIP3    H230414   3.203   3.325  41.735  0.0324 -2.2754 -1.5890
 2975TIP3   OH230415   2.020   0.356  38.419  0.5755 -0.0873 -0.1862
 2975TIP3    H130416   1.985   0.269  38.405  0.8383 -0.3985  0.9721
 2975TIP3    H230417   1.984   0.383  38.504  1.3272  0.4982 -0.0406
 2976TIP3   OH230418   1.740   1.529  32.362  0.0342  0.4789 -0.2153
 2976TIP3    H130419   1.760   1.571  32.279  0.7936  0.1146 -0.2295
 2976TIP3    H230420   1.809   1.560  32.422 -1.0921  1.5603  0.5767
 2977TIP3   OH230421   1.514   0.421  39.408  0.1723  0.1713  0.0327
 2977TIP3    H130422   1.537   0.462  39.324 -0.5447 -3.6976 -2.3446
 2977TIP3    H230423   1.512   0.327  39.388 -0.7893 -0.9001  4.2786
 2978TIP3   OH230424   2.358   2.781  41.249 -0.3162 -0.3443 -0.5273
 2978TIP3    H130425   2.407   2.863  41.234  0.5817 -0.7763 -0.0671
 2978TIP3    H230426   2.425   2.713  41.245 -1.2255 -1.2035 -2.1213
 2979TIP3   OH230427   3.154   0.559  11.611 -0.0470  0.0359  0.0268
 2979TIP3    H130428   3.218   0.629  11.600 -0.3512  0.2002 -0.7428
 2979TIP3    H230429   3.159   0.537  11.704  0.7909  0.3611  0.0686
 2980TIP3   OH230430   3.413   0.043  45.237 -0.0846  0.3992  0.0693
 2980TIP3    H130431   3.481  -0.024  45.244 -0.6519 -0.2203 -0.2570
 2980TIP3    H230432   3.451   0.109  45.178  0.5257  0.4386  0.5014
 2981TIP3   OH230433   0.558   0.361  13.308 -0.1530 -0.7548 -0.2242
 2981TIP3    H130434   0.642   0.392  13.274 -1.0049 -0.0878 -1.8417
 2981TIP3    H230435   0.495   0.381  13.238 -1.9437  0.2052  1.5541
 2982TIP3   OH230436   1.352   0.147   1.601  0.1387  0.0577  0.1762
 2982TIP3    H130437   1.409   0.190   1.539  0.6118 -1.2369 -0.3191
 2982TIP3    H230438   1.363   0.053   1.584 -0.5224 -0.2966  1.4884
 2983TIP3   OH230439   0.646   2.302   9.149  0.6602 -0.0095 -0.4909
 2983TIP3    H130440   0.740   2.295   9.132  0.8889  0.4231  0.4944
 2983TIP3    H230441   0.622   2.218   9.187  0.8672  0.2107  0.1512
 2984TIP3   OH230442   1.920   2.405  35.494 -0.4014  0.4607  0.1031
 2984TIP3    H130443   1.969   2.356  35.560  0.4287  1.1314  0.0054
 2984TIP3    H230444   1.837   2.425  35.536 -0.1387  0.3051  0.7082
 2985TIP3   OH230445   2.795   1.082  36.106  0.1968 -0.1414 -0.2372
 2985TIP3    H130446   2.841   1.160  36.075 -2.0096  0.6162 -1.8963
 2985TIP3    H230447   2.863   1.016  36.115  1.8072  1.3369 -0.9867
 2986TIP3   OH230448   2.452   1.017  46.587  0.0128  0.0354 -0.4964
 2986TIP3    H130449   2.421   0.957  46.656  0.1667  0.3787 -0.1305
 2986TIP3    H230450   2.438   0.968  46.506 -0.5062 -0.2332 -0.2527
 2987TIP3   OH230451   2.252   3.270   8.122 -0.4147 -0.2513 -0.5817
 2987TIP3    H130452   2.161   3.266   8.152 -0.6826 -0.3183 -1.3843
 2987TIP3    H230453   2.301   3.218   8.187 -1.0545 -0.8125 -0.5327
 2988TIP3   OH230454   4.012   2.273   6.124  0.2961 -0.4470  0.1641
 2988TIP3    H130455   3.939   2.301   6.069  1.6765  0.0780 -1.5406
 2988TIP3    H230456   3.987   2.188   6.158  0.0143 -1.6202 -2.7225
 2989TIP3   OH230457   2.910   4.098   1.714  0.1942 -0.3194  0.4447
 2989TIP3    H130458   2.989   4.062   1.753  0.6384 -0.1178 -0.2355
 2989TIP3    H230459   2.918   4.077   1.620 -1.1760 -1.4244  0.5322
 2990TIP3   OH230460   1.299   1.789  41.340 -0.0884  0.4517 -0.2864
 2990TIP3    H130461   1.379   1.801  41.389 -0.6625  0.2650  0.7184
 2990TIP3    H230462   1.317   1.827  41.254  0.8730  0.9171  0.1148
 2991TIP3   OH230463   0.586   0.506  37.238  0.3163 -0.2717 -0.2868
 2991TIP3    H130464   0.658   0.498  37.301 -0.3867 -2.2480  0.3338
 2991TIP3    H230465   0.613   0.577  37.180  2.2956 -0.2983  0.5237
 2992TIP3   OH230466   1.304   1.365  17.435  0.0647  0.3050 -0.1121
 2992TIP3    H130467   1.308   1.331  17.346 -0.8793  1.2987 -0.5597
 2992TIP3    H230468   1.212   1.388  17.448  0.0498 -0.4562  1.3775
 2993TIP3   OH230469   2.064   0.522  43.503  0.1901  0.4859 -0.4323
 2993TIP3    H130470   1.985   0.548  43.457 -1.0597 -1.2268  0.6071
 2993TIP3    H230471   2.117   0.476  43.437 -0.6581 -0.1892 -0.6584
 2994TIP3   OH230472   0.951   0.284  46.153 -0.3905  0.6556  0.0681
 2994TIP3    H130473   1.047   0.288  46.151 -0.2750 -0.6086  1.9305
 2994TIP3    H230474   0.929   0.218  46.087  0.1366 -0.3687  0.8943
 2995TIP3   OH230475   1.148   1.597   5.634 -0.2006 -0.1146  0.1675
 2995TIP3    H130476   1.101   1.679   5.649 -0.3491 -0.5026  2.1446
 2995TIP3    H230477   1.240   1.620   5.647 -0.1488 -0.0388 -0.3427
 2996TIP3   OH230478   0.646   4.056  46.595 -0.3353  0.5750  0.0846
 2996TIP3    H130479   0.607   4.143  46.588 -0.1423  0.5474 -1.8491
 2996TIP3    H230480   0.571   3.996  46.598 -0.4671  0.7724  1.3921
 2997TIP3   OH230481   1.712   2.219  20.328  0.8011 -0.0237 -0.5192
 2997TIP3    H130482   1.658   2.182  20.258  0.5961 -1.4927  0.3914
 2997TIP3    H230483   1.791   2.164  20.329  0.3477 -0.6898  1.0670
 2998TIP3   OH230484   2.986   4.081   6.815  0.3362 -0.3356 -0.3567
 2998TIP3    H130485   2.901   4.124   6.822  0.1305 -0.8104  0.1298
 2998TIP3    H230486   2.992   4.055   6.723  0.1428  0.0709 -0.4885
 2999TIP3   OH230487   1.548   2.905  40.285  0.0635  0.1802 -0.1092
 2999TIP3    H130488   1.499   2.853  40.221 -0.7611 -1.0106  1.4234
 2999TIP3    H230489   1.640   2.885  40.268 -0.2525 -2.6323  1.0755
 3000TIP3   OH230490   4.027   2.413   7.851  0.2634  0.4685  0.0830
 3000TIP3    H130491   4.076   2.464   7.915 -0.7599  1.3104  0.2279
 3000TIP3    H230492   4.057   2.323   7.864  0.3278  0.6706  1.5346
 3001TIP3   OH230493   1.784   2.149   4.618  0.1759 -0.3126 -0.4162
 3001TIP3    H130494   1.812   2.111   4.535 -2.4279 -1.2069 -0.9638
 3001TIP3    H230495   1.789   2.244   4.604 -3.7259 -0.2647 -3.0699
 3002TIP3   OH230496   3.535   3.516  27.529  0.0608  0.2555 -0.2267
 3002TIP3    H130497   3.477   3.577  27.483  0.1984  0.7577  0.2516
 3002TIP3    H230498   3.548   3.444  27.467  0.8279  1.2461 -1.2725
 3003TIP3   OH230499   2.605   1.669  39.715  0.0631  0.1705  0.0755
 3003TIP3    H130500   2.536   1.674  39.781 -0.3221 -1.9126 -0.1263
 3003TIP3    H230501   2.669   1.607  39.751  0.2947 -0.3005 -1.1090
 3004TIP3   OH230502   2.285   2.142  15.830 -0.0805  0.8522  0.0155
 3004TIP3    H130503   2.230   2.191  15.891 -0.6685  0.6737 -0.3613
 3004TIP3    H230504   2.373   2.149  15.866 -0.7419 -1.3355  2.2560
 3005TIP3   OH230505   3.206   0.064  47.423  0.4041 -0.7343 -0.0683
 3005TIP3    H130506   3.211  -0.032  47.419  0.7963 -0.7001 -0.6196
 3005TIP3    H230507   3.150   0.088  47.349  0.6244 -0.5135 -0.1628
 3006TIP3   OH230508   0.185   2.776   7.527 -0.3714  0.1877  0.1401
 3006TIP3    H130509   0.171   2.753   7.619 -0.4428 -0.7480 -0.0995
 3006TIP3    H230510   0.266   2.730   7.503 -0.2754  0.5449 -0.2263
 3007TIP3   OH230511   0.870   0.136   6.610  0.5621  0.1128 -0.4177
 3007TIP3    H130512   0.870   0.220   6.654 -0.6474  0.6678 -1.4082
 3007TIP3    H230513   0.920   0.151   6.530  0.1963 -0.0508 -0.6819
 3008TIP3   OH230514   0.399   3.277   5.634  0.1896 -0.4440 -0.2144
 3008TIP3    H130515   0.448   3.258   5.554  0.6349 -0.7643  0.1261
 3008TIP3    H230516   0.450   3.234   5.703 -1.1188 -1.6756  0.0330
 3009TIP3   OH230517   1.474   3.009  14.894 -0.4752 -0.1190  0.1734
 3009TIP3    H130518   1.418   2.971  14.827 -1.5628 -0.1488  1.0637
 3009TIP3    H230519   1.563   3.002  14.859 -1.0704  0.5011 -1.5549
 3010TIP3   OH230520   2.194   0.358  10.047 -0.3745  0.0558  0.1366
 3010TIP3    H130521   2.263   0.409  10.090 -2.2054  2.9448 -0.0744
 3010TIP3    H230522   2.237   0.319   9.972  1.2533  1.0241  0.5074
 3011TIP3   OH230523   0.214   2.854  46.461  0.1239 -0.0208  0.0647
 3011TIP3    H130524   0.234   2.880  46.371  2.5382 -0.2076  0.4862
 3011TIP3    H230525   0.280   2.788  46.483  0.0139  0.4879  2.1772
 3012TIP3   OH230526   2.453   2.633  31.130  0.3419  0.2072 -0.0757
 3012TIP3    H130527   2.429   2.724  31.114  0.7119  0.4085  0.5165
 3012TIP3    H230528   2.394   2.604  31.199  0.7503  0.2365  0.2893
 3013TIP3   OH230529   0.008   3.536   3.264  0.3896 -0.6689 -0.3840
 3013TIP3    H130530   0.031   3.575   3.179  0.9625 -0.4676 -0.1425
 3013TIP3    H230531  -0.067   3.588   3.294  1.7215  0.9082  0.3636
 3014TIP3   OH230532   2.215   2.208  20.218  0.1561 -0.5056  0.7702
 3014TIP3    H130533   2.134   2.199  20.269 -0.1637 -0.5215  0.2733
 3014TIP3    H230534   2.247   2.295  20.239  0.4171 -0.7833  1.5488
 3015TIP3   OH230535   2.453   2.860  38.237  0.7368  0.2012  0.1178
 3015TIP3    H130536   2.364   2.824  38.246  0.2627  1.7303  2.3353
 3015TIP3    H230537   2.452   2.906  38.153 -0.7507  0.5961  0.3243
 3016TIP3   OH230538   0.391   1.871  42.623 -0.4223  0.5012 -0.0645
 3016TIP3    H130539   0.476   1.874  42.667  1.2445  0.0635 -2.9935
 3016TIP3    H230540   0.383   1.780  42.594 -1.7428  0.6284 -0.1621
 3017TIP3   OH230541   0.596   1.275  47.241  0.0499  0.2312 -0.3050
 3017TIP3    H130542   0.583   1.351  47.184  1.2937  2.9211  2.6556
 3017TIP3    H230543   0.691   1.266  47.247  0.0409  1.1521  2.5264
 3018TIP3   OH230544   2.878   3.105  15.101 -0.1720  0.0758 -0.9844
 3018TIP3    H130545   2.810   3.157  15.145  1.0852  1.6046 -0.7570
 3018TIP3    H230546   2.874   3.134  15.009  2.3835  2.8358 -0.3767
 3019TIP3   OH230547   0.409   2.703  35.666  0.5874 -0.1742  0.0928
 3019TIP3    H130548   0.415   2.766  35.738  0.6702 -0.6246  0.4833
 3019TIP3    H230549   0.444   2.750  35.591  2.0198 -0.2285  0.6979
 3020TIP3   OH230550   3.396   0.404  45.879  0.5262  0.6226 -0.6715
 3020TIP3    H130551   3.318   0.434  45.832 -0.5572 -0.0155  0.6604
 3020TIP3    H230552   3.463   0.470  45.858 -0.2556  1.0074 -2.0966
 3021TIP3   OH230553   2.461   1.985  12.887 -0.1980  0.0660 -0.0580
 3021TIP3    H130554   2.420   2.007  12.803 -0.9899 -0.1651  0.2609
 3021TIP3    H230555   2.438   1.893  12.902 -2.5433  0.8302  1.7541
 3022TIP3   OH230556   2.191   1.846   6.996 -0.1556  0.2637  0.4091
 3022TIP3    H130557   2.196   1.906   6.922  2.9973 -0.7431 -0.3672
 3022TIP3    H230558   2.178   1.902   7.072 -0.1002  1.6514 -0.5722
 3023TIP3   OH230559   1.854   0.693  35.236 -0.5209  0.3664 -0.5605
 3023TIP3    H130560   1.850   0.647  35.152 -2.3610 -0.8513  0.1408
 3023TIP3    H230561   1.818   0.632  35.300 -0.2665  1.6979  0.9418
 3024TIP3   OH230562   1.088   3.407  37.692 -0.0326  0.4612  0.0973
 3024TIP3    H130563   1.009   3.388  37.642 -0.3924 -2.8685  1.6796
 3024TIP3    H230564   1.063   3.478  37.751 -1.7236 -0.1959  0.2240
 3025TIP3   OH230565   1.968   1.443  32.055 -0.0842 -0.3223  0.0643
 3025TIP3    H130566   2.041   1.502  32.073 -0.2033  0.5658 -2.0472
 3025TIP3    H230567   1.891   1.488  32.088  0.1365 -0.6049  0.9918
 3026TIP3   OH230568   2.162   3.855  29.942 -0.2128 -0.0779 -0.9515
 3026TIP3    H130569   2.241   3.879  29.893 -0.9621  1.0182 -1.6597
 3026TIP3    H230570   2.102   3.821  29.875 -1.3547  1.6882 -0.8871
 3027TIP3   OH230571   0.937   0.662   9.204  0.1018  0.0247 -0.0062
 3027TIP3    H130572   0.881   0.593   9.239 -0.4023 -0.3444 -1.4716
 3027TIP3    H230573   0.941   0.728   9.274 -1.6909 -0.2015  0.3467
 3028TIP3   OH230574   0.248   1.252   4.872 -0.5666 -0.1018 -0.2957
 3028TIP3    H130575   0.177   1.317   4.865 -1.5604 -1.2678 -1.5328
 3028TIP3    H230576   0.325   1.304   4.894 -1.4201  1.4589 -0.7936
 3029TIP3   OH230577   0.945   4.035  43.843  0.5106  0.2280  0.3948
 3029TIP3    H130578   0.961   3.975  43.916  0.2545 -0.9345 -0.4759
 3029TIP3    H230579   0.862   4.006  43.806  0.5302  0.9354 -0.2313
 3030TIP3   OH230580   3.372   4.070  35.231  0.5162  0.2834 -0.0539
 3030TIP3    H130581   3.457   4.026  35.227  0.9898  1.1936 -0.2038
 3030TIP3    H230582   3.394   4.163  35.237 -0.4615  0.4742  0.7690
 3031TIP3   OH230583   3.029   3.541  12.763 -0.0311  0.2998  0.1196
 3031TIP3    H130584   2.967   3.557  12.691  1.2968  1.3226 -0.8570
 3031TIP3    H230585   3.102   3.600  12.745 -0.2023  1.5852  3.0483
 3032TIP3   OH230586   1.070   1.078  38.175 -0.2646 -0.3380 -0.1250
 3032TIP3    H130587   1.084   1.120  38.260  1.2985 -2.4958  0.7904
 3032TIP3    H230588   1.057   1.150  38.114 -2.8324  1.2488  2.1161
 3033TIP3   OH230589   4.041   3.596  11.438 -0.3383  0.8127  0.4308
 3033TIP3    H130590   3.968   3.603  11.377  1.0403  1.3576 -1.2663
 3033TIP3    H230591   4.052   3.502  11.452 -0.6457  0.6718 -0.2370
 3034TIP3   OH230592   1.815   0.020   8.269 -0.7915 -0.7424 -0.2227
 3034TIP3    H130593   1.774  -0.018   8.348  1.3586  2.4928  2.7591
 3034TIP3    H230594   1.909   0.014   8.286 -0.3108  1.5581 -1.7378
 3035TIP3   OH230595   2.623   0.900  31.060 -0.3967 -0.5100  0.2220
 3035TIP3    H130596   2.679   0.965  31.018  0.3941  0.5630  2.7334
 3035TIP3    H230597   2.676   0.820  31.062 -0.6081 -0.6950 -1.1275
 3036TIP3   OH230598   2.074   3.978   8.612  0.6020 -0.1625 -0.1741
 3036TIP3    H130599   2.154   4.025   8.590  0.6016 -0.8363 -1.7744
 3036TIP3    H230600   2.066   3.911   8.544 -1.9950  0.7054 -0.8474
 3037TIP3   OH230601   0.065   0.307  39.314  0.2464  0.6796 -0.2020
 3037TIP3    H130602  -0.026   0.298  39.342  0.6665 -1.3762  0.6421
 3037TIP3    H230603   0.059   0.344  39.226 -1.5091 -1.3012 -0.9890
 3038TIP3   OH230604   0.526   1.204  32.844 -0.1532 -0.2887  0.6905
 3038TIP3    H130605   0.555   1.191  32.934  0.7105  0.8950  0.6195
 3038TIP3    H230606   0.523   1.117  32.806  0.1000 -0.7379  1.6831
 3039TIP3   OH230607   2.931   0.253   8.760  0.2933 -0.1088 -0.0922
 3039TIP3    H130608   2.863   0.205   8.808 -0.6542  0.1668 -1.0974
 3039TIP3    H230609   2.984   0.294   8.827 -1.0661  0.3726  0.7232
 3040TIP3   OH230610   0.802   1.839   3.194 -0.1264  0.2930 -0.1598
 3040TIP3    H130611   0.790   1.887   3.276  1.7508 -0.7227  0.7744
 3040TIP3    H230612   0.895   1.815   3.194 -0.8546 -2.9263 -0.7937
 3041TIP3   OH230613   2.928   2.674  40.327  0.6061 -0.6586  0.0452
 3041TIP3    H130614   2.915   2.769  40.325 -0.3028 -0.7868 -1.2640
 3041TIP3    H230615   3.023   2.663  40.321  0.6538  0.1691 -1.2966
 3042TIP3   OH230616   0.290   1.533  40.566  0.1221 -0.2426  0.1854
 3042TIP3    H130617   0.362   1.485  40.524  0.3561 -0.3481  0.6942
 3042TIP3    H230618   0.215   1.474  40.560  0.1640 -0.2702 -0.0566
 3043TIP3   OH230619   1.346   0.345   2.455 -0.2539 -0.7336 -0.8592
 3043TIP3    H130620   1.270   0.384   2.412  0.1153 -0.6320 -1.4362
 3043TIP3    H230621   1.311   0.302   2.533 -0.8557 -0.4202 -0.9533
 3044TIP3   OH230622   0.157   0.947  47.354 -0.1009  0.5488 -0.4054
 3044TIP3    H130623   0.196   0.960  47.440 -0.4779  0.8834 -0.2816
 3044TIP3    H230624   0.229   0.915  47.299 -0.4027 -2.2810  0.6710
 3045TIP3   OH230625   2.915   0.172   9.938  0.0991  0.4781  0.2094
 3045TIP3    H130626   2.964   0.115   9.997 -1.4448 -0.6451  0.4453
 3045TIP3    H230627   2.882   0.115   9.869  0.7845  1.5597 -1.0780
 3046TIP3   OH230628   3.068   0.120  30.097 -0.7107 -0.0901  0.4141
 3046TIP3    H130629   3.119   0.193  30.133 -2.3438  0.2830  2.1027
 3046TIP3    H230630   3.134   0.053  30.078  0.7846  1.6037 -0.7897
 3047TIP3   OH230631   0.424   0.969   6.962  0.3455  0.2826  0.1876
 3047TIP3    H130632   0.397   1.032   7.029  0.0275 -0.2888  0.6119
 3047TIP3    H230633   0.513   0.995   6.938  0.4667  0.4924  0.8491
 3048TIP3   OH230634   1.911   2.084  31.651 -0.4117 -0.5893 -0.2078
 3048TIP3    H130635   1.832   2.086  31.706 -0.3588  0.4969 -0.1476
 3048TIP3    H230636   1.878   2.067  31.563 -1.0886  2.5534 -0.6939
 3049TIP3   OH230637   3.315   0.019  26.527  0.0944 -0.2349  0.0683
 3049TIP3    H130638   3.359   0.087  26.475 -1.3178  1.2572  0.7542
 3049TIP3    H230639   3.370   0.009  26.605  1.9260 -2.0951 -1.3230
 3050TIP3   OH230640   1.374   3.308   3.027 -0.4209 -0.1115  0.1938
 3050TIP3    H130641   1.346   3.379   3.084  2.3429  1.0043  0.3122
 3050TIP3    H230642   1.450   3.343   2.980  0.3498 -2.6189 -0.5922
 3051TIP3   OH230643   0.534   2.676  13.451 -0.4275 -0.2456 -0.0009
 3051TIP3    H130644   0.475   2.713  13.516 -1.5699 -0.5616 -0.8294
 3051TIP3    H230645   0.612   2.651  13.500 -1.8197 -1.8244  1.5184
 3052TIP3   OH230646   3.370   2.452  15.784  0.1709 -0.1219  0.2769
 3052TIP3    H130647   3.276   2.441  15.769  0.1564  0.5370 -0.1555
 3052TIP3    H230648   3.376   2.522  15.848  0.3287 -1.2248  1.5087
 3053TIP3   OH230649   2.672   2.161  44.018  0.0025  0.2235 -0.1581
 3053TIP3    H130650   2.730   2.194  43.950  0.5642 -0.9562 -0.2829
 3053TIP3    H230651   2.728   2.107  44.074 -0.9198 -0.7946 -0.1765
 3054TIP3   OH230652   1.506   1.087   0.850  0.1183 -0.3277 -0.0891
 3054TIP3    H130653   1.525   1.163   0.905 -0.7416 -0.1284 -0.0467
 3054TIP3    H230654   1.437   1.117   0.790 -0.8505 -1.3152  0.4935
 3055TIP3   OH230655   2.234   0.464  33.726  0.4425  0.2993 -0.7670
 3055TIP3    H130656   2.237   0.410  33.805 -1.1835  0.1572 -0.7792
 3055TIP3    H230657   2.311   0.437  33.676  0.1459 -1.3689 -0.3668
 3056TIP3   OH230658   3.288   0.155   6.041  0.8243  0.5430  0.0652
 3056TIP3    H130659   3.242   0.082   6.082  1.8044 -0.8309 -1.1702
 3056TIP3    H230660   3.218   0.207   6.001  0.1292  0.1516  0.7451
 3057TIP3   OH230661   2.176   0.519   6.275 -0.0529  0.6173 -0.5507
 3057TIP3    H130662   2.109   0.584   6.295 -2.5882 -0.9414 -3.2679
 3057TIP3    H230663   2.156   0.445   6.332 -0.3629  0.3265 -1.0335
 3058TIP3   OH230664   1.557   2.398   1.274  0.0485 -0.1382 -0.6283
 3058TIP3    H130665   1.579   2.393   1.367 -0.3060  2.1397 -0.3715
 3058TIP3    H230666   1.462   2.410   1.273  0.3615  3.4021 -1.0092
 3059TIP3   OH230667   2.210   2.529   3.744  0.3706 -0.2272 -0.0682
 3059TIP3    H130668   2.123   2.563   3.766 -0.0996 -1.5674  0.2271
 3059TIP3    H230669   2.258   2.606   3.714 -0.7388  0.6437  0.2886
 3060TIP3   OH230670   2.337   2.017  44.837  0.5712 -0.1325  0.1676
 3060TIP3    H130671   2.382   2.055  44.912 -0.9532  1.4067  0.3603
 3060TIP3    H230672   2.344   1.922  44.850  1.5267  0.0914  1.4926
 3061TIP3   OH230673   3.715   2.881  43.824 -1.0634  0.1976 -0.4278
 3061TIP3    H130674   3.698   2.975  43.818  0.0866  0.5384  1.1435
 3061TIP3    H230675   3.631   2.843  43.852 -0.7443  1.1944  2.1004
 3062TIP3   OH230676   3.418   3.987   3.070 -0.5631  0.5819 -0.0604
 3062TIP3    H130677   3.324   3.983   3.082 -0.4034 -0.8451  0.8708
 3062TIP3    H230678   3.452   4.028   3.150 -0.3377  0.4846 -0.1037
 3063TIP3   OH230679   3.802   1.909  16.099 -0.3783 -0.4233  0.3460
 3063TIP3    H130680   3.761   1.844  16.041  2.5135 -1.4105 -0.7641
 3063TIP3    H230681   3.833   1.857  16.173  1.4183 -0.2970 -0.2632
 3064TIP3   OH230682   1.532   1.652  15.454 -0.0752 -0.3741  0.0240
 3064TIP3    H130683   1.518   1.559  15.437 -2.1458  0.0564 -0.9290
 3064TIP3    H230684   1.542   1.658  15.549  1.5127 -1.6884 -0.0097
 3065TIP3   OH230685   1.531   2.961   4.362  0.7132  0.2501 -0.0758
 3065TIP3    H130686   1.468   2.967   4.434  2.1344  0.3235  1.2002
 3065TIP3    H230687   1.567   3.049   4.355  2.7791 -0.4292  1.2110
 3066TIP3   OH230688   3.739   1.571  41.309 -0.5066  0.0053  0.0415
 3066TIP3    H130689   3.739   1.484  41.267 -0.3540 -0.4005  0.8600
 3066TIP3    H230690   3.826   1.606  41.291  0.5416 -1.2730  2.1883
 3067TIP3   OH230691   2.993   1.283  36.534  0.2553 -0.5519  0.2252
 3067TIP3    H130692   3.022   1.374  36.542 -0.3115 -0.3670  0.2290
 3067TIP3    H230693   2.900   1.290  36.516  0.0494 -1.1521  1.0313
 3068TIP3   OH230694   3.200   3.531  25.254 -0.0416  0.3773  0.2868
 3068TIP3    H130695   3.278   3.476  25.252 -1.1071 -1.2995  1.6050
 3068TIP3    H230696   3.166   3.529  25.165  1.0138  0.5189 -0.1211
 3069TIP3   OH230697   3.560   0.127  32.710  0.2515  0.3954  0.1019
 3069TIP3    H130698   3.646   0.085  32.707 -0.4209 -1.0160 -1.6536
 3069TIP3    H230699   3.517   0.087  32.786  0.7481  0.2811  0.3276
 3070TIP3   OH230700   3.346   3.383  13.041  0.2734  0.0703  0.4986
 3070TIP3    H130701   3.273   3.347  12.988  0.3804 -0.0614  0.4396
 3070TIP3    H230702   3.386   3.306  13.081  0.9833  0.0430 -0.2382
 3071TIP3   OH230703   0.108   1.352   5.109  0.4251 -0.1257  0.3001
 3071TIP3    H130704   0.161   1.426   5.078  2.6730 -0.4784  2.8683
 3071TIP3    H230705   0.038   1.392   5.159  1.1475  0.3230  0.9791
 3072TIP3   OH230706   4.099   1.612  32.469  0.2941  0.1577  0.1967
 3072TIP3    H130707   4.191   1.626  32.445  1.2568 -3.5828  0.9681
 3072TIP3    H230708   4.099   1.614  32.565 -0.3550 -0.1697  0.2079
 3073TIP3   OH230709   1.947   0.697   5.454  0.6316  0.0760  0.1774
 3073TIP3    H130710   1.975   0.785   5.430 -0.1540 -0.1812 -1.8353
 3073TIP3    H230711   2.023   0.642   5.436  0.5323  0.0933 -0.2946
 3074TIP3   OH230712   0.129   2.407   4.695 -0.1266  0.2764  1.0890
 3074TIP3    H130713   0.111   2.339   4.631  1.2965  1.3396 -0.5237
 3074TIP3    H230714   0.203   2.374   4.746 -0.3530  0.0249  1.2569
 3075TIP3   OH230715   3.697   0.942  41.868  0.4812  0.0495  0.3323
 3075TIP3    H130716   3.713   0.852  41.839 -0.5438 -0.0922  0.1841
 3075TIP3    H230717   3.649   0.932  41.951 -1.1389  0.4385 -0.5278
 3076TIP3   OH230718   1.982   0.670  31.646  0.1667 -0.4552  0.0137
 3076TIP3    H130719   1.903   0.724  31.640  0.9545  0.6436 -1.1456
 3076TIP3    H230720   1.964   0.607  31.716 -1.4659  0.1962  0.2121
 3077TIP3   OH230721   4.106   3.295  39.851 -0.4585  0.8554 -0.2823
 3077TIP3    H130722   4.147   3.342  39.924  0.1116 -1.4056  0.9441
 3077TIP3    H230723   4.177   3.279  39.789 -0.5467  1.1129 -0.4555
 3078TIP3   OH230724   3.863   0.887  41.335  0.5517  0.0134 -0.1114
 3078TIP3    H130725   3.956   0.871  41.349  0.7158  2.2131  1.8214
 3078TIP3    H230726   3.828   0.906  41.422 -1.3200  0.9928 -1.0200
 3079TIP3   OH230727   1.120   1.315  39.893  0.0572  0.1994 -0.4670
 3079TIP3    H130728   1.136   1.263  39.972  0.8907 -0.6952 -1.2008
 3079TIP3    H230729   1.033   1.288  39.863  0.4576 -0.7458 -0.8028
 3080TIP3   OH230730   2.936   2.017   9.879 -0.5892 -0.0377 -0.2239
 3080TIP3    H130731   2.910   2.078   9.810  0.8675  0.5962 -0.2512
 3080TIP3    H230732   3.003   1.961   9.838  0.6351  0.6465  0.7673
 3081TIP3   OH230733   3.441   2.426  44.765 -0.0716  0.4990  0.5131
 3081TIP3    H130734   3.470   2.411  44.855  0.6268  2.4781  0.6738
 3081TIP3    H230735   3.506   2.381  44.712 -0.6830 -0.9810  0.9829
 3082TIP3   OH230736   3.769   0.751   9.614  0.1518  0.0175  0.0167
 3082TIP3    H130737   3.853   0.757   9.569  1.6887 -0.2534  2.6662
 3082TIP3    H230738   3.750   0.839   9.644 -0.9038  0.2111 -1.1054
 3083TIP3   OH230739   0.832   0.865   2.284 -0.0758  0.0974 -0.0469
 3083TIP3    H130740   0.858   0.956   2.267  1.9705 -0.0719  1.6729
 3083TIP3    H230741   0.902   0.831   2.339 -1.5901 -2.0754  0.6467
 3084TIP3   OH230742   1.767   1.594  43.233  0.9901  0.0277 -0.5350
 3084TIP3    H130743   1.767   1.688  43.248 -0.9299  0.3481 -2.0441
 3084TIP3    H230744   1.841   1.580  43.173  1.2752  0.5729 -0.3227
 3085TIP3   OH230745   3.452   1.670  32.810  0.1497  0.4341 -0.4408
 3085TIP3    H130746   3.401   1.750  32.801  0.4601  0.8062  0.8243
 3085TIP3    H230747   3.430   1.618  32.733 -2.5148  0.3569  0.2897
 3086TIP3   OH230748   0.220   4.054  43.251 -0.1445 -0.0010 -0.4527
 3086TIP3    H130749   0.244   3.963  43.238  0.0135  0.0283 -0.3713
 3086TIP3    H230750   0.280   4.085  43.319  0.1172  0.2947 -0.8137
 3087TIP3   OH230751   2.863   1.325  13.757 -0.1131  0.0370 -0.7724
 3087TIP3    H130752   2.803   1.267  13.805 -1.2425  0.7214 -1.3242
 3087TIP3    H230753   2.878   1.398  13.817  1.3532 -0.8025 -0.0554
 3088TIP3   OH230754   2.273   0.716   0.966  0.5881  0.5257  0.1714
 3088TIP3    H130755   2.183   0.735   0.943 -0.2068 -1.6727  1.1667
 3088TIP3    H230756   2.325   0.782   0.920 -1.4733  1.5299 -0.8072
 3089TIP3   OH230757   2.662   3.678   2.204 -0.2534  0.6673 -0.0568
 3089TIP3    H130758   2.609   3.635   2.271 -1.2027 -0.1681 -1.3125
 3089TIP3    H230759   2.601   3.697   2.133  0.9776  0.3669 -1.2328
 3090TIP3   OH230760   2.277   0.993   8.714  0.3947 -0.4283  0.2086
 3090TIP3    H130761   2.294   1.087   8.724 -2.1145  0.2216 -0.8253
 3090TIP3    H230762   2.360   0.951   8.737  1.5956  2.0271  0.7064
 3091TIP3   OH230763   0.554   2.656   5.683 -0.3121 -0.0727 -0.5498
 3091TIP3    H130764   0.601   2.729   5.643 -0.8035 -0.6115 -2.1868
 3091TIP3    H230765   0.473   2.696   5.717 -0.6251  0.1413 -1.5207
 3092TIP3   OH230766   3.014   1.407  42.898  0.1429 -0.2424  0.1763
 3092TIP3    H130767   2.936   1.399  42.843 -0.1237  1.7182  0.1899
 3092TIP3    H230768   3.086   1.413  42.836  0.0206  0.3158  0.0849
 3093TIP3   OH230769   1.506   0.240  41.607 -0.2040 -0.1543 -0.1101
 3093TIP3    H130770   1.528   0.212  41.518 -0.5813 -0.1768 -0.2009
 3093TIP3    H230771   1.573   0.304  41.630 -0.7129  0.6762 -0.8314
 3094TIP3   OH230772   3.878   2.599  35.697  0.1899  0.0302  0.4819
 3094TIP3    H130773   3.855   2.651  35.620  0.4577  2.1467  1.7429
 3094TIP3    H230774   3.973   2.597  35.697  0.2855  1.7156  1.7038
 3095TIP3   OH230775   2.279   1.643  32.466 -0.8375  0.5434  0.2433
 3095TIP3    H130776   2.347   1.578  32.448 -0.0971  1.4960 -0.4247
 3095TIP3    H230777   2.225   1.602  32.534 -1.3310 -1.4400 -1.2457
 3096TIP3   OH230778   2.506   1.534  44.863 -0.0676  0.2471 -0.2462
 3096TIP3    H130779   2.568   1.553  44.793 -2.4722  0.3318 -2.5060
 3096TIP3    H230780   2.424   1.513  44.818 -2.2501  1.9789  2.5356
 3097TIP3   OH230781   2.786   0.586  13.176  0.7589 -0.1960 -0.1152
 3097TIP3    H130782   2.873   0.623  13.168  0.1775  0.9332 -1.6292
 3097TIP3    H230783   2.778   0.526  13.102 -0.0549  0.3873 -0.5167
 3098TIP3   OH230784   1.305   3.831  34.345  0.1335 -0.3839  0.3795
 3098TIP3    H130785   1.299   3.926  34.342 -0.0163 -0.3924  0.4126
 3098TIP3    H230786   1.396   3.812  34.322  0.3956 -0.1896  1.2350
 3099TIP3   OH230787   1.977   2.673  31.688 -0.4345 -0.3086  0.0243
 3099TIP3    H130788   2.049   2.615  31.663 -1.1824 -1.5805  0.6793
 3099TIP3    H230789   1.999   2.703  31.776 -1.5191 -2.1709  0.9910
 3100TIP3   OH230790   2.153   1.947  11.716  0.2898  0.0969  0.5200
 3100TIP3    H130791   2.174   1.861  11.681  0.0049 -0.0287  0.6594
 3100TIP3    H230792   2.061   1.941  11.743  0.5418  0.1325  1.4399
 3101TIP3   OH230793   0.260   2.988  37.459 -0.8363  0.0956  0.0164
 3101TIP3    H130794   0.197   2.949  37.399 -0.3566 -1.1616  0.2857
 3101TIP3    H230795   0.339   2.936  37.448  0.7510  2.6259 -1.5006
 3102TIP3   OH230796   1.888   1.950   7.923  0.0928  0.1371 -0.0342
 3102TIP3    H130797   1.949   1.896   7.973  0.6947 -0.2551 -1.1462
 3102TIP3    H230798   1.941   1.983   7.850 -0.9002  0.2288 -0.7225
 3103TIP3   OH230799   2.721   1.886  17.457  0.1899 -0.6216 -0.0038
 3103TIP3    H130800   2.715   1.791  17.465 -0.1958 -0.5359  0.6969
 3103TIP3    H230801   2.636   1.919  17.485  0.5952 -0.0161  0.5320
 3104TIP3   OH230802   2.224   0.217  25.643 -0.2472  0.9919  0.4680
 3104TIP3    H130803   2.155   0.232  25.579 -0.1061  0.3237  0.1542
 3104TIP3    H230804   2.296   0.273  25.614 -0.4477  1.2493  0.4666
 3105TIP3   OH230805   1.263   1.591   6.921  0.1704  0.2373 -0.1179
 3105TIP3    H130806   1.344   1.642   6.914  1.3020 -1.4858 -0.1734
 3105TIP3    H230807   1.202   1.650   6.965  1.5369  1.4969  0.1775
 3106TIP3   OH230808   1.049   0.097  31.227  0.0368  0.2073  0.1326
 3106TIP3    H130809   0.986   0.148  31.175  1.2998  0.1982 -1.5106
 3106TIP3    H230810   1.007   0.012  31.239 -0.2103  0.1391 -1.0896
 3107TIP3   OH230811   0.973   3.111  14.224  0.2938  0.0836 -0.0362
 3107TIP3    H130812   0.923   3.171  14.168  0.4462  1.4920  1.2949
 3107TIP3    H230813   0.947   3.024  14.194 -1.4441  0.7884 -0.7010
 3108TIP3   OH230814   2.023   3.604  15.948 -0.4120 -0.1170 -0.2284
 3108TIP3    H130815   1.942   3.652  15.935 -1.5507 -2.1202 -0.9156
 3108TIP3    H230816   2.008   3.550  16.026 -0.1429 -1.2580 -0.9446
 3109TIP3   OH230817   0.165   1.524   6.311  0.1156 -0.1193 -0.1565
 3109TIP3    H130818   0.230   1.457   6.334  2.1129  2.0489  0.9571
 3109TIP3    H230819   0.112   1.534   6.389  2.6842  2.5802  1.4536
 3110TIP3   OH230820   1.064   3.337   7.004  0.1618 -0.6590 -0.1315
 3110TIP3    H130821   1.121   3.325   6.929 -0.3748  1.0577 -0.8674
 3110TIP3    H230822   1.027   3.251   7.021  0.5893 -1.1465 -1.5884
 3111TIP3   OH230823   1.369   2.812  11.719  0.1575  0.2229  0.1586
 3111TIP3    H130824   1.349   2.720  11.730 -2.6480  0.6328 -0.7587
 3111TIP3    H230825   1.437   2.814  11.651  0.5027 -1.1456  0.4385
 3112TIP3   OH230826   2.787   1.796  12.535  0.6114  0.0126  0.3677
 3112TIP3    H130827   2.813   1.799  12.443  1.0042 -0.5194  0.4574
 3112TIP3    H230828   2.801   1.886  12.566  0.7296  0.1313 -0.0227
 3113TIP3   OH230829   0.678   3.160  42.348  0.2005  0.1111  0.4682
 3113TIP3    H130830   0.639   3.167  42.435 -1.6775 -0.6508 -0.2584
 3113TIP3    H230831   0.753   3.102  42.360 -1.7669 -2.5223  1.1356
 3114TIP3   OH230832   2.642   1.974  20.388 -0.0963 -0.3989 -0.5167
 3114TIP3    H130833   2.547   1.967  20.392  0.0429 -2.6797  0.0041
 3114TIP3    H230834   2.665   1.953  20.298 -0.1374  1.6563 -1.0479
 3115TIP3   OH230835   3.563   1.845  10.640 -0.2451 -0.2002 -0.1193
 3115TIP3    H130836   3.536   1.849  10.548  1.3641  0.7512 -0.5864
 3115TIP3    H230837   3.482   1.862  10.689 -0.7604  1.2680 -1.4041
 3116TIP3   OH230838   1.483   3.730  41.798 -0.1037  0.4813  0.0760
 3116TIP3    H130839   1.466   3.804  41.857  0.3409 -1.4331  2.7500
 3116TIP3    H230840   1.416   3.666  41.820  0.1579 -0.3857 -1.4715
 3117TIP3   OH230841   4.017   0.844  14.010 -0.3577  0.4596 -0.5544
 3117TIP3    H130842   4.003   0.785  13.935 -0.0357 -0.7186  0.2748
 3117TIP3    H230843   4.111   0.861  14.010 -0.4321  0.8794 -0.7161
 3118TIP3   OH230844   0.319   4.026  34.750 -0.2284 -0.0988 -0.7163
 3118TIP3    H130845   0.294   3.984  34.668  0.9125  0.0305 -1.1517
 3118TIP3    H230846   0.279   3.972  34.818 -3.4896  1.2715 -1.3380
 3119TIP3   OH230847   1.772   2.753  45.238  0.8208  0.1735  0.2804
 3119TIP3    H130848   1.863   2.776  45.224  0.6218  0.4679 -0.6060
 3119TIP3    H230849   1.763   2.747  45.333  2.1714 -1.5609  0.3410
 3120TIP3   OH230850   3.448   1.785  46.503 -0.1242  0.0124 -0.5533
 3120TIP3    H130851   3.366   1.749  46.537 -1.3478  2.0098 -1.2562
 3120TIP3    H230852   3.471   1.727  46.430 -0.0014 -1.5076  0.6453
 3121TIP3   OH230853   2.505   4.107  24.850 -0.0969  0.3240  1.0714
 3121TIP3    H130854   2.479   4.191  24.888  0.6172  1.2772 -0.4484
 3121TIP3    H230855   2.577   4.128  24.791 -1.1075 -1.0503 -0.7847
 3122TIP3   OH230856   2.465   1.718  37.309 -0.4504 -0.2531  0.2853
 3122TIP3    H130857   2.463   1.707  37.214 -1.8355  1.4008  0.0708
 3122TIP3    H230858   2.549   1.761  37.326 -0.3814 -0.1715 -0.2503
 3123TIP3   OH230859   3.198   1.368   6.894  0.4112  0.0718 -0.4736
 3123TIP3    H130860   3.270   1.392   6.836  0.9163  1.1536  0.5550
 3123TIP3    H230861   3.215   1.417   6.974 -1.0252 -0.3058  0.0858
 3124TIP3   OH230862   3.795   1.793   9.769 -0.5554 -0.1048 -0.3011
 3124TIP3    H130863   3.860   1.831   9.828 -1.2905 -0.0901  0.5234
 3124TIP3    H230864   3.717   1.847   9.781 -1.0502 -0.7684 -0.4722
 3125TIP3   OH230865   1.071   0.788   6.864 -0.4378  0.1910  0.4264
 3125TIP3    H130866   1.041   0.723   6.927 -1.2077  1.7699  1.7413
 3125TIP3    H230867   1.019   0.866   6.883 -0.2967  0.8952 -1.8094
 3126TIP3   OH230868   0.084   0.952   0.285 -0.4664  0.0971 -0.5799
 3126TIP3    H130869   0.016   1.020   0.281 -0.5473  0.2650  1.9890
 3126TIP3    H230870   0.036   0.869   0.281 -0.6459  0.2085 -0.7109
 3127TIP3   OH230871   2.257   3.075   6.244  0.4194  0.2266 -0.4893
 3127TIP3    H130872   2.203   3.126   6.304  1.0921 -0.9808  1.2318
 3127TIP3    H230873   2.245   2.984   6.272 -0.3196 -0.5535 -3.1034
 3128TIP3   OH230874   3.744   3.556  25.491 -0.1832  0.0149 -0.0094
 3128TIP3    H130875   3.661   3.560  25.444 -0.3813 -0.4979  0.2845
 3128TIP3    H230876   3.774   3.466  25.478  0.4308  0.2514 -0.2838
 3129TIP3   OH230877   1.928   1.112  43.532 -0.6373  0.0468  0.2903
 3129TIP3    H130878   1.904   1.199  43.500  0.6988  0.1618 -0.4675
 3129TIP3    H230879   1.920   1.118  43.627 -1.6972  0.6328  0.1824
 3130TIP3   OH230880   0.594   2.497  32.949 -0.2261  0.5756 -0.1849
 3130TIP3    H130881   0.675   2.535  32.914 -0.0281 -0.5015 -0.9458
 3130TIP3    H230882   0.616   2.471  33.039 -1.1135  4.5912  1.3891
 3131TIP3   OH230883   3.125   0.684  41.715 -0.5746 -0.2868 -0.1594
 3131TIP3    H130884   3.156   0.696  41.805  0.6720  1.3814 -0.7638
 3131TIP3    H230885   3.065   0.609  41.720  0.7448 -1.3055  1.7503
 3132TIP3   OH230886   1.196   3.115  38.990  0.4857  0.2366  0.3932
 3132TIP3    H130887   1.188   3.029  39.031  0.1466  1.1324  2.2951
 3132TIP3    H230888   1.281   3.147  39.018  0.6804  0.4862 -0.4434
 3133TIP3   OH230889   3.082   1.831   3.022 -0.0600 -0.0239 -0.1239
 3133TIP3    H130890   3.133   1.755   2.993 -2.3598 -1.4940 -0.5356
 3133TIP3    H230891   3.053   1.808   3.110  0.2846  0.9663  0.2594
 3134TIP3   OH230892   1.381   2.463  46.906  0.2512 -0.0187  0.1638
 3134TIP3    H130893   1.383   2.559  46.910  1.2859 -0.0577  1.8975
 3134TIP3    H230894   1.411   2.442  46.818 -2.3990  1.2404 -1.1356
 3135TIP3   OH230895   1.449   0.091  30.357  0.2456 -0.2430 -0.2678
 3135TIP3    H130896   1.423   0.183  30.354  0.4488 -0.1179  1.2436
 3135TIP3    H230897   1.525   0.086  30.298 -0.0005  0.4690 -0.6551
 3136TIP3   OH230898   2.499   2.998  12.515 -0.2672 -0.4536  0.3821
 3136TIP3    H130899   2.434   2.929  12.501 -0.2407 -0.2396 -0.8248
 3136TIP3    H230900   2.583   2.956  12.499 -0.1624 -0.4433  0.8666
 3137TIP3   OH230901   3.431   0.065   2.151  0.0956  0.6336  0.0075
 3137TIP3    H130902   3.502   0.035   2.207  0.1186  1.5233  0.4707
 3137TIP3    H230903   3.462   0.047   2.062 -0.3102 -1.5859  0.2726
 3138TIP3   OH230904   1.798   3.016  40.427  0.0608  0.2643  0.6617
 3138TIP3    H130905   1.741   2.950  40.467  0.5194  0.1199  1.0738
 3138TIP3    H230906   1.779   3.097  40.475 -2.2002  1.0357 -1.3150
 3139TIP3   OH230907   1.226   2.469  16.093 -0.4444  0.7662 -0.0420
 3139TIP3    H130908   1.181   2.409  16.033 -0.1722 -0.1309  0.6215
 3139TIP3    H230909   1.319   2.444  16.087 -0.3978  0.7548  0.6453
 3140TIP3   OH230910   1.118   3.750   8.521  0.3597  0.8954 -0.1922
 3140TIP3    H130911   1.194   3.699   8.493  0.2117  0.3169  0.4396
 3140TIP3    H230912   1.049   3.726   8.459  0.5630  1.0934 -0.5011
 3141TIP3   OH230913   3.877   3.683   3.271 -0.3520 -0.4745  0.0671
 3141TIP3    H130914   3.847   3.624   3.203  0.7182 -0.8970 -0.0503
 3141TIP3    H230915   3.813   3.755   3.271 -0.7803 -0.8505 -0.8479
 3142TIP3   OH230916   3.331   3.311  34.595 -0.2515  0.1456  0.4019
 3142TIP3    H130917   3.400   3.250  34.568 -1.5029 -1.2215  0.1928
 3142TIP3    H230918   3.317   3.291  34.688 -0.6797  0.1042  0.3284
 3143TIP3   OH230919   2.939   3.449  47.583 -0.3274 -0.0644  0.0871
 3143TIP3    H130920   2.877   3.514  47.549 -1.3449 -1.6467 -1.2337
 3143TIP3    H230921   2.893   3.406  47.654 -0.4024 -0.6340 -0.3044
 3144TIP3   OH230922   3.850   0.754  14.385 -0.3612  0.0540 -0.5229
 3144TIP3    H130923   3.755   0.757  14.377 -0.2896  0.4254 -1.2459
 3144TIP3    H230924   3.880   0.833  14.341  0.2981 -0.1811 -0.4965
 3145TIP3   OH230925   2.377   1.092   3.588 -0.1211  0.2305 -0.1821
 3145TIP3    H130926   2.394   1.058   3.676 -0.5248 -1.1396 -0.6116
 3145TIP3    H230927   2.321   1.168   3.602  1.4763  1.2854  0.8646
 3146TIP3   OH230928   0.663   1.133  34.147  0.1591  0.1133  0.5881
 3146TIP3    H130929   0.744   1.143  34.096  1.1699 -3.2959  1.2874
 3146TIP3    H230930   0.672   1.197  34.218  0.9385  1.6169 -0.7880
 3147TIP3   OH230931   0.522   3.938  47.588 -0.2671 -0.3866  0.2768
 3147TIP3    H130932   0.518   3.900  47.675 -0.1838 -2.1423 -0.4506
 3147TIP3    H230933   0.506   4.031  47.602  0.8828 -0.4345  2.2812
 3148TIP3   OH230934   1.444   2.057   7.921 -0.3080  0.0154 -0.7336
 3148TIP3    H130935   1.357   2.059   7.960 -0.6996  0.7318 -1.6111
 3148TIP3    H230936   1.498   2.009   7.984 -1.0559  0.6020  0.3744
 3149TIP3   OH230937   0.031   2.253  46.238 -0.0025 -0.1308  0.1360
 3149TIP3    H130938   0.035   2.324  46.173 -1.1772  0.4995  0.7218
 3149TIP3    H230939  -0.042   2.198  46.209  0.4660 -0.7297  0.0712
 3150TIP3   OH230940   3.193   3.349  14.879  0.4977 -0.1668 -0.5047
 3150TIP3    H130941   3.207   3.278  14.941  2.3101  0.0033 -0.6840
 3150TIP3    H230942   3.098   3.358  14.875  0.3041 -0.6887  1.6391
 3151TIP3   OH230943   0.253   1.532  39.368  0.3067 -0.3811 -0.3222
 3151TIP3    H130944   0.237   1.443  39.337  1.0318 -1.1771  1.4841
 3151TIP3    H230945   0.166   1.573  39.367 -0.2586 -1.5300  0.0608
 3152TIP3   OH230946   0.515   0.504   0.286  0.1111 -0.2409 -0.3007
 3152TIP3    H130947   0.481   0.590   0.311  4.6205  2.2343 -1.6386
 3152TIP3    H230948   0.544   0.465   0.368 -0.1097  0.4045  0.0879
 3153TIP3   OH230949   1.313   2.563  37.699  0.0586  0.2782  0.3676
 3153TIP3    H130950   1.324   2.632  37.764 -0.5912 -0.7997  1.6671
 3153TIP3    H230951   1.397   2.517  37.698  0.5028  1.0835 -0.5206
 3154TIP3   OH230952   0.640   2.263  40.695  0.0172 -0.6627  0.0766
 3154TIP3    H130953   0.600   2.237  40.778  1.6834 -1.8166  0.5778
 3154TIP3    H230954   0.581   2.329  40.659 -1.4469 -1.1251  1.5237
 3155TIP3   OH230955   1.726   0.186  35.870 -0.1042  0.1627  0.0812
 3155TIP3    H130956   1.729   0.278  35.894 -1.3211  0.4027 -0.5914
 3155TIP3    H230957   1.681   0.144  35.943  0.7452  0.0394  0.5412
 3156TIP3   OH230958   2.440   2.272   4.154 -1.0764  0.0917  0.5352
 3156TIP3    H130959   2.503   2.308   4.217 -0.0725  1.3666 -1.1155
 3156TIP3    H230960   2.414   2.347   4.101 -0.7123 -1.1724 -1.5400
 3157TIP3   OH230961   1.804   3.346   8.598  0.3791 -0.5336  0.0177
 3157TIP3    H130962   1.876   3.363   8.538 -0.6472 -0.1755 -1.1630
 3157TIP3    H230963   1.748   3.283   8.552 -2.5152  2.6776 -1.2656
 3158TIP3   OH230964   0.975   1.827   8.365  0.0029 -0.2768  0.0840
 3158TIP3    H130965   1.034   1.812   8.290  2.0906  1.2607  1.2856
 3158TIP3    H230966   0.909   1.759   8.357  1.9126 -2.1308 -1.4236
 3159TIP3   OH230967   1.595   0.178   2.894 -0.1271  0.2056  0.0855
 3159TIP3    H130968   1.646   0.123   2.953 -0.9360 -2.0714 -1.2330
 3159TIP3    H230969   1.599   0.133   2.810 -1.0796  2.0446 -0.9969
 3160TIP3   OH230970   3.158   1.514   6.353 -0.2448  0.0943 -0.4712
 3160TIP3    H130971   3.088   1.564   6.394 -0.0139  1.0113 -1.1803
 3160TIP3    H230972   3.116   1.433   6.325 -0.8820  0.3812 -0.3700
 3161TIP3   OH230973   2.159   1.984  39.974  0.0416 -0.2871  0.2313
 3161TIP3    H130974   2.113   2.024  40.048 -0.1943 -0.0986 -0.0167
 3161TIP3    H230975   2.227   2.047  39.952  1.5335 -1.3112  1.6765
 3162TIP3   OH230976   1.578   3.829   7.009  0.0099  0.6663  0.5971
 3162TIP3    H130977   1.507   3.892   6.996 -1.1609  0.0107  3.0617
 3162TIP3    H230978   1.638   3.843   6.936 -1.4520  2.9139 -0.2500
 3163TIP3   OH230979   0.820   0.732  43.422 -0.4153 -0.1942  0.2202
 3163TIP3    H130980   0.841   0.747  43.330  1.1690  0.9288  0.7279
 3163TIP3    H230981   0.754   0.797  43.443  1.0335  1.2574  0.4800
 3164TIP3   OH230982   3.755   2.167  46.443  0.6686 -0.1619 -0.0887
 3164TIP3    H130983   3.798   2.092  46.484  0.9026 -0.1102 -0.2438
 3164TIP3    H230984   3.759   2.150  46.349  0.7796  0.0734 -0.1298
 3165TIP3   OH230985   1.225   0.971  41.124 -0.3980 -0.7557 -0.4213
 3165TIP3    H130986   1.214   0.876  41.114 -0.2795 -0.8392  0.1609
 3165TIP3    H230987   1.258   1.001  41.040  1.4097 -1.5277 -0.0454
 3166TIP3   OH230988   4.030   2.019   0.182 -0.7412 -0.4227 -0.5054
 3166TIP3    H130989   4.110   1.968   0.172 -0.8880 -1.3899  2.3168
 3166TIP3    H230990   3.974   1.965   0.237 -1.9726  1.6744  0.4253
 3167TIP3   OH230991   4.035   2.199  11.853 -0.3702  0.4949 -0.3985
 3167TIP3    H130992   4.026   2.291  11.879 -0.2113  0.1284  1.0265
 3167TIP3    H230993   3.952   2.178  11.810 -1.6049  0.5282  1.8452
 3168TIP3   OH230994   2.713   1.778  46.686  0.0275  0.5817  0.1197
 3168TIP3    H130995   2.618   1.778  46.700  0.0458  1.2257  0.2743
 3168TIP3    H230996   2.723   1.763  46.592 -0.0849 -4.2116  0.6460
 3169TIP3   OH230997   3.650   0.158  29.100 -0.4495  0.1434  0.2880
 3169TIP3    H130998   3.716   0.222  29.074  0.5761 -0.7961  0.4556
 3169TIP3    H230999   3.652   0.092  29.031  1.4939 -1.8000  2.0033
 3170TIP3   OH231000   4.095   0.415  15.730 -0.1635  0.3125 -0.5390
 3170TIP3    H131001   4.147   0.480  15.684  0.2291  1.2108  1.1055
 3170TIP3    H231002   4.031   0.466  15.781  1.1640 -0.3984  2.0313
 3171TIP3   OH231003   1.904   2.848  15.109 -0.1861 -0.2304  0.3677
 3171TIP3    H131004   1.992   2.814  15.131  0.6455  0.9353 -1.0232
 3171TIP3    H231005   1.883   2.807  15.026 -0.5232  0.2836  0.2011
 3172TIP3   OH231006   0.452   2.848   0.225  0.1191  0.0805  0.4287
 3172TIP3    H131007   0.405   2.791   0.164  0.7634  0.2294 -0.2227
 3172TIP3    H231008   0.540   2.856   0.187  0.0475  1.5066  0.4905
 3173TIP3   OH231009   3.690   4.028  41.080  0.0707  0.3696  0.7091
 3173TIP3    H131010   3.597   4.050  41.082 -0.2671 -0.5923 -1.1086
 3173TIP3    H231011   3.735   4.111  41.062 -0.6789  0.5068 -0.7082
 3174TIP3   OH231012   3.711   3.264   4.690 -0.2278 -0.2418  0.1878
 3174TIP3    H131013   3.665   3.336   4.647 -0.5453  0.0217  0.9628
 3174TIP3    H231014   3.804   3.285   4.677 -0.3143  0.4972  0.7132
 3175TIP3   OH231015   3.532   3.867  31.508 -0.1743  0.4507 -0.3482
 3175TIP3    H131016   3.610   3.840  31.557  0.6156 -0.3984 -1.9713
 3175TIP3    H231017   3.567   3.909  31.429 -1.4120  2.8873  0.3379
 3176TIP3   OH231018   3.651   0.409  45.170  0.1706 -0.6398  0.2259
 3176TIP3    H131019   3.666   0.379  45.081 -0.9032 -5.2031  1.3552
 3176TIP3    H231020   3.722   0.371  45.221  0.3859  1.3184  1.5060
 3177TIP3   OH231021   3.048   0.553   5.237  0.5210  0.3609 -0.3780
 3177TIP3    H131022   3.085   0.610   5.304 -1.2268  5.2402 -3.0403
 3177TIP3    H231023   3.103   0.566   5.160 -0.8253 -0.3033 -1.5130
 3178TIP3   OH231024   0.580   3.617  36.275  0.1249 -0.0574 -0.0641
 3178TIP3    H131025   0.635   3.595  36.199 -0.6121  1.5462 -1.0915
 3178TIP3    H231026   0.583   3.537  36.329  2.8323 -0.3162 -0.4249
 3179TIP3   OH231027   2.150   0.749   9.477 -0.0954 -0.1733  0.1122
 3179TIP3    H131028   2.155   0.683   9.546 -1.4260 -0.5420 -0.1104
 3179TIP3    H231029   2.115   0.702   9.401  0.8077  0.3527 -0.6461
 3180TIP3   OH231030   0.517   2.810  37.297 -0.0918  0.0607  0.1017
 3180TIP3    H131031   0.539   2.756  37.373 -0.4406 -1.4937 -0.8479
 3180TIP3    H231032   0.557   2.895  37.315  0.4568 -0.4987  1.6726
 3181TIP3   OH231033   2.422   1.781  38.182  0.4645  0.2072 -0.0124
 3181TIP3    H131034   2.407   1.841  38.255  0.8063  1.3448 -0.8457
 3181TIP3    H231035   2.364   1.707  38.200  1.7810 -0.3787  2.3059
 3182TIP3   OH231036   2.265   1.048  32.940 -0.6229 -0.3098 -0.8847
 3182TIP3    H131037   2.323   0.972  32.943 -1.6033 -1.1125  2.4692
 3182TIP3    H231038   2.188   1.017  32.893 -1.8092 -2.2295  2.0079
 3183TIP3   OH231039   1.083   3.875  32.176 -0.7397  0.0100  0.2388
 3183TIP3    H131040   1.129   3.834  32.250 -2.0613 -1.2146  0.4309
 3183TIP3    H231041   0.999   3.903  32.213 -1.3306 -0.4265 -0.7255
 3184TIP3   OH231042   3.347   0.952  12.101  0.0022 -0.2866  0.0698
 3184TIP3    H131043   3.433   0.915  12.085  0.1060 -1.4693  2.8446
 3184TIP3    H231044   3.296   0.930  12.023  2.0099 -0.0684 -1.3646
 3185TIP3   OH231045   0.735   1.082  36.745  0.1871  0.5477  0.6482
 3185TIP3    H131046   0.778   1.167  36.737  1.9130 -0.4098 -1.2565
 3185TIP3    H231047   0.641   1.102  36.749  0.5221  2.5040 -0.3449
 3186TIP3   OH231048   1.862   2.696   8.310  0.3993  0.1078  0.6000
 3186TIP3    H131049   1.937   2.755   8.314  0.6120  0.1829 -2.3429
 3186TIP3    H231050   1.786   2.754   8.316  0.5732  0.2338  1.7020
 3187TIP3   OH231051   0.779   1.672  20.825 -0.0237  0.5958 -0.4570
 3187TIP3    H131052   0.710   1.668  20.759  0.7626  1.4948 -1.3688
 3187TIP3    H231053   0.860   1.678  20.774  0.7336 -0.4402  0.5847
 3188TIP3   OH231054   0.144   1.687   4.605 -0.2109  0.0716 -0.1261
 3188TIP3    H131055   0.177   1.619   4.546  0.3077  0.2568 -0.0481
 3188TIP3    H231056   0.164   1.654   4.693 -0.3664  0.1187 -0.0712
 3189TIP3   OH231057   2.011   1.771  41.327 -0.1609  0.2635 -0.2465
 3189TIP3    H131058   2.039   1.841  41.386  0.9996 -0.6272  0.3108
 3189TIP3    H231059   1.938   1.728  41.372  0.2465  0.0458  0.2165
 3190TIP3   OH231060   2.015   2.627  39.829  0.0336  0.2874 -0.0998
 3190TIP3    H131061   1.923   2.643  39.847 -0.0797  0.6060 -0.8948
 3190TIP3    H231062   2.055   2.616  39.915 -0.7609  0.0432  0.2470
 3191TIP3   OH231063   3.277   3.348  11.586  0.1047  0.4326 -0.1579
 3191TIP3    H131064   3.207   3.386  11.533  0.0909  1.0074  0.2640
 3191TIP3    H231065   3.328   3.423  11.616  0.6862  0.0446 -0.1508
 3192TIP3   OH231066   1.288   0.382  11.069  0.2286 -0.0388  0.1285
 3192TIP3    H131067   1.216   0.337  11.114 -0.1305 -0.0391 -0.4422
 3192TIP3    H231068   1.279   0.357  10.977 -0.4674  1.8247 -0.3558
 3193TIP3   OH231069   2.380   3.964  11.472  0.5615  0.2489 -0.2590
 3193TIP3    H131070   2.381   4.052  11.435  0.0789 -0.1425 -1.2502
 3193TIP3    H231071   2.313   3.918  11.422  0.1487 -0.4219  0.8765
 3194TIP3   OH231072   3.293   1.216  13.608 -0.2568  0.2762 -0.1049
 3194TIP3    H131073   3.323   1.161  13.535 -0.9860  1.5797 -1.4376
 3194TIP3    H231074   3.372   1.234  13.658  0.3290 -0.3492 -0.7723
 3195TIP3   OH231075   1.065   1.955  17.864 -0.2600 -0.1170 -0.1147
 3195TIP3    H131076   1.143   2.008  17.881 -0.3574 -0.2239  0.7235
 3195TIP3    H231077   1.016   2.004  17.799 -0.6827  1.1827  1.1304
 3196TIP3   OH231078   1.449   0.948   0.364  0.0365  0.1469  0.0801
 3196TIP3    H131079   1.360   0.916   0.380  0.0291  0.5732  0.9522
 3196TIP3    H231080   1.506   0.878   0.395  0.0237 -0.4277 -1.1223
 3197TIP3   OH231081   1.210   2.109  18.118  0.8015  0.6828  0.1552
 3197TIP3    H131082   1.179   2.198  18.103  2.5784  1.2666 -0.2472
 3197TIP3    H231083   1.267   2.090  18.044  0.0216 -1.0170 -0.0539
 3198TIP3   OH231084   0.115   2.964  42.330  0.3661  0.6239  0.2570
 3198TIP3    H131085   0.203   2.983  42.298  0.6549  1.0790  1.2770
 3198TIP3    H231086   0.085   2.891  42.277  2.4886 -1.4868  1.7558
 3199TIP3   OH231087   2.677   1.269   4.593  0.0677 -0.1792  0.6038
 3199TIP3    H131088   2.670   1.190   4.539  1.9886 -0.9937  1.4461
 3199TIP3    H231089   2.670   1.236   4.683  2.0171  0.4103  1.0094
 3200TIP3   OH231090   1.959   3.454  13.912  0.8080 -0.0115  0.0395
 3200TIP3    H131091   2.027   3.450  13.845 -0.0281 -0.8797 -0.7846
 3200TIP3    H231092   1.970   3.374  13.963  0.9812  0.3013  0.5089
 3201TIP3   OH231093   3.345   3.983   1.251 -0.3773 -0.3483 -0.0509
 3201TIP3    H131094   3.310   4.070   1.269 -1.5215 -0.8456  0.2004
 3201TIP3    H231095   3.417   3.973   1.314 -1.2236 -0.1736  0.9785
 3202TIP3   OH231096   1.289   0.530  12.607  0.4660  0.1879 -0.2550
 3202TIP3    H131097   1.331   0.519  12.522  0.0951  0.4661 -0.4818
 3202TIP3    H231098   1.358   0.512  12.671  0.7986  0.1671 -0.6159
 3203TIP3   OH231099   1.603   0.030   1.873  0.4944 -0.4984 -0.3881
 3203TIP3    H131100   1.576  -0.053   1.912 -1.9170 -0.4940 -1.8603
 3203TIP3    H231101   1.565   0.097   1.929  0.9217 -0.4120 -0.1994
 3204TIP3   OH231102   2.991   0.709   1.963  0.0733 -0.6488  0.0964
 3204TIP3    H131103   2.933   0.749   1.899 -0.1802 -0.0285  0.6980
 3204TIP3    H231104   2.952   0.624   1.982 -1.9543  0.6120  2.1446
 3205TIP3   OH231105   4.026   1.517   6.154  0.1280  0.1756 -0.6904
 3205TIP3    H131106   4.095   1.503   6.219  0.1749  0.8815 -0.5809
 3205TIP3    H231107   4.066   1.490   6.071  0.2149 -0.3100 -0.4942
 3206TIP3   OH231108   4.065   1.308  11.051 -0.0719  0.5145  0.2933
 3206TIP3    H131109   4.105   1.243  10.993  0.8550  1.7648 -0.5136
 3206TIP3    H231110   4.081   1.392  11.008  0.6263  1.4894  2.3306
 3207TIP3   OH231111   1.741   2.163  31.899  0.2478  0.1729 -0.3033
 3207TIP3    H131112   1.689   2.122  31.968  0.6305 -2.2874 -1.3466
 3207TIP3    H231113   1.691   2.148  31.819  1.6879 -0.7049 -1.0836
 3208TIP3   OH231114   0.820   2.761  16.223 -0.3554 -0.3550 -0.2534
 3208TIP3    H131115   0.746   2.719  16.179 -0.6631  2.0943 -2.2896
 3208TIP3    H231116   0.880   2.784  16.152  0.5531  1.1152  0.9480
 3209TIP3   OH231117   0.560   3.554  38.077  0.0864 -0.1855 -0.4190
 3209TIP3    H131118   0.626   3.621  38.096 -0.2973  0.2385 -0.5678
 3209TIP3    H231119   0.575   3.487  38.143 -0.6586  0.8651  0.8916
 3210TIP3   OH231120   3.369   3.884  46.389  0.1030 -0.3415  0.4475
 3210TIP3    H131121   3.414   3.952  46.340 -2.8792  1.0758 -0.5808
 3210TIP3    H231122   3.320   3.835  46.323 -1.6180 -0.3331  1.6622
 3211TIP3   OH231123   2.123   2.829   8.747  0.5215 -0.3854 -0.2743
 3211TIP3    H131124   2.059   2.886   8.704  1.1899  0.5390 -0.0778
 3211TIP3    H231125   2.076   2.747   8.762  0.1827 -0.6600 -2.5333
 3212TIP3   OH231126   0.210   3.304   1.432  0.0631  0.2151 -0.3476
 3212TIP3    H131127   0.303   3.321   1.418  0.1989 -0.4927 -0.3379
 3212TIP3    H231128   0.182   3.257   1.354  0.1170 -1.0561  0.3652
 3213TIP3   OH231129   0.247   0.351   1.779  0.4552 -0.1411  0.1793
 3213TIP3    H131130   0.257   0.261   1.809 -1.4143 -0.1831  0.7918
 3213TIP3    H231131   0.221   0.400   1.857  0.4217  0.7224 -0.3601
 3214TIP3   OH231132   0.164   2.592  39.720  0.4516  0.0418  0.1841
 3214TIP3    H131133   0.141   2.502  39.743  2.8605 -0.9636 -1.0301
 3214TIP3    H231134   0.179   2.590  39.626  0.5121  1.7433  0.1285
 3215TIP3   OH231135   1.651   0.310  42.005  0.3984  0.9652 -0.3723
 3215TIP3    H131136   1.615   0.355  42.082  0.6594  0.3096  0.1439
 3215TIP3    H231137   1.617   0.359  41.930 -1.4585  0.4866  0.0916
 3216TIP3   OH231138   2.994   2.666   7.208  0.9900 -0.3885 -0.3573
 3216TIP3    H131139   2.905   2.629   7.208  1.4894 -1.6502 -0.4449
 3216TIP3    H231140   2.998   2.719   7.287  0.2799 -0.6612 -0.1292
 3217TIP3   OH231141   0.574   2.258  15.380  0.0172 -0.1723  1.1073
 3217TIP3    H131142   0.510   2.187  15.381 -0.4827  0.2705  2.2501
 3217TIP3    H231143   0.616   2.254  15.466 -0.1805  1.0529  1.2800
 3218TIP3   OH231144   0.411   1.919   5.581 -0.1491  0.5607  0.2935
 3218TIP3    H131145   0.362   1.854   5.632 -0.9997  0.2476 -0.8784
 3218TIP3    H231146   0.353   1.995   5.578 -0.7637  0.0490 -1.4400
 3219TIP3   OH231147   2.295   1.065  11.055 -0.1647 -0.3227  0.2032
 3219TIP3    H131148   2.382   1.077  11.093  0.1565 -1.4689 -0.1275
 3219TIP3    H231149   2.262   1.154  11.040  0.6004  0.1239  1.1052
 3220TIP3   OH231150   3.363   3.297  41.800 -0.2467 -0.5091 -0.0884
 3220TIP3    H131151   3.335   3.294  41.892 -4.0524  0.1431 -1.0659
 3220TIP3    H231152   3.421   3.373  41.795  0.4384 -0.8443  1.8015
 3221TIP3   OH231153   2.848   3.575  13.595  0.6381  0.2994 -0.0882
 3221TIP3    H131154   2.771   3.520  13.580  0.5369  0.3969  0.0711
 3221TIP3    H231155   2.814   3.653  13.639  0.6438  0.8865 -1.0856
 3222TIP3   OH231156   3.418   1.402  40.661 -0.2419 -0.5897  0.1021
 3222TIP3    H131157   3.330   1.437  40.653 -0.2267 -0.4388  0.5643
 3222TIP3    H231158   3.423   1.371  40.751 -0.3864 -2.1253 -0.3814
 3223TIP3   OH231159   1.990   3.885  41.396 -0.3709  0.1232  0.5179
 3223TIP3    H131160   2.019   3.859  41.483 -1.5811  0.2208  0.9676
 3223TIP3    H231161   1.924   3.953  41.411 -1.9002 -1.1024 -0.3824
 3224TIP3   OH231162   0.969   1.181  15.901  0.1486  0.6751 -0.1537
 3224TIP3    H131163   0.965   1.258  15.958 -0.7173  0.0535  0.6593
 3224TIP3    H231164   0.925   1.112  15.951  0.2038 -0.1392 -1.1957
 3225TIP3   OH231165   2.274   3.728  43.403 -0.0073  0.0052  0.6006
 3225TIP3    H131166   2.198   3.743  43.347  0.6068  1.4462  0.0909
 3225TIP3    H231167   2.349   3.738  43.344  0.6166  0.4209  1.4383
 3226TIP3   OH231168   3.975   0.376  38.558 -0.0695 -0.3650  0.4164
 3226TIP3    H131169   4.021   0.292  38.555  1.6504  0.5250  0.4877
 3226TIP3    H231170   4.001   0.414  38.642 -0.2922  0.5335  0.0895
 3227TIP3   OH231171   3.262   0.116   5.216 -0.2395 -0.0630  0.3640
 3227TIP3    H131172   3.353   0.140   5.199 -0.2802 -1.1021 -1.6699
 3227TIP3    H231173   3.265   0.023   5.236 -0.9472 -0.3473 -0.7823
 3228TIP3   OH231174   2.010   0.401   7.724  0.5617  0.4943  0.2188
 3228TIP3    H131175   2.058   0.318   7.724  1.3966  0.9507 -0.9760
 3228TIP3    H231176   1.938   0.387   7.661  1.0390  0.8451 -0.4156
 3229TIP3   OH231177   4.096   3.366  11.588  0.3816 -0.0105  0.1243
 3229TIP3    H131178   4.030   3.355  11.657 -0.1159 -1.7954 -0.5642
 3229TIP3    H231179   4.102   3.279  11.548  3.2189  0.0800  0.1867
 3230TIP3   OH231180   0.988   3.201  33.017  0.3228  0.0275  0.7282
 3230TIP3    H131181   0.976   3.296  33.017 -0.3612 -0.0052 -1.1912
 3230TIP3    H231182   0.927   3.169  33.083 -0.9375  0.8048 -0.0099
 3231TIP3   OH231183   0.032   2.032  38.083  0.2081 -0.5034 -0.3966
 3231TIP3    H131184  -0.025   2.078  38.023 -1.0894 -0.7364  0.6121
 3231TIP3    H231185  -0.023   2.013  38.159  1.4346 -1.3590  0.3207
 3232TIP3   OH231186   3.262   3.949   9.986 -0.1049  0.0460  0.3535
 3232TIP3    H131187   3.253   3.917  10.075 -0.6522  0.1255  0.3281
 3232TIP3    H231188   3.357   3.951   9.971 -0.0137 -2.6299 -0.0338
 3233TIP3   OH231189   3.481   1.727  45.621 -0.1350 -0.9808 -0.1449
 3233TIP3    H131190   3.408   1.672  45.594 -0.3530 -2.0767  2.3563
 3233TIP3    H231191   3.440   1.803  45.663  0.1845  0.3852 -2.1863
 3234TIP3   OH231192   1.545   2.504   7.479 -0.1232  0.2142 -0.6353
 3234TIP3    H131193   1.549   2.588   7.524 -2.4348  0.5775 -1.0113
 3234TIP3    H231194   1.461   2.504   7.433  0.1384 -2.0022 -1.2619
 3235TIP3   OH231195   0.716   2.477   4.574  0.1199  0.4653  0.0788
 3235TIP3    H131196   0.736   2.458   4.482  0.2076  0.0575  0.1798
 3235TIP3    H231197   0.797   2.515   4.608 -0.1342  1.2687 -0.1876
 3236TIP3   OH231198   1.968   3.605   5.978  0.0583 -0.7342  0.0727
 3236TIP3    H131199   2.054   3.601   5.937 -0.1508 -0.5551 -0.3843
 3236TIP3    H231200   1.933   3.691   5.953 -0.0689 -0.6139  0.6328
 3237TIP3   OH231201   0.339   0.700  10.112 -0.1917  0.3650  0.2380
 3237TIP3    H131202   0.393   0.637  10.063  0.9427  1.0346  0.5786
 3237TIP3    H231203   0.384   0.710  10.196 -1.1682  0.5371  0.7588
 3238TIP3   OH231204   3.229   0.755  40.470  0.3448  0.9057  0.1251
 3238TIP3    H131205   3.165   0.818  40.438  0.4449 -0.0573 -2.1775
 3238TIP3    H231206   3.301   0.759  40.406  0.5029 -1.2690  0.0791
 3239TIP3   OH231207   0.624   2.392  33.770 -0.6324 -0.4716 -0.3079
 3239TIP3    H131208   0.557   2.460  33.761 -0.2957 -0.2203 -1.0788
 3239TIP3    H231209   0.652   2.398  33.861 -2.0858 -1.0058  0.2090
 3240TIP3   OH231210   2.622   2.136  16.305  0.1646  0.8946  0.3393
 3240TIP3    H131211   2.641   2.053  16.261 -0.0342  1.6072 -1.1805
 3240TIP3    H231212   2.601   2.112  16.395 -0.0816 -0.7223 -0.1173
 3241TIP3   OH231213   3.829   3.235  40.281 -0.2932 -0.3902 -0.0269
 3241TIP3    H131214   3.919   3.265  40.287 -0.6418  0.8230 -0.6699
 3241TIP3    H231215   3.797   3.237  40.371  0.1029 -0.1458  0.1084
 3242TIP3   OH231216   0.042   0.147   8.903  0.5975  0.4401  0.8313
 3242TIP3    H131217   0.025   0.227   8.852 -1.6854 -0.3481  0.2723
 3242TIP3    H231218   0.010   0.168   8.991 -0.9562 -0.1408  0.4390
 3243TIP3   OH231219   0.366   1.260   2.055 -0.5109 -0.3249 -0.4452
 3243TIP3    H131220   0.312   1.288   2.128  0.4064  0.9965 -0.2213
 3243TIP3    H231221   0.342   1.319   1.984  0.7271  0.3994 -0.2872
 3244TIP3   OH231222   1.010   3.002   2.685  0.0356  0.0700 -0.0013
 3244TIP3    H131223   0.941   3.042   2.737 -2.8111 -2.4631 -1.5135
 3244TIP3    H231224   1.065   2.957   2.749 -1.0924  0.2154  1.1079
 3245TIP3   OH231225   1.314   0.266   5.779  0.0413  0.6732 -0.4579
 3245TIP3    H131226   1.317   0.197   5.713 -0.0047 -0.6008  0.8202
 3245TIP3    H231227   1.318   0.348   5.729  2.6223 -0.2364 -1.9014
 3246TIP3   OH231228   0.694   1.127  16.237  0.5946  0.2885  0.1674
 3246TIP3    H131229   0.703   1.107  16.330 -0.3581 -2.1579 -0.1913
 3246TIP3    H231230   0.599   1.127  16.222  0.6280  2.4722 -0.5210
 3247TIP3   OH231231   4.068   0.527   3.150  0.4952 -0.0345 -0.0410
 3247TIP3    H131232   4.058   0.451   3.207  0.5126  0.4728  0.6395
 3247TIP3    H231233   3.978   0.557   3.133  0.5112  0.0946  0.1002
 3248TIP3   OH231234   1.800   3.469  38.906  0.6088 -0.0426  0.9865
 3248TIP3    H131235   1.764   3.389  38.868  0.6950 -0.4183  1.6925
 3248TIP3    H231236   1.730   3.533  38.896  0.0010 -0.5791  1.6907
 3249TIP3   OH231237   2.432   1.557   5.452  0.1118  0.5462  0.0514
 3249TIP3    H131238   2.468   1.640   5.483  1.4468 -0.2667  0.8104
 3249TIP3    H231239   2.477   1.490   5.505 -1.7361 -0.6140  0.2526
 3250TIP3   OH231240   1.519   1.398  33.448  0.1084  0.1821 -0.0158
 3250TIP3    H131241   1.472   1.369  33.370 -0.2604  0.9344 -0.0879
 3250TIP3    H231242   1.507   1.328  33.511  1.5776 -1.0812 -1.0678
 3251TIP3   OH231243   1.724   3.738  42.167  0.0637  0.6433 -0.2950
 3251TIP3    H131244   1.726   3.720  42.073 -0.5923  1.2597 -0.4283
 3251TIP3    H231245   1.707   3.832  42.174  0.6709  0.7117  0.4394
 3252TIP3   OH231246   2.010   2.676  33.820 -0.2612  0.3366  0.0933
 3252TIP3    H131247   1.994   2.718  33.905 -1.1879  0.1534  0.0189
 3252TIP3    H231248   1.959   2.728  33.758 -1.3328 -0.8200 -0.0154
 3253TIP3   OH231249   1.877   3.899  11.867 -0.1804 -0.8945  0.2728
 3253TIP3    H131250   1.877   3.876  11.960  0.8445  1.4786  0.9423
 3253TIP3    H231251   1.961   3.944  11.853 -2.1588  2.9407 -0.6198
 3254TIP3   OH231252   3.297   0.267  13.220 -0.8356 -0.3463 -0.0954
 3254TIP3    H131253   3.205   0.242  13.211 -0.5964 -1.0634 -0.6570
 3254TIP3    H231254   3.323   0.232  13.305 -0.7723 -1.1728 -0.4478
 3255TIP3   OH231255   0.560   1.232   1.728  0.1502 -0.0222 -0.3126
 3255TIP3    H131256   0.590   1.170   1.794 -2.6475 -0.1309  1.0373
 3255TIP3    H231257   0.574   1.318   1.767  0.5084  0.0316 -0.5499
 3256TIP3   OH231258   1.980   3.533  30.880 -0.1634 -0.2237  0.0684
 3256TIP3    H131259   2.017   3.549  30.794 -0.6685 -0.7735 -0.2656
 3256TIP3    H231260   1.889   3.507  30.863 -0.1144 -0.8726  0.7252
 3257TIP3   OH231261   3.763   2.426  41.349  0.4048 -0.0287 -0.4952
 3257TIP3    H131262   3.800   2.378  41.275  0.1786 -0.7306 -0.1710
 3257TIP3    H231263   3.682   2.378  41.370 -0.1055  0.8161 -0.4915
 3258TIP3   OH231264   2.162   1.562  45.383 -0.3351 -0.5766  0.3525
 3258TIP3    H131265   2.116   1.558  45.466 -0.4557 -0.8552  0.2749
 3258TIP3    H231266   2.242   1.512  45.397  0.7783  1.2904  1.0074
 3259TIP3   OH231267   3.600   0.191  11.410  0.2760 -0.1573  0.1923
 3259TIP3    H131268   3.600   0.224  11.320 -0.3656 -1.7133 -0.4131
 3259TIP3    H231269   3.593   0.270  11.464 -0.4418  0.7377 -1.1422
 3260TIP3   OH231270   0.023   2.174  16.965 -0.3348  0.1992  0.1928
 3260TIP3    H131271   0.024   2.239  17.035  0.8915 -0.9950  1.3500
 3260TIP3    H231272   0.011   2.225  16.885 -1.7326  1.6125  1.2325
 3261TIP3   OH231273   2.851   0.300  34.333  0.1600  0.1735  0.7540
 3261TIP3    H131274   2.901   0.314  34.413 -0.0136 -0.6409  1.0078
 3261TIP3    H231275   2.764   0.333  34.352 -0.3616 -1.5522  1.4878
 3262TIP3   OH231276   3.406   2.274  38.420  0.2436 -0.3235  0.7072
 3262TIP3    H131277   3.405   2.356  38.470  2.8880 -0.8653  1.8517
 3262TIP3    H231278   3.493   2.272  38.379 -0.5393 -1.6096 -1.0298
 3263TIP3   OH231279   0.926   2.256  31.525  0.6762 -0.0031 -0.1709
 3263TIP3    H131280   0.908   2.167  31.556  0.7865  0.0704  0.1084
 3263TIP3    H231281   0.869   2.267  31.449  1.0604 -0.5112 -0.5406
 3264TIP3   OH231282   3.199   0.259  39.003  0.2490 -0.1176  0.0647
 3264TIP3    H131283   3.232   0.330  39.059  1.5209 -1.1062  0.6303
 3264TIP3    H231284   3.120   0.295  38.963  0.0565  1.1086  1.4467
 3265TIP3   OH231285   2.672   1.274  41.251  0.0827  0.0845 -0.1598
 3265TIP3    H131286   2.596   1.320  41.214  0.3289  1.1612  0.5949
 3265TIP3    H231287   2.727   1.254  41.176 -2.1781 -3.2500 -1.1131
 3266TIP3   OH231288   1.839   1.058   2.220 -1.0666 -0.2880 -0.3428
 3266TIP3    H131289   1.756   1.011   2.220 -1.5987  0.5028  2.1541
 3266TIP3    H231290   1.875   1.044   2.307  1.3281 -0.3735 -1.2644
 3267TIP3   OH231291   2.510   4.030   8.940 -0.1297 -0.1771  0.3558
 3267TIP3    H131292   2.561   4.104   8.907  0.0030  0.6792  2.3624
 3267TIP3    H231293   2.430   4.070   8.974 -0.0458 -0.9368  1.4938
 3268TIP3   OH231294   1.580   3.894   3.752  0.2688 -0.1029  0.3417
 3268TIP3    H131295   1.594   3.969   3.810 -2.1201 -1.7576  3.4032
 3268TIP3    H231296   1.508   3.921   3.695  0.8128  0.5957 -0.0405
 3269TIP3   OH231297   1.235   3.187  11.563 -0.1143  0.1087 -0.5540
 3269TIP3    H131298   1.271   3.120  11.505 -0.5570 -0.7466  0.1372
 3269TIP3    H231299   1.140   3.172  11.562 -0.2699  1.0210 -0.7416
 3270TIP3   OH231300   1.854   3.887   1.465 -0.1924  0.3416  0.0188
 3270TIP3    H131301   1.826   3.917   1.379 -0.1258  0.9611  0.2128
 3270TIP3    H231302   1.855   3.965   1.520 -0.2752 -0.0518  0.5988
 3271TIP3   OH231303   3.660   1.480  21.798  0.3040 -0.1381 -0.1165
 3271TIP3    H131304   3.673   1.444  21.710  0.3897  0.2168 -0.2523
 3271TIP3    H231305   3.601   1.418  21.841  0.6788 -0.5910 -0.2474
 3272TIP3   OH231306   2.214   1.719   5.967 -0.0187  0.5870 -0.1786
 3272TIP3    H131307   2.211   1.707   6.062 -0.8142  0.9539 -0.1478
 3272TIP3    H231308   2.306   1.736   5.948  0.0763  0.9593  0.5790
 3273TIP3   OH231309   2.928   0.680  46.843  0.2350  0.1355 -0.0470
 3273TIP3    H131310   2.919   0.619  46.769 -0.6119 -0.4959  0.5516
 3273TIP3    H231311   2.860   0.745  46.829  1.2943  1.1210 -0.8128
 3274TIP3   OH231312   0.818   3.411   1.956  0.0556 -0.5179  0.3259
 3274TIP3    H131313   0.827   3.437   2.048 -3.0125 -0.3571  0.6549
 3274TIP3    H231314   0.828   3.493   1.907  0.3718 -0.3975  0.5831
 3275TIP3   OH231315   3.483   1.674  16.972  0.3948  0.2289 -0.4072
 3275TIP3    H131316   3.446   1.719  17.047  0.4905 -0.5806  0.1424
 3275TIP3    H231317   3.517   1.744  16.916  1.9770  0.8076  1.1685
 3276TIP3   OH231318   1.448   2.141  11.536  0.4786 -0.1209 -0.3163
 3276TIP3    H131319   1.523   2.096  11.498  1.6019 -0.0205  1.6085
 3276TIP3    H231320   1.377   2.078  11.531  1.0986 -0.7942 -0.8340
 3277TIP3   OH231321   2.666   3.460  36.326 -0.4633  0.0400  0.3979
 3277TIP3    H131322   2.657   3.390  36.391 -0.1764  1.1480  1.6742
 3277TIP3    H231323   2.577   3.476  36.296 -0.8222  0.5783  1.6924
 3278TIP3   OH231324   2.683   0.307  33.363 -0.1295 -0.5719 -0.1578
 3278TIP3    H131325   2.678   0.257  33.281 -0.7334  0.4284 -0.7456
 3278TIP3    H231326   2.603   0.283  33.410 -1.0228  0.7108 -0.9691
 3279TIP3   OH231327   1.011   3.618  44.854 -0.0624 -0.0810 -0.4257
 3279TIP3    H131328   1.087   3.644  44.802  0.3647 -0.9823 -0.2789
 3279TIP3    H231329   0.970   3.548  44.802 -1.6142  1.2954 -1.1872
 3280TIP3   OH231330   1.567   3.052   2.550  0.7338 -0.3834  0.0371
 3280TIP3    H131331   1.508   2.978   2.557  1.4510 -0.8843  1.1105
 3280TIP3    H231332   1.521   3.115   2.495 -0.2283 -1.2918 -0.2193
 3281TIP3   OH231333   2.124   1.279  14.614  0.5263 -0.0605  0.2931
 3281TIP3    H131334   2.168   1.304  14.532 -1.2901  0.4243 -0.5934
 3281TIP3    H231335   2.074   1.357  14.639 -0.0086 -0.6538  1.1197
 3282TIP3   OH231336   1.012   3.469   6.649 -0.0904 -0.0127  0.6081
 3282TIP3    H131337   1.034   3.561   6.635 -1.1401  0.0320 -1.0132
 3282TIP3    H231338   0.955   3.469   6.726 -0.3085  0.7408  0.4539
 3283TIP3   OH231339   1.180   2.333  37.767 -0.2620  0.3145 -0.2513
 3283TIP3    H131340   1.240   2.408  37.769  1.1530 -0.7696  0.7804
 3283TIP3    H231341   1.187   2.300  37.678 -0.5092  1.1147 -0.5703
 3284TIP3   OH231342   3.859   3.659   7.905  0.3419 -0.5201  0.0479
 3284TIP3    H131343   3.787   3.616   7.860  0.9927 -0.5857 -0.9576
 3284TIP3    H231344   3.822   3.687   7.989 -1.2542  0.7190 -1.0084
 3285TIP3   OH231345   2.242   3.819   3.412 -0.0111  0.4168 -0.1662
 3285TIP3    H131346   2.240   3.909   3.446 -0.9966  0.1491  0.5410
 3285TIP3    H231347   2.253   3.765   3.489  0.4951 -0.0790 -0.5848
 3286TIP3   OH231348   1.127   2.991   2.946 -0.5020 -0.1350 -0.2934
 3286TIP3    H131349   1.076   3.072   2.942  0.5206  0.6097  0.9464
 3286TIP3    H231350   1.077   2.934   3.004 -1.8857 -0.9465 -2.1664
 3287TIP3   OH231351   2.438   2.004  40.311 -0.1507  0.7614  0.4930
 3287TIP3    H131352   2.469   1.966  40.228 -0.8855  1.2289 -0.0101
 3287TIP3    H231353   2.403   1.929  40.360  0.6108  0.4282  0.5362
 3288TIP3   OH231354   0.687   0.066  12.806 -0.1988  0.0845 -0.4781
 3288TIP3    H131355   0.738   0.032  12.880 -0.9212  1.3385  0.6414
 3288TIP3    H231356   0.613   0.005  12.799 -1.3756  1.2116  1.3827
 3289TIP3   OH231357   2.813   1.618  16.378  0.3222  0.0835 -0.2185
 3289TIP3    H131358   2.838   1.531  16.409 -1.1640  0.3799  2.0661
 3289TIP3    H231359   2.843   1.621  16.287  1.3232 -2.4174 -0.0418
 3290TIP3   OH231360   0.238   0.168  31.159 -0.3536 -0.5788  0.2619
 3290TIP3    H131361   0.214   0.172  31.252  1.3421  2.2038  0.6877
 3290TIP3    H231362   0.208   0.082  31.131 -1.2375 -1.3978  3.2912
 3291TIP3   OH231363   1.787   2.314  45.047  0.4107 -0.1815  0.0885
 3291TIP3    H131364   1.813   2.402  45.019 -1.3548  0.6983  1.0237
 3291TIP3    H231365   1.845   2.255  44.999  1.3225  1.4688 -0.9285
 3292TIP3   OH231366   2.465   0.371  10.928 -0.0019 -0.3145 -0.3015
 3292TIP3    H131367   2.378   0.340  10.955  0.0134  0.0022  0.1230
 3292TIP3    H231368   2.446   0.430  10.855 -0.2016  0.2553  0.2054
 3293TIP3   OH231369   3.930   0.979   2.993 -0.3602  0.5018  0.1021
 3293TIP3    H131370   3.921   1.074   3.000 -1.9444  0.3352  0.7435
 3293TIP3    H231371   3.865   0.954   2.928  1.4664  0.0263 -1.6568
 3294TIP3   OH231372   2.684   3.674  31.466  0.2012 -0.0521 -0.2818
 3294TIP3    H131373   2.755   3.619  31.435  0.8617  0.4410  0.3195
 3294TIP3    H231374   2.608   3.616  31.470  0.6441 -0.6624 -0.6193
 3295TIP3   OH231375   1.047   3.438   2.879 -0.1847  0.2903  0.2408
 3295TIP3    H131376   1.002   3.520   2.897  0.5859  0.8852 -0.5077
 3295TIP3    H231377   1.124   3.462   2.829 -0.6051 -1.0122 -1.1111
 3296TIP3   OH231378   4.063   3.253   2.066  0.6263  0.5258 -0.4950
 3296TIP3    H131379   3.978   3.211   2.077  0.7419  0.5101  0.4497
 3296TIP3    H231380   4.046   3.328   2.009 -0.3842  1.5491  1.0550
 3297TIP3   OH231381   3.698   2.482  11.516  0.0215 -0.2470 -0.2390
 3297TIP3    H131382   3.661   2.568  11.539  0.3036 -0.3595  0.6767
 3297TIP3    H231383   3.723   2.491  11.424 -0.0233  0.6305 -0.1781
 3298TIP3   OH231384   3.541   0.294  35.621  0.4770  0.0794  0.1541
 3298TIP3    H131385   3.473   0.354  35.590  0.4193  1.0665  2.0652
 3298TIP3    H231386   3.493   0.219  35.656  0.2704  1.1475  2.2777
 3299TIP3   OH231387   2.996   0.291   0.563 -0.5216 -0.3040 -0.0156
 3299TIP3    H131388   2.946   0.214   0.536  0.5598 -1.6745  1.7017
 3299TIP3    H231389   3.010   0.340   0.482 -2.9367 -0.8457 -0.8369
 3300TIP3   OH231390   2.708   1.400   7.317 -0.2319 -0.4750 -0.6305
 3300TIP3    H131391   2.717   1.308   7.291 -0.6907 -1.1053  1.3143
 3300TIP3    H231392   2.797   1.427   7.341 -0.4210 -1.1025  0.8791
 3301TIP3   OH231393   3.297   3.512   9.988  0.0962 -0.0336  0.1605
 3301TIP3    H131394   3.270   3.597   9.953 -1.1493  0.1696  1.5075
 3301TIP3    H231395   3.227   3.488  10.050  1.5104 -0.9797  1.4668
 3302TIP3   OH231396   3.967   0.532  33.156 -0.1409 -0.4628  0.0359
 3302TIP3    H131397   3.877   0.505  33.174 -0.1485  0.6218  1.8775
 3302TIP3    H231398   3.963   0.628  33.154  0.8653 -0.4198 -0.5728
 3303TIP3   OH231399   2.055   0.920  37.833 -0.3512 -0.2994 -0.0343
 3303TIP3    H131400   1.965   0.945  37.816  0.1029  0.7705 -0.9795
 3303TIP3    H231401   2.052   0.824  37.839 -1.5210 -0.2882 -0.1971
 3304TIP3   OH231402   0.709   3.264  27.489  0.1504  0.1994 -0.2814
 3304TIP3    H131403   0.754   3.340  27.526  1.9791 -0.3914 -1.1735
 3304TIP3    H231404   0.779   3.211  27.451 -1.0700 -1.9816  0.3614
 3305TIP3   OH231405   0.091   1.415  13.137 -0.4462 -0.3117 -0.2992
 3305TIP3    H131406   0.070   1.343  13.077  1.1533 -2.1820  1.2026
 3305TIP3    H231407   0.187   1.411  13.145 -0.6017 -0.1437  2.3108
 3306TIP3   OH231408   3.651   1.914   9.287  0.2710  0.3999  0.0951
 3306TIP3    H131409   3.609   1.948   9.366 -1.2851  0.8539 -0.8679
 3306TIP3    H231410   3.673   1.824   9.309  1.5755  1.0415  1.6357
 3307TIP3   OH231411   2.165   1.657   3.472  0.6802  0.1438  0.0322
 3307TIP3    H131412   2.153   1.569   3.436 -1.1655  0.6752 -0.7725
 3307TIP3    H231413   2.256   1.679   3.450  0.9489 -1.2669 -0.4017
 3308TIP3   OH231414   2.663   2.218  35.531  0.4306  0.6064  0.1625
 3308TIP3    H131415   2.720   2.265  35.591  1.8417 -0.0738 -0.6135
 3308TIP3    H231416   2.590   2.278  35.515  1.8390  2.2573 -0.2762
 3309TIP3   OH231417   2.142   0.751  38.295  0.4600 -0.1737  0.3361
 3309TIP3    H131418   2.159   0.749  38.389 -0.5953 -0.5885  0.5295
 3309TIP3    H231419   2.129   0.844  38.276  1.7854  0.0428  0.3737
 3310TIP3   OH231420   1.519   1.561   2.519  0.2079  0.1465  0.0063
 3310TIP3    H131421   1.445   1.587   2.574  1.1713 -1.0479  1.9929
 3310TIP3    H231422   1.596   1.585   2.571  1.1904 -0.2172 -1.2343
 3311TIP3   OH231423   0.012   2.336  13.316 -0.6896 -0.0424 -0.1522
 3311TIP3    H131424  -0.004   2.268  13.250 -0.1106 -1.6376  1.2708
 3311TIP3    H231425   0.089   2.306  13.364  0.0850  2.0639  0.0267
 3312TIP3   OH231426   0.411   1.638  21.524 -0.5875 -0.1293  0.4520
 3312TIP3    H131427   0.401   1.626  21.430 -1.1113 -1.9311  0.7027
 3312TIP3    H231428   0.505   1.629  21.540 -0.3925  0.9996  0.0202
 3313TIP3   OH231429   2.244   1.960   6.746  0.6803 -0.1196 -0.4579
 3313TIP3    H131430   2.165   2.004   6.716  0.3866 -0.5464 -0.3112
 3313TIP3    H231431   2.303   2.031   6.771 -0.7287  0.2477  2.3040
 3314TIP3   OH231432   2.404   3.525  30.499  0.3186 -0.4026 -0.0372
 3314TIP3    H131433   2.431   3.570  30.419  0.7042 -0.0516  0.2842
 3314TIP3    H231434   2.478   3.469  30.522  1.0284  0.9448  1.1312
 3315TIP3   OH231435   3.236   3.570  47.747 -0.4238 -0.1119  0.5591
 3315TIP3    H131436   3.237   3.585  47.841  2.1838  1.8155  0.3513
 3315TIP3    H231437   3.328   3.582  47.720 -0.9690 -1.2044 -2.1479
 3316TIP3   OH231438   0.138   3.440  40.070  0.1168 -0.3076  0.7290
 3316TIP3    H131439   0.222   3.396  40.056  0.2154  0.7883 -3.1760
 3316TIP3    H231440   0.160   3.533  40.074 -0.9285  0.0904 -1.5406
 3317TIP3   OH231441   1.741   3.456   6.951 -0.3012 -0.0256  0.4100
 3317TIP3    H131442   1.796   3.466   6.874 -1.5802  0.6668 -0.4575
 3317TIP3    H231443   1.774   3.521   7.013 -0.5575  0.8545 -0.3575
 3318TIP3   OH231444   3.557   3.399  40.999 -0.3723  0.1538  0.2766
 3318TIP3    H131445   3.522   3.466  41.059  1.8657  1.4045  0.2924
 3318TIP3    H231446   3.554   3.318  41.050 -0.9316  0.6925  1.1315
 3319TIP3   OH231447   2.129   3.213  15.511 -0.0174  0.2164  1.2829
 3319TIP3    H131448   2.062   3.250  15.453 -1.6988 -1.9799  1.6940
 3319TIP3    H231449   2.145   3.282  15.576  2.0889  2.8568 -1.7344
 3320TIP3   OH231450   0.011   1.074  46.804 -0.6589 -0.2898  0.2045
 3320TIP3    H131451   0.004   1.157  46.850 -0.9843  0.0178 -0.3863
 3320TIP3    H231452   0.104   1.066  46.783 -0.5800 -0.2221  0.5282
 3321TIP3   OH231453   1.773   1.482  37.479  0.0116  0.3655 -0.2642
 3321TIP3    H131454   1.843   1.531  37.522 -0.3519 -1.1258  2.2366
 3321TIP3    H231455   1.818   1.415  37.429  0.4107  0.4312  0.0045
 3322TIP3   OH231456   3.840   1.087   9.447 -1.0202 -0.2025 -0.1596
 3322TIP3    H131457   3.749   1.110   9.466 -0.5066  0.4994  1.6154
 3322TIP3    H231458   3.891   1.130   9.515  0.8321  0.8216 -2.0519
 3323TIP3   OH231459   3.752   2.696   5.511 -0.5596 -0.6708 -0.1340
 3323TIP3    H131460   3.728   2.688   5.603 -0.3356 -1.3790 -0.1353
 3323TIP3    H231461   3.762   2.606   5.480 -0.8052 -0.4467 -0.8977
 3324TIP3   OH231462   0.027   0.892   6.306 -0.4432 -0.3883 -0.9942
 3324TIP3    H131463   0.079   0.956   6.257 -2.7964  1.5418 -1.1578
 3324TIP3    H231464  -0.064   0.910   6.281 -1.4593 -1.7647  1.3209
 3325TIP3   OH231465   3.560   2.993  46.472 -0.0646 -0.2501 -1.0782
 3325TIP3    H131466   3.563   3.077  46.425  1.0460  0.8448  0.8233
 3325TIP3    H231467   3.641   2.991  46.523 -1.3153 -1.2278  0.9981
 3326TIP3   OH231468   3.947   3.619  40.010  0.8730  0.0853 -0.0046
 3326TIP3    H131469   3.911   3.685  40.069  1.6896 -0.2451  0.8930
 3326TIP3    H231470   4.016   3.665  39.962 -0.0300  0.4469 -0.9698
 3327TIP3   OH231471   2.529   3.946  39.317 -0.1060 -0.2802 -0.4403
 3327TIP3    H131472   2.462   3.882  39.341 -2.1150  1.4620 -1.0873
 3327TIP3    H231473   2.546   3.995  39.397 -0.3570 -0.0506 -0.5296
 3328TIP3   OH231474   2.397   3.095   5.796  0.4690  0.2195  0.1893
 3328TIP3    H131475   2.482   3.120   5.760  0.7375 -1.3339 -0.2993
 3328TIP3    H231476   2.349   3.058   5.722 -0.8402  1.4947  0.3428
 3329TIP3   OH231477   1.400   3.742  39.781  0.0328 -0.7253  0.7085
 3329TIP3    H131478   1.385   3.782  39.696  0.4411 -0.0980  0.9241
 3329TIP3    H231479   1.347   3.662  39.780  0.1433 -0.7922 -0.1774
 3330TIP3   OH231480   3.632   2.428  40.155 -0.2290 -0.3616 -0.3314
 3330TIP3    H131481   3.571   2.355  40.153  1.5298 -1.9134  0.3438
 3330TIP3    H231482   3.690   2.413  40.080  0.6114 -0.0685  0.2492
 3331TIP3   OH231483   3.879   1.504  11.503  0.6816 -0.3357 -0.2070
 3331TIP3    H131484   3.931   1.563  11.448 -0.9820  0.7971 -0.6470
 3331TIP3    H231485   3.834   1.447  11.441  0.7917 -0.7770  0.1192
 3332TIP3   OH231486   0.538   1.811  36.304 -0.5477  0.3469  0.2591
 3332TIP3    H131487   0.539   1.902  36.334 -0.7796  0.7884 -1.0004
 3332TIP3    H231488   0.597   1.810  36.228 -0.2083 -0.6578  0.5145
 3333TIP3   OH231489   0.433   0.559  45.002 -0.6575  0.0916 -0.1929
 3333TIP3    H131490   0.473   0.592  44.922 -1.7481 -0.1829 -0.8731
 3333TIP3    H231491   0.464   0.618  45.070 -0.5286  0.9528 -0.9798
 3334TIP3   OH231492   2.948   0.224   7.741  0.3510  0.0578 -0.1487
 3334TIP3    H131493   3.018   0.174   7.783 -1.8503 -1.0682  2.4368
 3334TIP3    H231494   2.881   0.159   7.721 -0.1857  1.1672 -2.2153
 3335TIP3   OH231495   3.088   3.741  10.889  0.5506 -0.3231  0.2655
 3335TIP3    H131496   3.121   3.651  10.888  0.6871 -0.2793  0.6539
 3335TIP3    H231497   3.158   3.793  10.851  0.8271 -0.2665  0.8435
 3336TIP3   OH231498   2.515   3.595  45.461  0.5626  0.0071 -0.2789
 3336TIP3    H131499   2.522   3.687  45.435  0.4536  0.3433  0.8468
 3336TIP3    H231500   2.442   3.561  45.409 -0.9689  1.1918  1.0168
 3337TIP3   OH231501   0.033   1.313  36.265 -0.3858  0.5508 -0.1362
 3337TIP3    H131502   0.090   1.243  36.233  0.0308  0.6074  0.4580
 3337TIP3    H231503   0.031   1.377  36.194  1.9108  1.4897  0.5256
 3338TIP3   OH231504   4.038   0.499   3.455  0.0506 -0.2810  1.0755
 3338TIP3    H131505   3.959   0.445   3.456 -0.9761  1.1769  1.4411
 3338TIP3    H231506   4.108   0.438   3.428 -0.6921 -2.2382  3.2286
 3339TIP3   OH231507   0.628   0.312  40.229  0.0630  0.2646 -0.2749
 3339TIP3    H131508   0.694   0.380  40.244  0.0142  0.0059  1.2110
 3339TIP3    H231509   0.645   0.282  40.139  2.2335 -0.0498  0.1792
 3340TIP3   OH231510   0.118   1.602   2.050  0.3082  0.2140 -0.6365
 3340TIP3    H131511   0.032   1.599   2.009 -0.1606 -1.5458  0.3770
 3340TIP3    H231512   0.103   1.643   2.135  0.8143  1.4778 -1.1268
 3341TIP3   OH231513   2.996   1.578  12.527  0.0254 -0.1082 -0.0282
 3341TIP3    H131514   3.038   1.588  12.442 -0.0173 -1.1653 -0.1815
 3341TIP3    H231515   2.941   1.500  12.518  1.3424 -1.2678  1.4895
 3342TIP3   OH231516   2.991   0.012  14.917  0.0633  0.2430 -0.2977
 3342TIP3    H131517   3.030  -0.030  14.841  0.8256 -0.1598  0.3042
 3342TIP3    H231518   3.021   0.103  14.913  1.0596 -0.0504  0.1348
 3343TIP3   OH231519   0.090   3.448  36.490  0.0957 -0.3790 -0.0233
 3343TIP3    H131520   0.093   3.472  36.582 -2.1793  1.9423 -0.4300
 3343TIP3    H231521   0.127   3.523  36.444 -0.0649 -0.9209 -1.0667
 3344TIP3   OH231522   0.651   2.860  14.890  0.0596  0.3858  0.6330
 3344TIP3    H131523   0.647   2.947  14.928  2.1392  0.8102 -0.0216
 3344TIP3    H231524   0.638   2.800  14.964 -0.4956  1.2203  1.2206
 3345TIP3   OH231525   3.232   2.931  40.517  0.1984 -0.1802  0.5950
 3345TIP3    H131526   3.275   3.004  40.474  0.0477 -0.3326  0.1845
 3345TIP3    H231527   3.288   2.856  40.498  0.3042 -0.1887  0.9382
 3346TIP3   OH231528   3.020   0.298   9.458 -0.0808  0.4450  0.2868
 3346TIP3    H131529   2.940   0.248   9.472 -0.0376  0.3079  0.0393
 3346TIP3    H231530   3.050   0.320   9.547  0.3163 -0.6211  0.4308
 3347TIP3   OH231531   0.291   1.769   3.477 -0.3322 -0.3959  0.0878
 3347TIP3    H131532   0.286   1.682   3.437  0.8333 -0.2686 -0.3765
 3347TIP3    H231533   0.242   1.825   3.418  1.0678 -0.2781 -1.0322
 3348TIP3   OH231534   1.495   4.052  29.986  0.4720 -0.2985  0.1713
 3348TIP3    H131535   1.565   4.065  29.922  1.8256 -0.9442  1.4664
 3348TIP3    H231536   1.449   3.973  29.956  0.5168 -0.0811 -0.4861
 3349TIP3   OH231537   0.314   3.875  11.503  0.1632 -0.0235 -0.3734
 3349TIP3    H131538   0.390   3.929  11.485 -0.3966  1.4674  1.3981
 3349TIP3    H231539   0.339   3.821  11.579 -0.8282  1.2376  0.9046
 3350TIP3   OH231540   0.969   2.839  38.909 -0.1940 -0.4699 -0.4759
 3350TIP3    H131541   0.874   2.830  38.904 -0.4005  1.4461 -0.4711
 3350TIP3    H231542   0.995   2.874  38.824  0.1670  1.4128  0.3571
 3351TIP3   OH231543   2.528   0.136   9.578  0.2958 -0.1736  0.7473
 3351TIP3    H131544   2.589   0.203   9.610  1.0408  0.2951 -1.4561
 3351TIP3    H231545   2.523   0.152   9.484  0.9767 -3.5977  0.0074
 3352TIP3   OH231546   3.341   1.154  18.576  0.2149 -0.6940 -0.0905
 3352TIP3    H131547   3.435   1.169  18.586 -0.0900  1.1329  0.4558
 3352TIP3    H231548   3.304   1.174  18.662 -1.1633  3.6374 -1.4418
 3353TIP3   OH231549   3.634   1.105  36.621 -0.4814 -0.2177 -0.0435
 3353TIP3    H131550   3.673   1.188  36.596 -1.0784 -0.0899 -0.5971
 3353TIP3    H231551   3.635   1.105  36.717  0.1210  0.1333 -0.0486
 3354TIP3   OH231552   0.985   3.577  36.937 -0.3176 -0.4571 -0.3914
 3354TIP3    H131553   0.936   3.571  36.856 -1.2608 -0.2075  0.1381
 3354TIP3    H231554   1.023   3.664  36.936 -0.4219 -0.4135 -0.5240
 3355TIP3   OH231555   0.522   2.603  36.133 -0.5237 -0.5766  0.1171
 3355TIP3    H131556   0.569   2.519  36.134  0.2455 -0.1974 -1.3784
 3355TIP3    H231557   0.450   2.590  36.072 -1.6627 -0.7620  1.4588
 3356TIP3   OH231558   2.614   0.551  45.464  0.1783  0.0353  0.0159
 3356TIP3    H131559   2.690   0.499  45.490  0.1453 -0.1615 -0.2834
 3356TIP3    H231560   2.587   0.596  45.545  0.8051  0.3587  0.0536
 3357TIP3   OH231561   1.358   1.909  43.751  0.0106  0.3407 -0.3524
 3357TIP3    H131562   1.443   1.953  43.741 -0.4817  1.0346 -1.7890
 3357TIP3    H231563   1.377   1.817  43.732  0.4323  0.5092 -0.7840
 3358TIP3   OH231564   1.699   1.691  36.750 -0.1077 -0.0341 -0.3613
 3358TIP3    H131565   1.610   1.663  36.772  0.0136  0.0222  0.2060
 3358TIP3    H231566   1.706   1.675  36.656 -1.2131  1.3316 -0.7038
 3359TIP3   OH231567   0.470   1.990   6.889  0.0779  0.0268  0.1010
 3359TIP3    H131568   0.389   1.968   6.934  0.3012  1.8591  1.5083
 3359TIP3    H231569   0.512   2.055   6.945  1.4289  0.8205 -1.7246
 3360TIP3   OH231570   2.978   4.089  33.813 -0.4301 -0.0264  0.4462
 3360TIP3    H131571   3.047   4.153  33.797  1.4791 -1.3560  2.5716
 3360TIP3    H231572   2.899   4.128  33.777  1.1432  2.2699 -0.7508
 3361TIP3   OH231573   0.151   0.617  31.240  0.1269 -0.4155  0.0310
 3361TIP3    H131574   0.093   0.693  31.244 -0.0021 -0.5330  0.5194
 3361TIP3    H231575   0.191   0.621  31.153  2.4146  1.9012  1.0608
 3362TIP3   OH231576   3.171   2.735  33.805 -0.1814 -0.3629  0.1932
 3362TIP3    H131577   3.162   2.751  33.711  2.0264  1.7480  0.2521
 3362TIP3    H231578   3.149   2.819  33.846  0.3866 -0.7947  1.4328
 3363TIP3   OH231579   2.894   2.451   5.831 -0.0453  0.1050  0.2161
 3363TIP3    H131580   2.910   2.545   5.825 -1.0509  0.3094  0.4316
 3363TIP3    H231581   2.811   2.444   5.878  0.2394 -0.9118  0.5995
 3364TIP3   OH231582   0.144   2.917   7.307  0.6610  0.3304  0.2534
 3364TIP3    H131583   0.053   2.941   7.326  0.8213  0.8039  0.4505
 3364TIP3    H231584   0.167   2.856   7.377  0.3274 -0.2197 -0.1075
 3365TIP3   OH231585   3.711   1.244   0.432  0.4535  0.1118  0.2261
 3365TIP3    H131586   3.686   1.249   0.525  2.7475 -2.1459  1.0800
 3365TIP3    H231587   3.657   1.174   0.396  0.5727 -0.0012  0.2630
 3366TIP3   OH231588   3.383   3.587   6.135 -0.5572  0.6378 -0.3474
 3366TIP3    H131589   3.401   3.624   6.222  0.5804  1.5156 -0.9302
 3366TIP3    H231590   3.289   3.600   6.123 -0.4971  1.7119  0.2268
 3367TIP3   OH231591   1.842   1.909  11.088  0.0316 -0.0740 -0.5566
 3367TIP3    H131592   1.783   1.839  11.115 -0.0942  0.2448  0.0021
 3367TIP3    H231593   1.816   1.928  10.998  0.0960 -0.7690 -0.7285
 3368TIP3   OH231594   2.573   1.242   1.013  0.3234  1.1676  0.5687
 3368TIP3    H131595   2.551   1.331   0.987 -2.0471  0.1987 -1.0689
 3368TIP3    H231596   2.519   1.225   1.090 -2.0132  0.0719 -1.1892
 3369TIP3   OH231597   1.931   2.132   9.162  0.2935  0.5850  0.0331
 3369TIP3    H131598   1.955   2.222   9.186  1.5903 -0.1994  1.9497
 3369TIP3    H231599   1.988   2.078   9.215 -1.2805 -1.4109 -0.2078
 3370TIP3   OH231600   3.390   1.651   1.242 -0.1335  0.3962  0.3474
 3370TIP3    H131601   3.429   1.727   1.199 -1.8835  0.9689 -0.3184
 3370TIP3    H231602   3.431   1.575   1.200 -0.2075  0.9691 -0.8026
 3371TIP3   OH231603   3.651   1.949   0.861 -0.4022  0.0406  0.2427
 3371TIP3    H131604   3.738   1.950   0.902 -1.0254 -0.0798  1.6112
 3371TIP3    H231605   3.667   1.916   0.772  0.6395 -2.4578  1.2624
 3372TIP3   OH231606   3.043   2.894  42.193 -0.1407 -0.5393  0.3617
 3372TIP3    H131607   3.107   2.963  42.209 -0.5491  0.0060 -0.3449
 3372TIP3    H231608   3.088   2.832  42.135  0.5768 -1.4077  1.7868
 3373TIP3   OH231609   0.828   0.160  32.778 -0.6804 -0.3244  0.0040
 3373TIP3    H131610   0.771   0.225  32.819 -0.8895 -1.1515  1.0654
 3373TIP3    H231611   0.913   0.173  32.820 -0.7230 -0.7476  0.2139
 3374TIP3   OH231612   2.013   4.080  34.242 -0.2107  0.1703  0.1975
 3374TIP3    H131613   1.942   4.135  34.208  0.7834  2.2041  1.1764
 3374TIP3    H231614   1.999   4.080  34.337  0.4681 -0.2893  0.3072
 3375TIP3   OH231615   3.393   2.468  12.482  0.7250  0.0784  0.0047
 3375TIP3    H131616   3.402   2.485  12.576  1.3335  1.1693 -0.2313
 3375TIP3    H231617   3.316   2.519  12.456  0.8668  0.1937 -0.1872
 3376TIP3   OH231618   1.037   2.983  10.977  0.3833 -0.1698 -0.0222
 3376TIP3    H131619   1.071   2.950  10.895 -0.5682  0.4869 -0.7096
 3376TIP3    H231620   1.066   3.074  10.980  0.2116 -0.1212  0.2402
 3377TIP3   OH231621   0.248   0.988  44.064 -0.7007 -0.2465 -0.5662
 3377TIP3    H131622   0.245   1.043  43.986 -0.4331 -0.1587 -0.5128
 3377TIP3    H231623   0.209   1.041  44.133 -0.8446 -0.2871 -0.6152
 3378TIP3   OH231624   2.184   0.003  45.108  0.0481  0.0039  0.1332
 3378TIP3    H131625   2.261   0.005  45.052  0.4585 -0.1307  0.6815
 3378TIP3    H231626   2.187   0.084  45.158 -1.4882  1.1654 -1.5440
 3379TIP3   OH231627   1.186   0.937  12.693  0.1356 -0.2911 -0.2470
 3379TIP3    H131628   1.149   0.871  12.751 -2.3658  0.4858 -0.8353
 3379TIP3    H231629   1.241   0.888  12.631  1.3518 -1.3211  1.5759
 3380TIP3   OH231630   2.576   0.114  32.532 -0.0510  0.0991 -0.1059
 3380TIP3    H131631   2.593   0.202  32.565 -1.1629  0.3379 -0.1060
 3380TIP3    H231632   2.658   0.066  32.544  0.2875  0.8780  0.7433
 3381TIP3   OH231633   1.888   0.408  33.757  0.0023  0.2505  0.4361
 3381TIP3    H131634   1.936   0.469  33.814  0.6312  1.5441 -1.3891
 3381TIP3    H231635   1.932   0.415  33.673 -1.2284 -1.2089 -0.3644
 3382TIP3   OH231636   1.656   3.704  25.873 -0.4135  0.2353 -0.1907
 3382TIP3    H131637   1.733   3.676  25.923 -1.5324  0.7777  1.9851
 3382TIP3    H231638   1.668   3.798  25.863 -0.0025  0.0695 -1.3484
 3383TIP3   OH231639   3.623   3.428  39.646 -0.1666 -0.5264 -0.2942
 3383TIP3    H131640   3.573   3.510  39.656 -1.6767 -1.3786 -0.5291
 3383TIP3    H231641   3.696   3.438  39.707 -1.7278 -0.0211  1.6256
 3384TIP3   OH231642   2.073   2.752  31.931  0.3610  0.5009  0.5496
 3384TIP3    H131643   2.102   2.678  31.984  0.3629  0.9865  1.2378
 3384TIP3    H231644   2.068   2.825  31.993 -2.1737  0.4922  0.4474
 3385TIP3   OH231645   2.158   3.352  44.170 -0.2518 -0.6456  0.4748
 3385TIP3    H131646   2.092   3.417  44.194  1.2704  1.2108 -0.0413
 3385TIP3    H231647   2.195   3.324  44.254 -1.7467 -1.8064  0.7746
 3386TIP3   OH231648   2.934   3.050  35.344 -0.4604  0.3899  0.2355
 3386TIP3    H131649   2.985   3.013  35.272 -0.7035  2.1417 -0.9015
 3386TIP3    H231650   2.869   2.983  35.364  1.0472 -1.0802  0.4158
 3387TIP3   OH231651   1.270   0.010  27.194 -0.6114  0.1258 -0.3189
 3387TIP3    H131652   1.312  -0.022  27.113 -0.7974  2.1091 -1.2710
 3387TIP3    H231653   1.342   0.020  27.256 -0.0756  0.8571 -1.0397
 3388TIP3   OH231654   3.402   0.458  24.023 -0.3806  0.1614 -0.2056
 3388TIP3    H131655   3.426   0.517  24.095  1.1583 -0.0651 -0.5012
 3388TIP3    H231656   3.312   0.482  24.001  0.5164  3.1763 -1.0303
 3389TIP3   OH231657   3.773   3.123   2.057 -0.2116  0.0913  0.1302
 3389TIP3    H131658   3.737   3.130   1.969 -1.4187  1.0518  0.6670
 3389TIP3    H231659   3.702   3.152   2.115  0.8492  0.3646  1.3567
 3390TIP3   OH231660   1.938   3.296  14.278 -0.2881 -0.1873 -0.2287
 3390TIP3    H131661   2.014   3.354  14.274  0.4321 -1.0432  0.6263
 3390TIP3    H231662   1.922   3.269  14.188  0.4579 -0.0394 -0.4069
 3391TIP3   OH231663   1.336   1.719  10.934 -0.0358  0.8724  0.2264
 3391TIP3    H131664   1.386   1.684  11.008  1.4503  0.5195 -0.8923
 3391TIP3    H231665   1.388   1.695  10.857 -2.6807 -0.8429 -1.1608
 3392TIP3   OH231666   1.318   1.572   0.686 -0.2215  0.4084 -0.0487
 3392TIP3    H131667   1.270   1.589   0.604 -0.1814  0.8305  0.0118
 3392TIP3    H231668   1.254   1.590   0.755 -0.7127 -1.3744  0.0031
 3393TIP3   OH231669   3.866   3.370  47.590  0.1681 -0.4098  0.1067
 3393TIP3    H131670   3.917   3.337  47.663 -0.9893 -0.3589  0.9703
 3393TIP3    H231671   3.925   3.365  47.515  1.0197 -1.5086  0.8206
 3394TIP3   OH231672   1.861   3.583  12.632  0.2751  0.6657 -0.7332
 3394TIP3    H131673   1.781   3.610  12.587 -0.5225 -0.7712 -0.2168
 3394TIP3    H231674   1.855   3.488  12.637  1.7126  0.5892 -0.0920
 3395TIP3   OH231675   0.369   1.242   1.488 -0.8068 -0.5519 -0.0492
 3395TIP3    H131676   0.387   1.247   1.582 -0.6815  1.0587 -0.1382
 3395TIP3    H231677   0.353   1.149   1.472  0.1169 -0.9905  1.3892
 3396TIP3   OH231678   2.274   2.283  33.459 -0.4606 -0.8900 -0.4851
 3396TIP3    H131679   2.263   2.224  33.385 -0.8630 -0.3668 -0.8493
 3396TIP3    H231680   2.367   2.278  33.480 -0.0369  0.0692 -1.9836
 3397TIP3   OH231681   3.689   1.413   8.959 -0.0733 -0.0581 -0.4033
 3397TIP3    H131682   3.596   1.398   8.946 -0.0147  0.0955 -1.0163
 3397TIP3    H231683   3.695   1.504   8.989 -0.1923 -0.3597  0.5929
 3398TIP3   OH231684   0.001   3.195   3.844  0.0198  0.5889 -0.4148
 3398TIP3    H131685  -0.072   3.207   3.904  0.0647  0.6069 -0.3634
 3398TIP3    H231686  -0.036   3.206   3.757 -0.0992  0.2963 -0.4024
 3399TIP3   OH231687   1.040   2.555  10.274  0.1164 -0.4578  0.1467
 3399TIP3    H131688   1.127   2.568  10.312 -0.3225 -0.5826  1.2126
 3399TIP3    H231689   1.004   2.643  10.265 -0.1444 -0.4766  0.9171
 3400TIP3   OH231690   3.755   2.412   9.872 -0.0135  0.6923 -0.3585
 3400TIP3    H131691   3.777   2.491   9.921  0.8237  0.6021 -0.5646
 3400TIP3    H231692   3.661   2.402   9.882  0.2283  0.2408  1.9020
 3401TIP3   OH231693   3.594   3.312  11.733  0.1040 -0.0463 -0.3538
 3401TIP3    H131694   3.587   3.406  11.717  1.8742  0.1984  0.1182
 3401TIP3    H231695   3.546   3.297  11.814 -0.7613  0.3269 -0.7913
 3402TIP3   OH231696   2.070   2.532   8.758  0.0700 -0.2275 -0.8512
 3402TIP3    H131697   2.009   2.540   8.832  1.5170 -0.6348  0.4220
 3402TIP3    H231698   2.047   2.448   8.718 -0.7116 -0.0156 -0.8721
 3403TIP3   OH231699   3.472   0.567  10.038  0.4010 -0.1418 -0.1211
 3403TIP3    H131700   3.487   0.613  10.121 -1.1329 -1.6148  1.0481
 3403TIP3    H231701   3.549   0.510  10.029  0.1773 -0.6268  0.8093
 3404TIP3   OH231702   2.066   1.998  36.418 -0.4179 -0.4944  0.1931
 3404TIP3    H131703   2.024   1.917  36.443  0.7879 -1.8131 -1.7661
 3404TIP3    H231704   2.160   1.980  36.426 -0.1126  0.4609 -0.8815
 3405TIP3   OH231705   2.110   2.225   9.786 -0.4816 -0.1913 -0.1583
 3405TIP3    H131706   2.117   2.143   9.736  0.8087 -0.7403  0.8710
 3405TIP3    H231707   2.124   2.198   9.877 -0.2301  1.1653  0.2145
 3406TIP3   OH231708   0.471   3.710   5.259 -0.1042 -0.0027 -0.2595
 3406TIP3    H131709   0.534   3.661   5.206  1.7291  1.8291  0.1137
 3406TIP3    H231710   0.460   3.658   5.338 -0.0801 -0.9856 -0.8919
 3407TIP3   OH231711   1.629   1.544  35.286 -0.1072  0.1838 -0.2890
 3407TIP3    H131712   1.701   1.569  35.344  0.2633  1.7630 -1.3521
 3407TIP3    H231713   1.672   1.515  35.205 -0.6298 -1.2219 -0.0888
 3408TIP3   OH231714   1.802   3.282  11.539  0.0714  0.8768  0.3549
 3408TIP3    H131715   1.712   3.251  11.551  0.2643  0.9157  2.2265
 3408TIP3    H231716   1.792   3.370  11.502 -0.5803  0.1950 -1.1861
 3409TIP3   OH231717   1.373   1.820  46.263  0.5269  0.0270  0.3682
 3409TIP3    H131718   1.282   1.791  46.264 -0.6383  3.1194 -0.8706
 3409TIP3    H231719   1.385   1.865  46.346  1.1029 -0.8031  0.7383
 3410TIP3   OH231720   3.825   3.461   1.755  0.0343 -0.7406 -0.3580
 3410TIP3    H131721   3.883   3.501   1.821  1.3401 -0.9634 -1.3203
 3410TIP3    H231722   3.879   3.392   1.715 -1.0127 -1.1470 -1.0984
 3411TIP3   OH231723   2.045   1.401  33.019 -0.7451 -0.6652 -0.2179
 3411TIP3    H131724   1.996   1.460  33.077 -0.5640 -1.6632  0.9973
 3411TIP3    H231725   2.109   1.458  32.976 -2.5929  0.5673 -1.4608
 3412TIP3   OH231726   1.884   0.713  15.880 -0.2835 -0.5637  0.2251
 3412TIP3    H131727   1.878   0.625  15.842 -0.9802 -0.1090 -0.7282
 3412TIP3    H231728   1.956   0.706  15.943  0.1015 -1.6397 -0.3089
 3413TIP3   OH231729   0.129   2.822  46.045  0.0675  0.3146 -0.5940
 3413TIP3    H131730   0.161   2.731  46.040  0.7918  0.6216 -2.3150
 3413TIP3    H231731   0.198   2.868  46.093 -0.0695  0.0686 -0.1492
 3414TIP3   OH231732   0.633   1.535  31.376  0.1206  0.7227 -0.6778
 3414TIP3    H131733   0.636   1.532  31.472 -0.0521 -1.0154 -0.6976
 3414TIP3    H231734   0.688   1.609  31.352 -0.8846  2.0075  0.8057
 3415TIP3   OH231735   1.892   2.599   2.327 -0.1180 -0.0429  0.4008
 3415TIP3    H131736   1.927   2.635   2.408 -1.5691  0.1194  0.9927
 3415TIP3    H231737   1.800   2.627   2.326 -0.4559 -1.0861 -0.6902
 3416TIP3   OH231738   2.829   3.881  14.087 -0.2909  0.1122  0.2053
 3416TIP3    H131739   2.891   3.891  14.159 -0.6103 -0.7240  0.6046
 3416TIP3    H231740   2.840   3.790  14.059 -0.6903  0.2251 -0.3259
 3417TIP3   OH231741   3.364   3.194   1.813 -0.5368 -0.1533  0.3009
 3417TIP3    H131742   3.273   3.181   1.840 -0.6903 -1.2779 -0.6894
 3417TIP3    H231743   3.369   3.155   1.726  0.7698  0.3839  0.1146
 3418TIP3   OH231744   2.178   2.835  20.704 -0.6143 -0.1242 -0.8925
 3418TIP3    H131745   2.115   2.865  20.638 -1.8057 -1.3293 -0.3596
 3418TIP3    H231746   2.188   2.741  20.686  0.0554 -0.1984 -0.1790
 3419TIP3   OH231747   2.784   1.850   9.608 -0.4690 -0.0940  0.1003
 3419TIP3    H131748   2.757   1.829   9.518  0.0248  0.5523 -0.2125
 3419TIP3    H231749   2.875   1.822   9.612 -0.9372 -1.5705  0.9104
 3420TIP3   OH231750   1.215   1.868   0.354 -0.1321 -0.1464  0.3096
 3420TIP3    H131751   1.269   1.922   0.412  0.4540  0.1532 -0.4944
 3420TIP3    H231752   1.224   1.909   0.267 -2.5798  0.6057  0.3302
 3421TIP3   OH231753   2.061   2.957  15.568 -0.5388  0.3284 -0.1272
 3421TIP3    H131754   1.968   2.942  15.553 -0.6774  0.1545  0.8869
 3421TIP3    H231755   2.073   3.051  15.552 -0.9295  0.3941 -0.0439
 3422TIP3   OH231756   1.882   0.966  35.926  0.4232 -0.1339  0.2060
 3422TIP3    H131757   1.950   0.998  35.868  1.8254  0.4199  2.0335
 3422TIP3    H231758   1.800   0.979  35.878  1.5275 -0.2506 -1.8172
 3423TIP3   OH231759   0.226   0.854  10.959 -0.1152  0.7785  0.3672
 3423TIP3    H131760   0.137   0.825  10.982 -0.5185 -0.0427 -1.9392
 3423TIP3    H231761   0.215   0.947  10.940 -0.5682  0.6042 -0.2570
 3424TIP3   OH231762   2.276   3.983  26.286 -0.7789  0.5196 -0.4358
 3424TIP3    H131763   2.231   4.019  26.209  2.9427  2.1543 -2.1664
 3424TIP3    H231764   2.292   4.059  26.342  1.8818  0.6474 -1.1910
 3425TIP3   OH231765   3.505   2.806  41.632 -0.4206 -0.0416  0.1415
 3425TIP3    H131766   3.517   2.901  41.621 -0.5248 -0.0684 -0.2153
 3425TIP3    H231767   3.554   2.767  41.560 -0.1595 -0.2710  0.4409
 3426TIP3   OH231768   0.389   0.178  34.698 -0.2565 -0.2916 -0.0292
 3426TIP3    H131769   0.385   0.082  34.707  0.9355 -0.5072 -1.4781
 3426TIP3    H231770   0.337   0.197  34.620 -1.1933  0.3668  0.7221
 3427TIP3   OH231771   0.992   3.629  33.779  0.1870 -0.0150 -0.5526
 3427TIP3    H131772   1.014   3.617  33.686  0.1426  1.0274 -0.7098
 3427TIP3    H231773   1.074   3.659  33.819  0.2480 -0.6121 -0.2142
 3428TIP3   OH231774   2.638   1.581  32.603  0.3446  0.2389  0.7844
 3428TIP3    H131775   2.562   1.523  32.592 -0.1492  0.7798  1.2789
 3428TIP3    H231776   2.628   1.617  32.691  1.2102  0.2779  0.8767
 3429TIP3   OH231777   2.670   2.650   0.255  0.0914 -1.0757 -0.6033
 3429TIP3    H131778   2.595   2.708   0.243  0.4679 -0.4851 -0.1922
 3429TIP3    H231779   2.713   2.649   0.169  1.2611  0.9708 -0.1314
 3430TIP3   OH231780   3.240   1.051  34.221 -0.0380 -0.0094  0.3910
 3430TIP3    H131781   3.329   1.030  34.249  0.1825 -0.5312 -0.6654
 3430TIP3    H231782   3.188   1.047  34.302  0.4961 -1.9171  0.6812
 3431TIP3   OH231783   3.041   0.559  37.280 -0.1500  0.3698 -0.7564
 3431TIP3    H131784   2.977   0.603  37.224  0.3562  3.0573  0.5940
 3431TIP3    H231785   3.091   0.630  37.319  0.9860 -1.4694  1.3639
 3432TIP3   OH231786   3.579   0.481   5.856 -0.0862  0.0354 -0.0525
 3432TIP3    H131787   3.512   0.532   5.810  1.0051  0.5832 -1.0882
 3432TIP3    H231788   3.632   0.547   5.901  0.8575 -0.2401 -0.7515
 3433TIP3   OH231789   2.646   0.520   0.513  0.1283 -0.5091  0.1868
 3433TIP3    H131790   2.564   0.504   0.467 -0.0822  0.6466  0.1130
 3433TIP3    H231791   2.693   0.582   0.457  0.4969 -0.2068  0.8158
 3434TIP3   OH231792   2.013   2.275  41.895  0.0809 -0.2664  0.2513
 3434TIP3    H131793   1.923   2.307  41.896 -0.5100 -1.6107 -2.2045
 3434TIP3    H231794   2.067   2.354  41.892 -1.0365  0.5444  0.9470
 3435TIP3   OH231795   0.213   4.035  31.012  0.1232 -0.3917 -0.5626
 3435TIP3    H131796   0.180   3.952  30.977  0.2257 -0.6132 -0.1351
 3435TIP3    H231797   0.260   4.075  30.938  2.8099 -2.1595  0.0631
 3436TIP3   OH231798   3.787   0.669  46.297  0.3042  0.1889  0.2217
 3436TIP3    H131799   3.755   0.598  46.352  2.0024 -1.1049 -0.3486
 3436TIP3    H231800   3.844   0.720  46.355  0.4817  0.0240  0.1964
 3437TIP3   OH231801   0.516   3.116  12.483 -0.5494 -0.3432 -0.1076
 3437TIP3    H131802   0.518   3.131  12.577 -4.1941  0.0937  0.0235
 3437TIP3    H231803   0.534   3.023  12.473 -0.4964 -0.4719  1.0377
 3438TIP3   OH231804   0.138   3.240   7.447 -0.6532 -0.1428 -0.2584
 3438TIP3    H131805   0.130   3.311   7.511 -0.8476 -0.8596  0.5358
 3438TIP3    H231806   0.049   3.205   7.438 -0.3149 -1.2810  0.5444
 3439TIP3   OH231807   0.935   1.416  19.377  0.0545 -0.2555  0.6712
 3439TIP3    H131808   0.968   1.415  19.287  0.6191  0.0869  0.8680
 3439TIP3    H231809   1.006   1.456  19.427 -0.7921  0.7950  1.0611
 3440TIP3   OH231810   3.773   0.808   2.016 -0.1883 -0.1679 -0.6251
 3440TIP3    H131811   3.816   0.843   2.094 -1.3333 -0.0692 -0.0067
 3440TIP3    H231812   3.762   0.715   2.035 -1.8655  0.1258  0.0538
 3441TIP3   OH231813   0.896   0.287  42.182 -0.2327 -0.1911 -0.1176
 3441TIP3    H131814   0.909   0.204  42.227  2.6881 -0.1739 -0.7326
 3441TIP3    H231815   0.803   0.287  42.158 -1.2770 -1.3971  3.3908
 3442TIP3   OH231816   0.248   3.795   2.937 -0.1363  0.2784 -0.1701
 3442TIP3    H131817   0.249   3.876   2.886  0.9450  0.1973 -0.3219
 3442TIP3    H231818   0.340   3.783   2.964 -0.2261 -1.0272 -0.3773
 3443TIP3   OH231819   3.685   3.600   7.581  0.9877  0.4058  0.1710
 3443TIP3    H131820   3.765   3.567   7.541  1.7285  1.3895  0.8002
 3443TIP3    H231821   3.653   3.667   7.521  1.2893  0.8439  0.4963
 3444TIP3   OH231822   1.434   0.503  44.249  0.2414 -0.2205 -0.1627
 3444TIP3    H131823   1.407   0.494  44.158 -2.1975 -1.4418  0.5813
 3444TIP3    H231824   1.357   0.475  44.300  1.5044  0.4095  2.2699
 3445TIP3   OH231825   2.469   2.300  47.055  0.2454 -0.4415 -0.4622
 3445TIP3    H131826   2.527   2.372  47.031 -0.8609  0.5315 -0.2995
 3445TIP3    H231827   2.404   2.297  46.986 -1.1524  0.3431  0.7634
 3446TIP3   OH231828   0.879   1.612  12.397 -0.5373 -0.3584 -0.0054
 3446TIP3    H131829   0.912   1.667  12.468 -1.4291  0.3780 -0.1507
 3446TIP3    H231830   0.813   1.556  12.439  0.8988 -1.9016  0.3076
 3447TIP3   OH231831   1.859   1.635   9.875 -0.2652 -0.2288  0.4845
 3447TIP3    H131832   1.777   1.595   9.844  0.3934  0.3269 -2.2023
 3447TIP3    H231833   1.921   1.562   9.878  0.2282  0.0071 -1.8176
 3448TIP3   OH231834   0.448   3.205   6.111 -0.0688 -0.3429  0.0133
 3448TIP3    H131835   0.505   3.154   6.168  0.9252 -0.4512 -1.0384
 3448TIP3    H231836   0.507   3.244   6.046 -1.1413 -0.0977 -0.8539
 3449TIP3   OH231837   1.525   0.620  33.415  0.0259 -0.4058  0.0033
 3449TIP3    H131838   1.500   0.711  33.427  1.7460  0.2090 -0.7361
 3449TIP3    H231839   1.617   0.617  33.442 -0.4051 -2.2730  1.5191
 3450TIP3   OH231840   4.023   3.643  45.492  0.0552 -0.3782  0.1746
 3450TIP3    H131841   4.042   3.736  45.503  1.5686 -0.8479  2.3130
 3450TIP3    H231842   4.105   3.606  45.458 -0.0862 -1.1018  0.5870
 3451TIP3   OH231843   3.528   3.124  34.586  0.3005  0.0658 -0.2621
 3451TIP3    H131844   3.623   3.115  34.580  0.7190  3.7929 -2.2524
 3451TIP3    H231845   3.495   3.037  34.563  3.2012 -1.0364 -0.7370
 3452TIP3   OH231846   3.271   0.213  24.584 -0.4953  0.2162 -0.1409
 3452TIP3    H131847   3.322   0.179  24.510 -0.7500  1.0817 -0.7312
 3452TIP3    H231848   3.276   0.308  24.575 -0.7128  0.3341  0.8428
 3453TIP3   OH231849   0.395   3.346  47.482 -0.4692  0.8913  0.7078
 3453TIP3    H131850   0.320   3.330  47.425 -0.2029 -3.0592  1.2172
 3453TIP3    H231851   0.471   3.335  47.425 -0.2410  0.1529  1.1492
 3454TIP3   OH231852   3.338   1.844  40.117 -1.0909  0.2585  0.2200
 3454TIP3    H131853   3.401   1.830  40.188  0.0601  1.0462 -0.6027
 3454TIP3    H231854   3.264   1.887  40.159 -1.0487 -0.5874  1.2006
 3455TIP3   OH231855   3.415   3.019   2.027 -0.3008  0.2401  0.2399
 3455TIP3    H131856   3.475   2.957   1.987  1.1446  0.6953  1.6201
 3455TIP3    H231857   3.417   3.095   1.969 -0.1089 -0.0194 -0.0972
 3456TIP3   OH231858   1.955   0.222  10.018 -0.2996 -0.0560 -0.8562
 3456TIP3    H131859   1.887   0.229  10.085 -0.0623  0.7286 -0.6919
 3456TIP3    H231860   2.030   0.269  10.055  0.5539 -1.4399 -0.7616
 3457TIP3   OH231861   2.896   0.961  39.771  0.0173 -0.2951 -0.0358
 3457TIP3    H131862   2.889   0.883  39.826 -0.6875 -0.3554 -0.2074
 3457TIP3    H231863   2.988   0.987  39.779 -0.3602  0.5229  2.2942
 3458TIP3   OH231864   1.147   3.041   8.685 -0.3836  0.3858 -0.0682
 3458TIP3    H131865   1.059   3.075   8.667 -0.2648  0.8387  0.1917
 3458TIP3    H231866   1.166   3.070   8.774 -0.5042 -0.8660  0.3849
 3459TIP3   OH231867   3.863   0.995  35.317  0.5381  0.6023  0.0156
 3459TIP3    H131868   3.936   0.970  35.374 -0.6698 -1.3606  0.7864
 3459TIP3    H231869   3.894   0.975  35.228  0.3049 -2.1894  0.4677
 3460TIP3   OH231870   2.066   2.503  36.226 -0.1799  0.0053 -0.2058
 3460TIP3    H131871   2.067   2.481  36.319  0.9058  1.9690  0.3151
 3460TIP3    H231872   2.000   2.572  36.218 -0.6702 -0.5457 -1.0027
 3461TIP3   OH231873   3.150   4.099  39.087  0.5130 -0.3015 -0.1058
 3461TIP3    H131874   3.091   4.058  39.024  1.7428 -1.9351 -0.2399
 3461TIP3    H231875   3.182   4.177  39.042  1.3532 -1.4335 -1.5129
 3462TIP3   OH231876   0.000   1.120  31.286  0.0566  0.6583  0.0664
 3462TIP3    H131877   0.045   1.070  31.217 -0.6591  0.3836 -0.2027
 3462TIP3    H231878  -0.039   1.194  31.240  0.1561  0.8493  0.2884
 3463TIP3   OH231879   1.846   3.821  15.942  0.2126 -0.3076 -0.2468
 3463TIP3    H131880   1.806   3.837  16.027  0.4104 -1.5510  0.1044
 3463TIP3    H231881   1.784   3.763  15.897  1.3312 -1.8219  0.1023
 3464TIP3   OH231882   0.753   0.004  40.013 -0.7205 -0.3527 -0.3944
 3464TIP3    H131883   0.663   0.004  40.047 -0.8691  1.2415 -0.7307
 3464TIP3    H231884   0.751  -0.059  39.941 -1.5883 -0.2868 -0.4397
 3465TIP3   OH231885   2.438   3.563  36.039 -0.0265  0.1612  0.1511
 3465TIP3    H131886   2.407   3.517  35.960  0.7614  0.3524 -0.2772
 3465TIP3    H231887   2.528   3.535  36.049  0.2513  1.0753  0.2832
 3466TIP3   OH231888   0.233   1.143   6.626 -0.0428  0.5475 -0.0531
 3466TIP3    H131889   0.300   1.210   6.637 -0.0642  0.4408  0.8295
 3466TIP3    H231890   0.273   1.077   6.570 -0.0840  1.3695 -1.0895
 3467TIP3   OH231891   1.652   1.252  16.181 -0.1370 -0.0703  0.2199
 3467TIP3    H131892   1.732   1.281  16.225  1.0300 -1.3348 -0.9802
 3467TIP3    H231893   1.582   1.280  16.239  1.2965 -1.4933  2.8057
 3468TIP3   OH231894   1.417   0.903  33.396 -0.6999  0.2809 -0.5763
 3468TIP3    H131895   1.509   0.925  33.412 -0.1141 -1.7104 -0.9187
 3468TIP3    H231896   1.375   0.908  33.482 -0.9196  3.7191 -0.7811
 3469TIP3   OH231897   3.370   0.551   6.654 -0.2890  0.0384 -0.3512
 3469TIP3    H131898   3.306   0.517   6.591  0.0393 -1.2456 -0.0251
 3469TIP3    H231899   3.388   0.477   6.712 -2.6796  1.8458  3.0963
 3470TIP3   OH231900   3.572   3.557  35.235 -0.4453 -0.6234 -0.4218
 3470TIP3    H131901   3.489   3.541  35.190 -0.9601 -1.4811  0.7862
 3470TIP3    H231902   3.626   3.601  35.170 -1.8852  0.0759 -1.2052
 3471TIP3   OH231903   0.700   1.215  34.578 -0.5848 -0.9728 -0.0050
 3471TIP3    H131904   0.608   1.197  34.596 -0.9782 -0.2233 -1.1506
 3471TIP3    H231905   0.700   1.259  34.494  0.7522 -0.1422  0.3929
 3472TIP3   OH231906   3.980   1.177  37.636 -0.2510 -0.4277  0.6126
 3472TIP3    H131907   4.010   1.137  37.554 -0.4141  0.3816  0.1528
 3472TIP3    H231908   3.934   1.106  37.681 -0.1439 -0.8890  0.0144
 3473TIP3   OH231909   0.672   1.845  38.090  0.1388 -0.7199  0.1152
 3473TIP3    H131910   0.716   1.874  38.169  1.2879 -1.1510 -0.3530
 3473TIP3    H231911   0.717   1.765  38.065  0.2861 -0.2000 -1.3756
 3474TIP3   OH231912   3.658   0.483   3.823 -0.1866 -0.5916 -0.2690
 3474TIP3    H131913   3.603   0.535   3.764  0.2676  1.2314  0.8277
 3474TIP3    H231914   3.603   0.470   3.900  0.0475 -0.9021 -0.1556
 3475TIP3   OH231915   1.645   1.672   0.198  0.2739  1.0654  0.2021
 3475TIP3    H131916   1.602   1.727   0.133 -0.8563  0.2525  0.2172
 3475TIP3    H231917   1.641   1.584   0.161  0.2010  0.6906  1.0712
 3476TIP3   OH231918   0.308   3.521  30.577 -0.2902  0.0529  0.2685
 3476TIP3    H131919   0.311   3.616  30.589  0.6554  0.2582 -1.2255
 3476TIP3    H231920   0.303   3.485  30.665 -1.5626  1.4998  0.8225
 3477TIP3   OH231921   3.832   2.569  41.675  0.4721  0.0292 -0.5660
 3477TIP3    H131922   3.896   2.638  41.697 -0.4901  1.3067 -1.6402
 3477TIP3    H231923   3.756   2.616  41.643 -0.3518 -1.5551 -1.0287
 3478TIP3   OH231924   0.340   1.421   2.487  0.1787 -0.9082  0.3165
 3478TIP3    H131925   0.434   1.439   2.488  0.2298 -1.2045  0.9051
 3478TIP3    H231926   0.324   1.368   2.565 -0.5392 -0.5558  0.4227
 3479TIP3   OH231927   2.811   2.426   3.105 -0.1963 -0.5604  0.0225
 3479TIP3    H131928   2.883   2.405   3.164 -0.9287  0.5907  1.3968
 3479TIP3    H231929   2.732   2.410   3.157 -0.9851 -1.8880 -1.4785
 3480TIP3   OH231930   0.097   1.724  36.226  0.3409 -0.0678  0.3863
 3480TIP3    H131931   0.151   1.794  36.263  0.8420 -1.5974  2.7745
 3480TIP3    H231932   0.159   1.667  36.181  0.5856 -1.0912  1.9516
 3481TIP3   OH231933   3.782   1.273  15.438 -0.0956  0.6884 -0.5458
 3481TIP3    H131934   3.708   1.254  15.496 -0.5352 -0.6229 -1.4997
 3481TIP3    H231935   3.802   1.365  15.455 -1.1180  0.7184  0.6610
 3482TIP3   OH231936   1.636   0.627  34.136 -0.0243 -1.1387  0.5639
 3482TIP3    H131937   1.637   0.576  34.055  0.7986  0.4800 -0.5242
 3482TIP3    H231938   1.572   0.696  34.119 -0.5119 -1.3043  1.6650
 3483TIP3   OH231939   3.866   0.402  15.565 -0.0159 -0.4090  0.0780
 3483TIP3    H131940   3.797   0.387  15.630 -1.5481  2.9426 -0.5791
 3483TIP3    H231941   3.947   0.399  15.615 -1.0928  1.3130  2.0998
 3484TIP3   OH231942   0.248   2.218   1.367  0.0642 -0.1920 -0.6856
 3484TIP3    H131943   0.255   2.131   1.407  0.8823 -0.0460 -0.4853
 3484TIP3    H231944   0.212   2.201   1.280  1.1237 -0.8596 -1.0166
 3485TIP3   OH231945   1.000   0.262  36.437  0.1579  0.2293 -0.0057
 3485TIP3    H131946   0.913   0.243  36.471 -0.0851  0.8410 -0.2749
 3485TIP3    H231947   1.015   0.354  36.459  0.6792  0.1652 -0.0806
 3486TIP3   OH231948   3.468   2.604  10.840  0.0618  0.5415 -0.0468
 3486TIP3    H131949   3.390   2.554  10.866 -0.5937  1.6316  0.1401
 3486TIP3    H231950   3.434   2.684  10.800  1.0741 -0.0457 -2.2529
 3487TIP3   OH231951   0.036   2.552  36.370 -0.2536 -0.4740 -0.1583
 3487TIP3    H131952   0.020   2.627  36.314  2.3347 -0.2291 -0.6882
 3487TIP3    H231953   0.041   2.478  36.309  0.7202 -0.4950 -0.0664
 3488TIP3   OH231954   3.903   2.532  11.750 -0.2936  0.6418 -0.0540
 3488TIP3    H131955   3.859   2.514  11.667 -1.7993  1.6029  0.4957
 3488TIP3    H231956   3.905   2.628  11.755  2.1580  0.6668 -0.1700
 3489TIP3   OH231957   1.015   0.574  37.214 -0.3063 -0.0527  0.2813
 3489TIP3    H131958   1.069   0.575  37.293 -0.3128 -1.1133  0.3155
 3489TIP3    H231959   0.927   0.556  37.245 -0.1873 -1.2097 -0.0199
 3490TIP3   OH231960   4.100   4.043  34.818  0.2730 -0.2070  0.5767
 3490TIP3    H131961   4.040   4.066  34.889  0.2365  0.2895  0.3851
 3490TIP3    H231962   4.166   3.987  34.859  0.9362  1.0456  1.2654
 3491TIP3   OH231963   2.221   0.856   3.694 -0.1048  0.1913  0.0805
 3491TIP3    H131964   2.283   0.929   3.694  0.4994 -0.3042 -0.6912
 3491TIP3    H231965   2.186   0.855   3.605 -1.1180  0.3682  0.4678
 3492TIP3   OH231966   2.595   1.653   2.611 -0.4345  0.1737 -0.7152
 3492TIP3    H131967   2.576   1.587   2.544 -1.3162  0.6522 -0.9475
 3492TIP3    H231968   2.680   1.626   2.648 -2.1595 -2.9851  1.4407
 3493TIP3   OH231969   2.242   1.469  44.136  0.2862  0.5007  0.4606
 3493TIP3    H131970   2.270   1.560  44.151  1.5697  0.2955 -0.4928
 3493TIP3    H231971   2.154   1.465  44.173  0.5387  1.8919  1.3265
 3494TIP3   OH231972   0.581   0.463  33.962  0.5603 -0.4794 -0.0998
 3494TIP3    H131973   0.578   0.384  34.017  1.5420  1.0535  2.3443
 3494TIP3    H231974   0.637   0.523  34.011 -1.0598  2.1584 -1.2990
 3495TIP3   OH231975   0.106   1.363  17.859 -0.4852 -0.7294 -0.4030
 3495TIP3    H131976   0.184   1.361  17.914  1.2089 -0.9183 -2.6498
 3495TIP3    H231977   0.087   1.456  17.847 -2.5871 -0.6149  2.5793
 3496TIP3   OH231978   3.723   3.583  38.140 -0.5361 -0.2716  0.4576
 3496TIP3    H131979   3.774   3.502  38.149 -0.4886 -0.1376  1.5546
 3496TIP3    H231980   3.639   3.555  38.103 -0.6596 -0.8798  1.1892
 3497TIP3   OH231981   2.812   1.865  40.256 -0.4060 -0.9239  0.2868
 3497TIP3    H131982   2.789   1.856  40.348  2.6584 -0.3521  1.2269
 3497TIP3    H231983   2.823   1.775  40.225  3.5353 -1.2460  2.0510
 3498TIP3   OH231984   2.275   3.962   4.101 -0.0504  0.2599  0.3645
 3498TIP3    H131985   2.286   3.877   4.058 -2.7494  0.3797 -0.8321
 3498TIP3    H231986   2.352   4.012   4.074  1.1822 -1.5032  0.3998
 3499TIP3   OH231987   1.018   3.879  31.872 -0.1436 -0.2285 -0.0468
 3499TIP3    H131988   1.029   3.917  31.960  1.5562 -1.2015  0.1980
 3499TIP3    H231989   1.003   3.955  31.815  1.2407  0.6715  0.7193
 3500TIP3   OH231990   1.757   2.139   8.795  0.2673 -0.2811  0.8585
 3500TIP3    H131991   1.850   2.145   8.814  0.4296  0.5657 -0.1098
 3500TIP3    H231992   1.719   2.099   8.873  1.4469 -0.7442  1.2193
 3501TIP3   OH231993   3.531   0.602  40.015  0.0474  0.2090 -0.7274
 3501TIP3    H131994   3.620   0.623  39.985 -0.9693  1.4233 -3.1549
 3501TIP3    H231995   3.488   0.565  39.938 -1.6609 -0.0362  0.3097
 3502TIP3   OH231996   2.854   0.555  38.731 -0.0165 -0.1751 -0.0415
 3502TIP3    H131997   2.787   0.619  38.756 -0.9888 -0.3529 -2.0431
 3502TIP3    H231998   2.894   0.591  38.652  0.4049 -1.3652 -0.3877
 3503TIP3   OH231999   0.590   3.046  34.791  0.0099  0.4022 -0.3159
 3503TIP3    H132000   0.547   2.961  34.802  0.1829  0.5660  2.2134
 3503TIP3    H232001   0.590   3.061  34.696 -2.4932 -1.1406 -0.6526
 3504TIP3   OH232002   0.782   1.670  15.491 -0.2432 -0.4886 -0.0432
 3504TIP3    H132003   0.848   1.701  15.429 -0.4213 -0.9882 -0.4933
 3504TIP3    H232004   0.791   1.728  15.566 -0.0884  0.1880 -0.5700
 3505TIP3   OH232005   3.858   2.174   9.835  0.4086  0.3798 -0.2206
 3505TIP3    H132006   3.824   2.263   9.841  0.8473  0.6075 -0.9582
 3505TIP3    H232007   3.781   2.118   9.842 -0.0030  0.8555 -0.8451
 3506TIP3   OH232008   3.924   1.966  16.853  0.1881 -0.0677  0.1485
 3506TIP3    H132009   3.978   1.985  16.776 -1.0994  0.0110 -0.7561
 3506TIP3    H232010   3.943   2.037  16.914 -0.2019  0.9344 -0.8701
 3507TIP3   OH232011   0.504   3.717  12.340 -0.1891 -0.2113  0.3899
 3507TIP3    H132012   0.538   3.629  12.357  0.0525 -0.1953 -0.0028
 3507TIP3    H232013   0.434   3.704  12.276  0.3265 -0.0457 -0.2214
 3508TIP3   OH232014   2.209   4.065  36.126 -0.1862  0.4726  0.3947
 3508TIP3    H132015   2.254   3.992  36.082 -0.6669  0.6390 -0.3928
 3508TIP3    H232016   2.277   4.132  36.137 -0.8742  2.3984 -4.3836
 3509TIP3   OH232017   3.333   1.057   5.414 -0.0173  0.1593  0.8436
 3509TIP3    H132018   3.404   1.117   5.390 -0.0475 -0.5869 -1.3107
 3509TIP3    H232019   3.340   1.049   5.509  1.4029  1.7904  0.9311
 3510TIP3   OH232020   0.919   3.783  29.693  0.6775  0.1481 -0.5541
 3510TIP3    H132021   0.978   3.853  29.663 -0.8190  1.6007 -0.2578
 3510TIP3    H232022   0.915   3.795  29.788  0.0308 -0.0349 -0.5590
 3511TIP3   OH232023   2.376   3.524  44.057  0.2814  0.3050 -0.3203
 3511TIP3    H132024   2.298   3.472  44.080  0.2508  0.4435 -0.1013
 3511TIP3    H232025   2.356   3.612  44.090  0.4819  0.3700 -0.3707
 3512TIP3   OH232026   3.418   2.117  38.843  0.2458  0.0770  0.4825
 3512TIP3    H132027   3.475   2.041  38.853  0.5213  0.0245 -1.1269
 3512TIP3    H232028   3.337   2.093  38.888  0.3927 -1.1231  0.1450
 3513TIP3   OH232029   1.681   2.908   2.087  0.1205  0.0638 -0.2151
 3513TIP3    H132030   1.621   2.900   2.014  1.4406  0.7232 -1.4145
 3513TIP3    H232031   1.656   2.990   2.130  1.9495  1.9639 -2.5005
 3514TIP3   OH232032   0.937   3.496  25.633 -0.1299 -0.1117 -0.3604
 3514TIP3    H132033   0.960   3.546  25.555  2.3530  0.6246  0.7065
 3514TIP3    H232034   0.842   3.503  25.640 -0.1912  1.6217 -2.1001
 3515TIP3   OH232035   0.429   2.483   0.832 -0.2398  0.0028 -0.3134
 3515TIP3    H132036   0.515   2.504   0.796 -0.4759  0.6552 -0.5188
 3515TIP3    H232037   0.441   2.400   0.877  1.0219  1.0947  1.5004
 3516TIP3   OH232038   2.802   3.432  45.878  0.1458 -0.2197 -0.2546
 3516TIP3    H132039   2.883   3.423  45.827  0.1253 -0.1039 -0.3094
 3516TIP3    H232040   2.732   3.430  45.812  0.1698  1.0081 -0.3528
 3517TIP3   OH232041   0.644   0.183   8.307 -0.2086 -0.8916  0.9475
 3517TIP3    H132042   0.571   0.241   8.284  0.3999  0.3994  2.0945
 3517TIP3    H232043   0.605   0.116   8.362 -0.7187 -0.8211  0.6746
 3518TIP3   OH232044   2.988   2.355   7.853 -0.2548 -0.8912 -0.6789
 3518TIP3    H132045   2.934   2.355   7.774  1.7813  1.5065 -2.2314
 3518TIP3    H232046   2.948   2.422   7.908  0.2006 -0.2139 -1.1546
 3519TIP3   OH232047   2.681   1.381  42.828  0.0207  0.2932 -0.2263
 3519TIP3    H132048   2.614   1.326  42.789 -0.1783  0.6245 -0.3482
 3519TIP3    H232049   2.661   1.470  42.799  0.8323  0.3269 -0.7247
 3520TIP3   OH232050   1.522   0.109   8.954  0.1657  0.4312 -0.4040
 3520TIP3    H132051   1.524   0.162   8.874  1.9328  0.9419 -0.0711
 3520TIP3    H232052   1.499   0.021   8.924  2.7418  0.1376 -1.8618
 3521TIP3   OH232053   0.678   1.498  43.921  0.2878 -0.2490  0.3451
 3521TIP3    H132054   0.596   1.546  43.913  1.7509  2.2656 -0.6057
 3521TIP3    H232055   0.741   1.563  43.951  2.2829 -1.7141 -0.4539
 3522TIP3   OH232056   2.751   0.880  11.467  0.5025  0.3704  0.0023
 3522TIP3    H132057   2.758   0.798  11.417 -1.1885  1.3661 -2.0806
 3522TIP3    H232058   2.744   0.947  11.399  1.7138  2.2379  1.6645
 3523TIP3   OH232059   1.026   0.367   4.395  0.0189  1.0202 -0.4194
 3523TIP3    H132060   1.025   0.330   4.307 -2.1872  1.1043 -0.4906
 3523TIP3    H232061   1.118   0.365   4.421  0.7229  1.0056 -2.7083
 3524TIP3   OH232062   1.474   1.963  13.496  0.6073 -0.1224  0.0127
 3524TIP3    H132063   1.464   1.923  13.583 -1.2127  2.2291  1.0063
 3524TIP3    H232064   1.471   1.890  13.435  0.0581 -1.7073  1.8400
 3525TIP3   OH232065   0.165   2.540   1.281 -0.3281 -0.7995 -0.5268
 3525TIP3    H132066   0.145   2.491   1.361  2.0265 -2.0515 -0.5956
 3525TIP3    H232067   0.183   2.472   1.216  2.0239  0.0776 -0.9015
 3526TIP3   OH232068   1.647   0.445   2.881 -0.1862  0.0932  0.1987
 3526TIP3    H132069   1.684   0.467   2.966 -2.2930  1.9893  0.7071
 3526TIP3    H232070   1.627   0.351   2.886  2.0307 -0.4039  0.7947
 3527TIP3   OH232071   1.006   1.700  34.424  0.7447  0.7474 -0.0561
 3527TIP3    H132072   0.991   1.707  34.330  0.1784  2.3128  0.1219
 3527TIP3    H232073   1.059   1.776  34.446  1.1918  0.2007  0.8528
 3528TIP3   OH232074   3.189   1.225  36.014 -0.1739  0.1416  0.4670
 3528TIP3    H132075   3.271   1.234  36.063  0.4933 -2.5535 -0.0023
 3528TIP3    H232076   3.161   1.135  36.031 -2.6574  0.7332 -0.0373
 3529TIP3   OH232077   3.620   2.500  14.842  0.0186  0.3505  0.1785
 3529TIP3    H132078   3.627   2.427  14.902 -2.7254 -0.3646 -0.2278
 3529TIP3    H232079   3.631   2.461  14.755 -0.4315  0.5659  0.0175
 3530TIP3   OH232080   1.626   2.548   9.498 -0.2040  0.0409 -0.3896
 3530TIP3    H132081   1.631   2.635   9.539 -1.4195  0.1459 -0.4117
 3530TIP3    H232082   1.706   2.504   9.524  0.2174  1.0133  0.0026
 3531TIP3   OH232083   0.503   3.153  11.688  0.4239  0.1639  0.0585
 3531TIP3    H132084   0.420   3.163  11.735  0.2957  0.3456 -0.1982
 3531TIP3    H232085   0.490   3.204  11.607  0.8717  0.3924  0.1264
 3532TIP3   OH232086   3.216   3.126   0.297 -0.3248  0.1776 -0.1273
 3532TIP3    H132087   3.250   3.162   0.215 -1.9221  3.4700  0.4902
 3532TIP3    H232088   3.124   3.105   0.277  0.0245 -1.7067  0.1227
 3533TIP3   OH232089   3.367   1.038  47.446  0.6608  0.3696  0.7904
 3533TIP3    H132090   3.379   1.089  47.366  0.6260 -0.7802  0.0294
 3533TIP3    H232091   3.455   1.012  47.473  0.6034 -0.1373  0.5108
 3534TIP3   OH232092   0.642   3.541   4.077 -0.5841  0.5705 -0.5243
 3534TIP3    H132093   0.581   3.476   4.044 -0.5529  0.9402 -1.3394
 3534TIP3    H232094   0.692   3.496   4.145 -1.0422 -0.0371 -0.5887
 3535TIP3   OH232095   0.714   2.985  12.904 -0.3120  0.2100  0.0012
 3535TIP3    H132096   0.694   3.022  12.818 -1.4888  0.7680  0.4915
 3535TIP3    H232097   0.658   2.907  12.910 -1.0728  0.7835  0.6731
 3536TIP3   OH232098   3.966   3.115  44.020  0.1794  0.0083  0.0796
 3536TIP3    H132099   3.954   3.161  44.104  1.1274 -0.9524  0.7561
 3536TIP3    H232100   4.045   3.154  43.983  0.4655 -0.4257  0.2258
 3537TIP3   OH232101   3.971   3.288   4.374 -0.2082 -0.4406  0.1759
 3537TIP3    H132102   4.001   3.378   4.361  0.2629 -0.6670 -0.3566
 3537TIP3    H232103   3.988   3.245   4.290 -2.7303 -0.3858 -0.4551
 3538TIP3   OH232104   1.916   2.349  18.047  0.1289 -0.1318 -0.2289
 3538TIP3    H132105   1.845   2.295  18.012  0.3635 -0.5602 -0.0505
 3538TIP3    H232106   1.954   2.296  18.116  0.0978  0.4367  0.2290
 3539TIP3   OH232107   3.094   1.703  36.877  0.0152 -0.1597 -0.0343
 3539TIP3    H132108   3.114   1.618  36.837 -0.7386 -0.8282  0.9567
 3539TIP3    H232109   3.045   1.750  36.810  0.4177 -0.5142 -0.5857
 3540TIP3   OH232110   3.251   3.817  45.891 -0.3490  0.5817 -0.0993
 3540TIP3    H132111   3.269   3.883  45.824 -0.3293  2.4737  1.6711
 3540TIP3    H232112   3.176   3.852  45.940  0.9827  0.4130  2.2290
 3541TIP3   OH232113   3.750   1.277  15.065 -0.3449  0.0735  0.5581
 3541TIP3    H132114   3.839   1.240  15.063  0.2931  1.5071  1.1129
 3541TIP3    H232115   3.726   1.279  15.157 -1.4351 -1.3001  0.3487
 3542TIP3   OH232116   2.617   0.149   8.777  0.7226  0.1519 -0.0164
 3542TIP3    H132117   2.599   0.241   8.758 -0.0575  0.5720  2.4391
 3542TIP3    H232118   2.646   0.113   8.693  0.5798  2.4951 -1.1651
 3543TIP3   OH232119   2.416   3.862  47.522  0.5649 -0.3888  0.6387
 3543TIP3    H132120   2.341   3.896  47.570 -0.8885 -2.2348 -0.1930
 3543TIP3    H232121   2.432   3.925  47.452 -1.4307 -0.8317 -0.2807
 3544TIP3   OH232122   0.504   3.509   6.441 -0.3993 -0.1739 -0.4298
 3544TIP3    H132123   0.530   3.529   6.351  0.6917  0.3184 -0.0309
 3544TIP3    H232124   0.530   3.587   6.491 -0.1197 -0.8244  0.4618
 3545TIP3   OH232125   3.352   0.807  38.542 -0.0021  0.1140  0.5161
 3545TIP3    H132126   3.408   0.737  38.575  0.1788 -0.3604 -0.7295
 3545TIP3    H232127   3.398   0.841  38.465 -0.6071  0.8737  0.4721
 3546TIP3   OH232128   0.356   3.855   6.443  0.0181 -0.4526 -0.0199
 3546TIP3    H132129   0.382   3.797   6.372  1.4163  1.6313 -1.2845
 3546TIP3    H232130   0.433   3.908   6.461 -1.2115  1.0648  1.0521
 3547TIP3   OH232131   1.489   3.480  39.789 -0.1178  0.0387  0.2964
 3547TIP3    H132132   1.394   3.472  39.780  0.1018 -0.8074 -1.6474
 3547TIP3    H232133   1.504   3.574  39.798 -1.0801  0.2829 -0.4832
 3548TIP3   OH232134   1.401   1.320   8.378  0.0649  0.4166 -0.1953
 3548TIP3    H132135   1.340   1.252   8.405 -1.1990  1.0771 -1.2565
 3548TIP3    H232136   1.479   1.305   8.431 -1.1796 -0.1680  1.5403
 3549TIP3   OH232137   0.024   2.336   1.491  0.3471 -0.2494  0.8230
 3549TIP3    H132138   0.064   2.362   1.574 -0.6261  0.8243  0.9825
 3549TIP3    H232139   0.092   2.286   1.447  1.3698  0.3234  1.6823
 3550TIP3   OH232140   1.562   3.018  34.644  0.5125  0.6141 -0.0388
 3550TIP3    H132141   1.649   3.055  34.657  0.7499  0.0346  0.0723
 3550TIP3    H232142   1.519   3.028  34.729  0.9946 -0.4145  0.3505
 3551TIP3   OH232143   3.394   1.061  32.634  0.0675 -0.6047  0.0182
 3551TIP3    H132144   3.467   1.114  32.602 -0.5593  0.8940  0.9987
 3551TIP3    H232145   3.415   1.042  32.725  0.0820 -1.7120 -0.2035
 3552TIP3   OH232146   0.722   0.782  10.570  0.1577 -0.4888 -0.1462
 3552TIP3    H132147   0.740   0.691  10.594  0.4105 -0.0847  1.2631
 3552TIP3    H232148   0.674   0.818  10.645 -0.9387  0.2470 -1.1528
 3553TIP3   OH232149   0.879   1.417  44.170 -0.3656  0.4229 -0.4119
 3553TIP3    H132150   0.934   1.383  44.099 -0.1798  0.8809 -0.4882
 3553TIP3    H232151   0.849   1.502  44.138 -0.0852  0.7410  0.1559
 3554TIP3   OH232152   0.364   1.584   3.958  0.2111 -0.2927  0.2937
 3554TIP3    H132153   0.293   1.544   4.008 -1.3766  0.5839 -1.1283
 3554TIP3    H232154   0.373   1.528   3.881  1.6431 -0.8280  0.8128
 3555TIP3   OH232155   4.013   4.043  35.960 -0.2594 -0.1860 -0.2333
 3555TIP3    H132156   4.108   4.059  35.961 -0.5059  2.4348 -2.7519
 3555TIP3    H232157   4.002   3.970  35.898  0.1282 -1.4657  1.1522
 3556TIP3   OH232158   2.501   2.768  38.756  0.2002  0.1866  0.6409
 3556TIP3    H132159   2.576   2.818  38.725  0.6291 -2.6234 -3.7011
 3556TIP3    H232160   2.533   2.678  38.763 -2.4370 -0.9503 -0.4192
 3557TIP3   OH232161   0.405   2.397   1.518 -0.0090  0.4183  0.0517
 3557TIP3    H132162   0.487   2.372   1.475 -0.3596  0.5414 -0.6965
 3557TIP3    H232163   0.337   2.351   1.470 -0.5418  1.7395 -0.4987
 3558TIP3   OH232164   3.865   3.625  39.111  0.4904 -0.2956 -0.7327
 3558TIP3    H132165   3.826   3.683  39.046  0.7643 -0.3862 -0.9822
 3558TIP3    H232166   3.958   3.622  39.088  0.4804 -0.8260 -0.7174
 3559TIP3   OH232167   0.448   2.494  20.091  0.6988  0.2655  0.2184
 3559TIP3    H132168   0.392   2.517  20.017 -0.6355 -1.8039  0.5043
 3559TIP3    H232169   0.477   2.578  20.126 -0.4469  1.3443 -1.2788
 3560TIP3   OH232170   3.009   3.256  35.097 -0.3386  0.2139  0.2778
 3560TIP3    H132171   2.978   3.266  35.186  1.4791 -2.7985  1.4092
 3560TIP3    H232172   2.965   3.178  35.064  2.5688 -1.6249  0.4114
 3561TIP3   OH232173   0.965   3.947  24.524  0.1901  0.2761 -0.5193
 3561TIP3    H132174   0.907   3.880  24.488 -0.7293 -0.4494  2.0666
 3561TIP3    H232175   1.053   3.916  24.504 -0.2263 -1.5167  0.2088
 3562TIP3   OH232176   3.032   1.533  41.930 -0.2845  0.5030 -0.2296
 3562TIP3    H132177   2.937   1.527  41.920 -0.3255  1.5108 -0.4680
 3562TIP3    H232178   3.067   1.516  41.843 -0.2211 -0.2196 -0.0711
 3563TIP3   OH232179   3.589   2.305   2.522 -0.7580 -0.3732 -0.1642
 3563TIP3    H132180   3.562   2.377   2.579 -1.2445  0.0492 -0.9118
 3563TIP3    H232181   3.528   2.309   2.449  0.7553 -0.0047 -1.4414
 3564TIP3   OH232182   0.484   3.728   7.092 -0.0629  0.2101 -0.4743
 3564TIP3    H132183   0.578   3.709   7.095 -0.1541 -0.1819  0.1048
 3564TIP3    H232184   0.454   3.686   7.011  0.1562 -0.2014 -0.3469
 3565TIP3   OH232185   1.668   3.663  39.495 -0.4188  0.3523 -0.4732
 3565TIP3    H132186   1.716   3.637  39.573 -1.4651  0.8054  0.3390
 3565TIP3    H232187   1.736   3.692  39.434  0.3240  1.3175  0.7743
 3566TIP3   OH232188   3.377   2.567  47.751 -0.6631  0.2871  0.3710
 3566TIP3    H132189   3.308   2.618  47.794  0.0300  0.1997  1.6302
 3566TIP3    H232190   3.356   2.476  47.773 -0.8451  0.1614 -0.3015
 3567TIP3   OH232191   0.604   2.703  36.654  0.1367  0.0262  0.2084
 3567TIP3    H132192   0.667   2.646  36.699 -0.0665 -1.2514 -1.0728
 3567TIP3    H232193   0.657   2.777  36.625  0.3470  0.7148  2.1762
 3568TIP3   OH232194   1.245   2.003  16.944  0.2168 -0.3563 -0.1621
 3568TIP3    H132195   1.239   1.993  16.849 -0.4574 -0.3563 -0.1215
 3568TIP3    H232196   1.217   2.093  16.960 -0.3321 -0.5641  0.0917
 3569TIP3   OH232197   2.160   3.449  45.120 -0.2288  1.0712 -0.4031
 3569TIP3    H132198   2.194   3.456  45.210  1.9040  0.1101 -1.0822
 3569TIP3    H232199   2.104   3.371  45.123 -0.6497  1.3804  0.2093
 3570TIP3   OH232200   4.051   3.238  40.668  0.3728  0.2611 -0.5511
 3570TIP3    H132201   4.048   3.257  40.574 -0.6021  0.0624 -0.5676
 3570TIP3    H232202   3.983   3.172  40.682  1.2083 -0.4906  0.1323
 3571TIP3   OH232203   0.580   1.635  19.206 -0.0276 -1.0005 -0.0773
 3571TIP3    H132204   0.493   1.674  19.205 -1.1213 -3.3071  0.0846
 3571TIP3    H232205   0.597   1.612  19.115 -0.0475 -1.5005  0.0432
 3572TIP3   OH232206   2.634   0.402   7.846  0.3006 -0.1637  0.2976
 3572TIP3    H132207   2.645   0.315   7.885  0.9042 -0.5470 -0.7086
 3572TIP3    H232208   2.583   0.386   7.766 -0.1044  0.4923  0.4154
 3573TIP3   OH232209   2.762   0.345  45.274 -0.0373 -0.4921 -0.5109
 3573TIP3    H132210   2.728   0.422  45.319  0.7535 -0.6342  0.3536
 3573TIP3    H232211   2.683   0.294  45.252 -0.7001  1.2357 -2.4397
 3574TIP3   OH232212   1.696   0.526   8.130 -0.2245  0.3682 -0.4854
 3574TIP3    H132213   1.649   0.550   8.050  1.6450 -0.4449 -1.8961
 3574TIP3    H232214   1.671   0.435   8.146  0.4346  0.1008 -0.9389
 3575TIP3   OH232215   3.747   1.694   4.515 -0.0681  0.8007 -0.3217
 3575TIP3    H132216   3.831   1.738   4.504 -0.8935  1.7936 -4.1760
 3575TIP3    H232217   3.758   1.608   4.474 -0.9593  1.0662 -1.1690
 3576TIP3   OH232218   2.634   2.129  38.917 -0.0157 -0.4406 -0.6000
 3576TIP3    H132219   2.631   2.053  38.976 -0.7384  0.7939  1.0131
 3576TIP3    H232220   2.725   2.133  38.888  0.8385 -0.0329  1.9042
 3577TIP3   OH232221   0.047   2.911  37.032 -0.0671  0.4563 -0.1926
 3577TIP3    H132222  -0.032   2.945  36.991 -0.2856  1.5516  1.0529
 3577TIP3    H232223   0.017   2.834  37.082 -0.4978  1.2349  0.7843
 3578TIP3   OH232224   1.184   2.280  35.616 -0.0936 -0.5127  0.0284
 3578TIP3    H132225   1.192   2.375  35.605 -0.2472 -0.4916  0.0970
 3578TIP3    H232226   1.242   2.244  35.549 -0.3845 -0.3765 -0.3032
 3579TIP3   OH232227   3.880   3.885  33.294 -0.2046  0.2489 -0.3475
 3579TIP3    H132228   3.819   3.939  33.243 -0.1953 -0.9737 -1.6841
 3579TIP3    H232229   3.967   3.914  33.266 -0.1133  1.6402  1.1960
 3580TIP3   OH232230   1.675   0.122  13.195 -0.4069 -0.4888  0.0453
 3580TIP3    H132231   1.616   0.076  13.135 -0.1431 -0.6177 -0.1194
 3580TIP3    H232232   1.646   0.213  13.191 -0.9140 -0.6346  0.3504
 3581TIP3   OH232233   1.429   2.759   4.106  0.6461 -0.2255 -0.5920
 3581TIP3    H132234   1.444   2.687   4.167  1.6069 -1.1207 -1.8411
 3581TIP3    H232235   1.391   2.828   4.160  0.6790 -1.2849  0.8448
 3582TIP3   OH232236   3.025   2.833  35.713  0.1311 -0.5218  0.4565
 3582TIP3    H132237   2.937   2.832  35.675  0.6177  1.5766 -0.9043
 3582TIP3    H232238   3.033   2.919  35.754  1.8798 -0.2304 -0.3774
 3583TIP3   OH232239   3.990   3.993  34.566 -0.0638  0.3192 -0.2423
 3583TIP3    H132240   4.035   4.020  34.646  0.9975  2.2027 -1.4071
 3583TIP3    H232241   3.897   4.005  34.586  0.0796 -0.6719  1.1774
 3584TIP3   OH232242   3.910   3.464  36.456  0.0860  0.2925 -0.0919
 3584TIP3    H132243   3.997   3.424  36.462 -0.7574 -1.5532  0.3985
 3584TIP3    H232244   3.891   3.496  36.544  0.6070  1.5386 -0.4045
 3585TIP3   OH232245   2.873   2.242   2.538 -0.1204  0.2952  0.0527
 3585TIP3    H132246   2.875   2.165   2.482  1.5384 -0.6217  1.2460
 3585TIP3    H232247   2.784   2.276   2.531 -0.1658 -0.1989 -2.4984
 3586TIP3   OH232248   1.910   3.207  10.261 -0.3144  0.1556 -0.1450
 3586TIP3    H132249   1.972   3.223  10.333  0.4921  1.7157 -1.1341
 3586TIP3    H232250   1.836   3.264  10.281 -0.8314 -0.6471  0.2879
 3587TIP3   OH232251   1.831   3.610  43.988  0.0896 -0.1746  0.1654
 3587TIP3    H132252   1.818   3.639  43.898 -1.5587 -1.3343 -0.0399
 3587TIP3    H232253   1.922   3.629  44.008  0.5545 -0.1326 -1.8448
 3588TIP3   OH232254   2.138   0.816  45.253  0.3235 -0.0189 -0.5113
 3588TIP3    H132255   2.158   0.908  45.239 -0.5329  0.3501  0.6451
 3588TIP3    H232256   2.046   0.814  45.280  0.3162 -1.2092 -0.5555
 3589TIP3   OH232257   4.015   2.668  14.536 -0.7364 -0.5753 -0.3829
 3589TIP3    H132258   4.062   2.746  14.565 -1.4248 -1.0805  2.3093
 3589TIP3    H232259   4.080   2.619  14.486 -0.0956  1.3439 -1.5590
 3590TIP3   OH232260   3.440   0.291  40.623  0.3788  0.6463 -1.0374
 3590TIP3    H132261   3.453   0.344  40.544 -2.1351 -0.7086 -2.4764
 3590TIP3    H232262   3.345   0.289  40.635  0.6081 -0.7390  0.9574
 3591TIP3   OH232263   0.666   0.717   2.044  0.0337  0.5138 -0.3056
 3591TIP3    H132264   0.646   0.785   2.109  0.0008  0.4939 -0.2950
 3591TIP3    H232265   0.581   0.694   2.006  0.1252  0.9594 -0.7916
 3592TIP3   OH232266   0.660   2.670  46.092 -0.4029  0.0946  0.2720
 3592TIP3    H132267   0.733   2.641  46.148 -1.1978 -2.3475  0.1776
 3592TIP3    H232268   0.700   2.688  46.007  0.2796  0.1828  0.6019
 3593TIP3   OH232269   3.514   1.686  40.842  0.3824  0.0624 -0.5603
 3593TIP3    H132270   3.524   1.671  40.936 -1.5200  0.3137 -0.2818
 3593TIP3    H232271   3.582   1.631  40.802  1.5757  0.3640  0.9593
 3594TIP3   OH232272   1.092   2.990  35.210 -0.0116  0.4307  0.3941
 3594TIP3    H132273   1.085   3.044  35.289 -0.1581  0.6340  0.2459
 3594TIP3    H232274   1.136   2.910  35.239 -1.7520 -0.3210  1.0943
 3595TIP3   OH232275   3.732   1.698  39.365 -0.3233 -0.5952 -0.4441
 3595TIP3    H132276   3.671   1.745  39.309 -1.7907 -0.1358  1.4133
 3595TIP3    H232277   3.702   1.607  39.362  0.2244 -0.7569 -1.1638
 3596TIP3   OH232278   1.682   0.412  37.926 -0.2434 -0.0649  0.3326
 3596TIP3    H132279   1.741   0.436  37.996  0.7964  0.4660 -0.6960
 3596TIP3    H232280   1.682   0.316  37.925  0.1158 -0.0683  0.7292
 3597TIP3   OH232281   1.067   3.955   3.512  0.0997  0.2008 -0.0603
 3597TIP3    H132282   1.159   3.932   3.523 -0.6159 -1.6078  3.6538
 3597TIP3    H232283   1.068   4.047   3.484  3.0449  0.8957  1.8765
 3598TIP3   OH232284   2.816   2.446  45.513 -0.2783  0.2451 -0.0042
 3598TIP3    H132285   2.728   2.436  45.476 -0.2432  0.1160 -0.0531
 3598TIP3    H232286   2.839   2.538  45.496  0.0577 -0.0145 -1.0292
 3599TIP3   OH232287   2.716   2.169   0.562  0.1714 -0.3398 -0.2594
 3599TIP3    H132288   2.741   2.247   0.612 -0.4217 -0.2199 -0.1421
 3599TIP3    H232289   2.798   2.125   0.543  0.5168  0.3270 -0.3382
 3600TIP3   OH232290   3.854   2.525   1.007  0.2028 -0.3021 -0.4479
 3600TIP3    H132291   3.938   2.505   0.966  0.6439 -0.0661  0.3290
 3600TIP3    H232292   3.789   2.492   0.945  0.8759 -1.1935 -0.7087
 3601TIP3   OH232293   2.846   0.362   8.517  0.3242 -0.3049 -0.3416
 3601TIP3    H132294   2.886   0.337   8.601  1.0717  0.3202 -0.5019
 3601TIP3    H232295   2.915   0.410   8.471 -0.3749  0.1463 -0.9401
 3602TIP3   OH232296   2.766   0.809   3.415  0.5289 -0.2779 -0.2620
 3602TIP3    H132297   2.803   0.857   3.489 -2.4110  0.0338  1.1664
 3602TIP3    H232298   2.753   0.875   3.348  1.0198 -0.0731 -0.1601
 3603TIP3   OH232299   3.859   3.162  34.495  0.6831  0.3482  0.5556
 3603TIP3    H132300   3.821   3.117  34.420  0.1198  0.1303  0.9585
 3603TIP3    H232301   3.916   3.228  34.457  3.9193 -2.5481 -0.0759
 3604TIP3   OH232302   0.926   3.226  25.388  0.2309 -0.6430  0.2398
 3604TIP3    H132303   0.873   3.301  25.414  0.2506 -0.2318 -0.8590
 3604TIP3    H232304   0.882   3.191  25.310  1.4017 -0.4812 -0.5059
 3605TIP3   OH232305   0.990   0.258  47.454 -0.1632  0.1569  0.4493
 3605TIP3    H132306   1.055   0.328  47.448  1.6758 -1.2820  2.0677
 3605TIP3    H232307   1.011   0.199  47.381  0.5022 -0.3935  1.0705
 3606TIP3   OH232308   3.934   1.790   4.035  0.0673 -0.0024 -0.4229
 3606TIP3    H132309   3.988   1.713   4.056  2.3628  0.8472 -2.6722
 3606TIP3    H232310   3.874   1.759   3.968 -2.0352 -0.7929  1.6626
 3607TIP3   OH232311   2.536   3.945  28.890 -0.2910 -0.4742  0.1775
 3607TIP3    H132312   2.613   3.998  28.866 -1.1044  0.5858 -0.1714
 3607TIP3    H232313   2.572   3.872  28.939  0.8870  0.3780  0.6354
 3608TIP3   OH232314   1.270   0.871  41.368  0.7918 -0.2429  0.2260
 3608TIP3    H132315   1.240   0.787  41.332  1.7415 -0.6288  0.3110
 3608TIP3    H232316   1.289   0.924  41.291  3.0935 -1.1649  0.0835
 3609TIP3   OH232317   3.248   2.352  21.382 -0.0437 -0.2817  0.1886
 3609TIP3    H132318   3.267   2.366  21.475 -3.0710  0.1304  0.8535
 3609TIP3    H232319   3.252   2.439  21.343  0.5548 -0.3669  0.0398
 3610TIP3   OH232320   4.091   1.290  14.368 -0.2353  0.0963  0.3849
 3610TIP3    H132321   4.128   1.232  14.302  0.6581  0.1281  0.8451
 3610TIP3    H232322   4.132   1.375  14.352  0.5268 -0.0676  1.4158
 3611TIP3   OH232323   2.620   0.811   0.087 -0.1116  0.8265  0.6404
 3611TIP3    H132324   2.541   0.865   0.088 -0.9693 -0.3816  1.5547
 3611TIP3    H232325   2.591   0.726   0.054  1.2892  0.9991 -1.1874
 3612TIP3   OH232326   3.805   3.280   8.382  0.0658  0.0760  0.2582
 3612TIP3    H132327   3.797   3.191   8.349  0.4857 -0.4655  1.5570
 3612TIP3    H232328   3.714   3.308   8.396 -0.0370 -0.6074  1.0013
 3613TIP3   OH232329   1.627   1.901  16.574  0.1588  0.3721 -0.0547
 3613TIP3    H132330   1.678   1.982  16.587 -0.1616  0.3313  1.7169
 3613TIP3    H232331   1.541   1.921  16.610  0.7058 -1.4044  2.5042
 3614TIP3   OH232332   0.968   3.615  31.959 -0.1206 -0.3968 -0.6379
 3614TIP3    H132333   0.911   3.558  31.906  1.4223 -2.7090  0.0300
 3614TIP3    H232334   0.969   3.698  31.912 -1.8440 -1.1496 -2.1278
 3615TIP3   OH232335   0.108   3.229  31.205 -0.3611  0.4462  0.1229
 3615TIP3    H132336   0.073   3.293  31.143  0.5069  0.9545  0.1462
 3615TIP3    H232337   0.049   3.234  31.281 -0.2186  1.3118  0.1780
 3616TIP3   OH232338   1.672   3.492  32.171 -0.0063 -0.4828 -0.1934
 3616TIP3    H132339   1.587   3.458  32.143 -0.8613 -0.0644  1.7240
 3616TIP3    H232340   1.710   3.421  32.223  0.5722 -0.4477 -0.5587
 3617TIP3   OH232341   2.391   1.556  33.364 -0.6283 -0.0352  0.1375
 3617TIP3    H132342   2.310   1.602  33.385 -0.6734 -0.4319  0.8649
 3617TIP3    H232343   2.369   1.501  33.289 -0.7130  0.7174 -0.4038
 3618TIP3   OH232344   0.679   2.226  32.270 -1.0113 -0.0560 -0.0340
 3618TIP3    H132345   0.602   2.232  32.213  0.1860 -0.6857 -1.8201
 3618TIP3    H232346   0.728   2.306  32.252  0.0420 -0.8788 -0.9662
 3619TIP3   OH232347   2.524   1.520  37.907  0.1216 -0.2331  0.3900
 3619TIP3    H132348   2.535   1.431  37.941  0.3836  0.0449  1.0530
 3619TIP3    H232349   2.583   1.574  37.961 -0.6644  0.4770  0.5671
 3620TIP3   OH232350   1.346   0.575  26.874 -0.2562 -0.1838  0.5164
 3620TIP3    H132351   1.344   0.572  26.779 -1.7804  2.9671  0.3339
 3620TIP3    H232352   1.293   0.500  26.902 -1.6674  0.1144 -1.2163
 3621TIP3   OH232353   3.777   1.611  14.105 -0.2591  0.2998 -0.1510
 3621TIP3    H132354   3.861   1.657  14.100 -0.5425  0.6707 -2.6206
 3621TIP3    H232355   3.729   1.657  14.174  0.5205  1.9462 -0.6548
 3622TIP3   OH232356   1.879   1.653  39.119 -0.0583 -0.1237 -0.1654
 3622TIP3    H132357   1.957   1.687  39.075 -0.8334  0.4086 -1.1838
 3622TIP3    H232358   1.858   1.720  39.184 -0.0644  0.0912 -0.3814
 3623TIP3   OH232359   0.144   1.346  37.490 -0.0120  0.9690  0.0458
 3623TIP3    H132360   0.082   1.395  37.544  0.7034 -0.0258  1.8627
 3623TIP3    H232361   0.090   1.309  37.420 -1.4614  0.3101  1.4453
 3624TIP3   OH232362   1.581   1.432  31.921  0.0463 -0.1388 -0.0370
 3624TIP3    H132363   1.566   1.499  31.987 -0.7794 -1.5748  1.3189
 3624TIP3    H232364   1.496   1.388  31.912  0.0856  0.1130 -2.2197
 3625TIP3   OH232365   3.537   0.242  41.244 -0.1601 -0.4871 -0.0992
 3625TIP3    H132366   3.619   0.244  41.196 -0.6682  1.0132 -0.9713
 3625TIP3    H232367   3.561   0.209  41.331  1.6535  1.2779  0.1557
 3626TIP3   OH232368   1.417   0.650  42.008  0.0338  0.7458  0.1492
 3626TIP3    H132369   1.474   0.614  42.076  1.6977  0.3054 -1.3978
 3626TIP3    H232370   1.388   0.573  41.959  0.9100  1.2180 -1.1529
 3627TIP3   OH232371   1.311   0.579   1.623 -0.2903 -0.6579 -0.4783
 3627TIP3    H132372   1.374   0.552   1.689  0.2871 -0.6477 -1.0199
 3627TIP3    H232373   1.361   0.581   1.541 -0.7970  0.1318 -0.7788
 3628TIP3   OH232374   2.880   0.855  38.482  0.3654 -0.3573 -0.3143
 3628TIP3    H132375   2.850   0.767  38.460  1.6170 -0.8837  0.0100
 3628TIP3    H232376   2.808   0.893  38.532 -0.1964 -1.1905 -0.4663
 3629TIP3   OH232377   0.558   3.634  14.557 -0.7377 -0.2423 -0.1582
 3629TIP3    H132378   0.599   3.712  14.522 -1.0058 -0.2198 -0.4314
 3629TIP3    H232379   0.616   3.562  14.532 -1.0455 -0.2535 -0.8664
 3630TIP3   OH232380   3.407   2.322  14.135  0.9435 -0.1352  0.2807
 3630TIP3    H132381   3.431   2.230  14.140  2.8511  0.1701 -1.7066
 3630TIP3    H232382   3.460   2.364  14.203  0.7420 -0.3977  0.5987
 3631TIP3   OH232383   1.686   2.881   2.725 -0.1302 -0.7205  0.3036
 3631TIP3    H132384   1.635   2.800   2.728  0.4223 -1.0690  0.3705
 3631TIP3    H232385   1.635   2.939   2.667  0.4078 -1.7706 -1.2823
 3632TIP3   OH232386   3.520   0.980  21.024 -0.0095 -0.4748  0.5971
 3632TIP3    H132387   3.445   0.921  21.034 -1.7938  1.0444 -2.2749
 3632TIP3    H232388   3.486   1.066  21.049  2.3008 -0.3406  3.9110
 3633TIP3   OH232389   3.415   1.637   6.981  0.0188 -0.2889 -0.2056
 3633TIP3    H132390   3.400   1.572   7.048 -1.8252  0.0167 -0.2903
 3633TIP3    H232391   3.400   1.721   7.024 -0.8908 -0.0748 -0.9110
 3634TIP3   OH232392   1.680   3.120  39.736 -0.0848  0.2646  0.1602
 3634TIP3    H132393   1.681   3.204  39.690 -0.9638 -0.2092 -0.7485
 3634TIP3    H232394   1.750   3.069  39.695 -0.3792  0.1081 -0.1510
 3635TIP3   OH232395   0.746   0.037   6.134 -0.7634  0.2760  0.4668
 3635TIP3    H132396   0.773  -0.019   6.061 -2.6754  0.5379 -0.4877
 3635TIP3    H232397   0.716   0.118   6.092 -2.4182  0.2301  1.4781
 3636TIP3   OH232398   3.397   1.817  16.065 -0.2150  0.0207 -0.1202
 3636TIP3    H132399   3.477   1.782  16.027  1.3617  2.8251  0.4145
 3636TIP3    H232400   3.353   1.740  16.101  2.5970 -1.5471  0.2458
 3637TIP3   OH232401   3.363   3.970  39.214  0.1018  0.3586 -0.2519
 3637TIP3    H132402   3.347   3.878  39.194  1.7342  0.0896 -0.5098
 3637TIP3    H232403   3.281   4.014  39.193 -0.5513 -0.9689 -0.5991
 3638TIP3   OH232404   3.045   1.203  46.427  0.0601 -0.0677 -0.5208
 3638TIP3    H132405   3.034   1.293  46.397  0.0828 -0.2198 -0.9936
 3638TIP3    H232406   3.139   1.191  46.435  0.0167  0.3486  0.7895
 3639TIP3   OH232407   2.375   1.076  14.312 -0.2250  0.0408  0.6180
 3639TIP3    H132408   2.284   1.052  14.331  0.5129 -1.7256  2.1902
 3639TIP3    H232409   2.428   1.017  14.366  1.8724  1.4167  0.1988
 3640TIP3   OH232410   3.744   0.386  38.818 -0.2031  0.2038 -0.0444
 3640TIP3    H132411   3.732   0.405  38.725  2.5556 -0.3191 -0.5797
 3640TIP3    H232412   3.758   0.471  38.858  0.4193  0.2827 -0.4270
 3641TIP3   OH232413   1.819   1.163  13.772 -0.5090  0.4754  0.0911
 3641TIP3    H132414   1.792   1.087  13.824 -1.1430  0.8023  0.2505
 3641TIP3    H232415   1.913   1.169  13.785 -0.5803  0.2243  0.7617
 3642TIP3   OH232416   0.364   3.446  32.142  0.0623  0.3212  0.2711
 3642TIP3    H132417   0.297   3.513  32.150 -1.7302 -1.3067 -0.3553
 3642TIP3    H232418   0.369   3.406  32.229 -0.0770  0.1866  0.2178
 3643TIP3   OH232419   0.192   0.414  25.977  0.0639  0.0769 -0.2600
 3643TIP3    H132420   0.278   0.377  25.999 -0.8901 -1.4478  1.1210
 3643TIP3    H232421   0.211   0.503  25.946  2.1162 -0.1536  0.2063
 3644TIP3   OH232422   0.129   0.045  38.677  0.0429 -0.6183 -0.0281
 3644TIP3    H132423   0.191   0.051  38.749 -0.8414 -1.3814  0.8325
 3644TIP3    H232424   0.149  -0.039  38.635  0.4707 -0.2358 -0.5997
 3645TIP3   OH232425   2.379   0.642  31.542  0.1394  0.0213 -0.1542
 3645TIP3    H132426   2.430   0.572  31.583  1.0263  0.9023  0.3028
 3645TIP3    H232427   2.441   0.715  31.533 -1.0231  1.1427  0.4366
 3646TIP3   OH232428   0.457   2.905  39.821  0.2205  0.2321 -0.2762
 3646TIP3    H132429   0.376   2.854  39.830  0.4124  0.0913  0.8276
 3646TIP3    H232430   0.502   2.864  39.747 -0.7040  0.3096 -0.9034
 3647TIP3   OH232431   2.643   0.026  38.190  0.2080  0.1414  0.4827
 3647TIP3    H132432   2.733   0.022  38.220 -0.7133 -0.8286  3.4169
 3647TIP3    H232433   2.600   0.087  38.249 -1.6145 -1.4283  0.8864
 3648TIP3   OH232434   3.260   3.122  34.157  0.0407  0.0716  0.4943
 3648TIP3    H132435   3.223   3.210  34.150 -2.6651 -0.8354  1.8310
 3648TIP3    H232436   3.276   3.110  34.250 -0.8014 -1.2539  0.4950
 3649TIP3   OH232437   0.120   0.320   5.842  0.3983 -0.2082  0.0908
 3649TIP3    H132438   0.210   0.337   5.869  0.7712  0.0975 -1.2850
 3649TIP3    H232439   0.094   0.243   5.894  1.3057 -0.0763  0.7746
 3650TIP3   OH232440   2.485   0.228  36.931  0.3738  0.3202  0.0280
 3650TIP3    H132441   2.537   0.279  36.869  0.0054 -0.2597 -0.7614
 3650TIP3    H232442   2.547   0.164  36.967  0.7317  1.0274  0.7046
 3651TIP3   OH232443   3.226   2.350  12.772 -0.3977  0.0181  0.6075
 3651TIP3    H132444   3.160   2.345  12.841 -0.8782  2.3676  0.4000
 3651TIP3    H232445   3.176   2.347  12.690 -0.0838 -0.0588  0.4170
 3652TIP3   OH232446   1.550   3.822  12.977 -0.2440  0.0063  0.3612
 3652TIP3    H132447   1.620   3.874  12.938  2.0514 -1.7575  1.8360
 3652TIP3    H232448   1.473   3.879  12.976  1.5181  2.5099 -0.1969
 3653TIP3   OH232449   2.490   0.429  12.806 -0.0638 -0.5704  0.1376
 3653TIP3    H132450   2.513   0.522  12.806 -2.1360 -0.0125  0.3536
 3653TIP3    H232451   2.467   0.410  12.896  2.4213 -1.9296  0.5898
 3654TIP3   OH232452   0.184   3.391  40.569 -0.9277 -0.1329 -0.9254
 3654TIP3    H132453   0.274   3.411  40.545 -0.8886  0.5669 -0.2248
 3654TIP3    H232454   0.181   3.296  40.576 -1.0383 -0.4657 -4.0434
 3655TIP3   OH232455   1.154   3.532   0.119  0.8456  0.0587  0.2282
 3655TIP3    H132456   1.143   3.622   0.087 -1.3795 -0.2981 -0.1654
 3655TIP3    H232457   1.197   3.486   0.047 -1.1224  0.0505 -1.0259
 3656TIP3   OH232458   3.775   1.380  12.654 -0.6493  0.2285  0.1160
 3656TIP3    H132459   3.735   1.399  12.739 -2.5073 -1.4520 -0.3084
 3656TIP3    H232460   3.755   1.458  12.601 -1.0075  0.5608  0.7226
 3657TIP3   OH232461   0.908   0.700  13.464  0.2821 -0.6412  0.0884
 3657TIP3    H132462   0.854   0.777  13.450  0.8371 -0.6222 -2.2995
 3657TIP3    H232463   0.851   0.639  13.512 -1.3859 -0.0758 -1.0983
 3658TIP3   OH232464   3.697   3.095  11.600  0.0283 -0.5629  0.1374
 3658TIP3    H132465   3.681   3.030  11.669 -1.1476 -0.8919 -0.4237
 3658TIP3    H232466   3.663   3.177  11.636 -0.6679 -0.7526 -0.0787
 3659TIP3   OH232467   4.081   1.832  10.826 -0.0326 -0.3913  0.3384
 3659TIP3    H132468   4.034   1.915  10.835  0.7891  0.0382  0.8530
 3659TIP3    H232469   4.170   1.858  10.802  0.4247 -1.0847  1.2475
 3660TIP3   OH232470   2.611   2.532  16.003 -0.0703 -0.1486 -0.1873
 3660TIP3    H132471   2.619   2.513  15.909 -1.4690 -0.2600 -0.3120
 3660TIP3    H232472   2.516   2.541  16.017  0.1458  0.1895  1.1557
 3661TIP3   OH232473   0.309   3.974   1.572  0.1573 -0.2875  0.0584
 3661TIP3    H132474   0.270   4.055   1.607  2.3158  1.0811 -0.4973
 3661TIP3    H232475   0.402   3.981   1.595  0.5516 -2.2233 -0.7819
 3662TIP3   OH232476   3.153   0.114  45.145  0.2408  0.1856 -0.0721
 3662TIP3    H132477   3.206   0.193  45.138  0.6682  0.1454  2.0285
 3662TIP3    H232478   3.175   0.077  45.230 -2.7787 -0.1127  0.7080
 3663TIP3   OH232479   3.450   0.519  45.544 -0.5122 -0.5176 -0.4630
 3663TIP3    H132480   3.424   0.496  45.455 -0.9025  1.1238 -0.7944
 3663TIP3    H232481   3.372   0.504  45.597 -0.7602  0.0280 -0.6740
 3664TIP3   OH232482   1.649   2.011  36.643 -0.0293  0.4206 -0.0332
 3664TIP3    H132483   1.697   2.051  36.716  0.7976 -1.8923  0.7839
 3664TIP3    H232484   1.561   2.048  36.649 -0.4627 -0.8181  3.1821
 3665TIP3   OH232485   1.902   3.808  47.491  0.0618  0.0821  0.0680
 3665TIP3    H132486   1.862   3.791  47.577 -0.2877  0.0377 -0.1028
 3665TIP3    H232487   1.846   3.763  47.429 -0.1567  0.8036 -0.2657
 3666TIP3   OH232488   0.438   1.394  31.318 -0.4347  0.2522 -0.2307
 3666TIP3    H132489   0.511   1.456  31.320 -0.6953  0.5731 -0.5765
 3666TIP3    H232490   0.471   1.317  31.364  0.5595 -0.0748 -1.4437
 3667TIP3   OH232491   1.587   3.040   7.593  0.1892  0.5439  0.4514
 3667TIP3    H132492   1.511   3.096   7.575  0.3477  0.0455 -2.2208
 3667TIP3    H232493   1.658   3.080   7.543  0.9581 -0.5566  0.6279
 3668TIP3   OH232494   0.031   4.069   9.388  0.2925  0.4140 -0.3697
 3668TIP3    H132495   0.094   4.109   9.448 -0.8362  2.6913 -0.6042
 3668TIP3    H232496  -0.035   4.030   9.445  1.3439 -1.1111 -0.1399
 3669TIP3   OH232497   0.926   3.256   4.877  0.6720  0.5414 -0.2553
 3669TIP3    H132498   0.831   3.239   4.878  0.9940 -1.9423 -2.1397
 3669TIP3    H232499   0.937   3.326   4.812  0.2315 -0.3960 -1.3780
 3670TIP3   OH232500   3.657   2.341   7.651  0.5097  0.0403 -0.1485
 3670TIP3    H132501   3.644   2.246   7.649  3.0644 -0.3726 -0.2919
 3670TIP3    H232502   3.714   2.359   7.577 -0.0328  1.7393 -0.1994
 3671TIP3   OH232503   0.074   0.070  11.168 -0.6506 -0.6210 -0.0654
 3671TIP3    H132504   0.037   0.121  11.096  1.4037 -1.6038 -1.9423
 3671TIP3    H232505   0.084   0.134  11.239 -1.1086  0.8303 -1.2427
 3672TIP3   OH232506   3.254   4.008  44.995  0.3400  0.1520  0.3013
 3672TIP3    H132507   3.252   4.087  45.049 -1.0200  0.5191 -0.2441
 3672TIP3    H232508   3.249   3.936  45.057 -0.2444  0.5457  0.7144
 3673TIP3   OH232509   2.267   1.290  38.761  0.0474 -0.2027  0.4825
 3673TIP3    H132510   2.229   1.210  38.726 -1.4603  1.5159 -2.1301
 3673TIP3    H232511   2.315   1.328  38.688  0.0567  1.6784  1.4156
 3674TIP3   OH232512   2.451   3.911  42.843 -0.1058  0.5021 -0.1128
 3674TIP3    H132513   2.502   3.892  42.922 -0.3962 -0.5866 -0.1735
 3674TIP3    H232514   2.360   3.907  42.873 -0.3840 -2.7881 -1.0035
 3675TIP3   OH232515   1.185   1.209   6.471  0.2015  0.4931 -0.0365
 3675TIP3    H132516   1.205   1.245   6.557 -0.5657  1.5580 -0.2884
 3675TIP3    H232517   1.091   1.189   6.474 -0.0156  1.3397 -0.8978
 3676TIP3   OH232518   3.726   2.082  34.545  0.4708 -0.0509 -0.1928
 3676TIP3    H132519   3.740   2.106  34.453  0.1406  2.9350  0.4575
 3676TIP3    H232520   3.631   2.077  34.555  0.4634  0.8308  0.2433
 3677TIP3   OH232521   0.171   3.648  47.180 -0.6017 -0.2323  0.2685
 3677TIP3    H132522   0.103   3.711  47.204 -0.2201 -0.1625  1.2142
 3677TIP3    H232523   0.154   3.629  47.087 -0.1489  1.9777 -0.3263
 3678TIP3   OH232524   0.494   4.076  11.363 -0.1205  0.0577 -0.0966
 3678TIP3    H132525   0.511   4.133  11.438  0.2450 -0.8650  0.5393
 3678TIP3    H232526   0.581   4.050  11.333 -0.2452  0.7844 -1.1520
 3679TIP3   OH232527   0.521   0.927  31.194  0.1047 -0.7146  0.1426
 3679TIP3    H132528   0.441   0.907  31.242 -0.4453 -0.4198 -0.6180
 3679TIP3    H232529   0.509   0.885  31.109  0.9557 -1.0373  0.1682
 3680TIP3   OH232530   1.880   3.361  29.123 -0.5490 -0.0989 -0.5778
 3680TIP3    H132531   1.852   3.270  29.120 -0.6776 -0.2486  2.2495
 3680TIP3    H232532   1.803   3.409  29.152  0.0415  0.5960 -0.1167
 3681TIP3   OH232533   2.538   0.601  34.566  0.3001  0.2212 -0.0668
 3681TIP3    H132534   2.466   0.608  34.630  1.9535  0.3275  1.8948
 3681TIP3    H232535   2.528   0.679  34.511 -3.4225 -1.7591 -2.5754
 3682TIP3   OH232536   1.152   0.554  12.904  0.4319 -0.4770 -0.3138
 3682TIP3    H132537   1.209   0.597  12.840  1.9005 -0.1077  1.1791
 3682TIP3    H232538   1.088   0.622  12.928 -0.8140 -0.9465 -2.1205
 3683TIP3   OH232539   4.015   3.523  29.598  0.4418 -0.6935 -0.4159
 3683TIP3    H132540   4.107   3.544  29.581  0.5883  0.1285  1.1963
 3683TIP3    H232541   3.985   3.592  29.658 -0.9177 -1.5454 -0.0610
 3684TIP3   OH232542   0.369   0.260  33.504 -0.0536 -0.2595 -0.1639
 3684TIP3    H132543   0.337   0.307  33.427  0.8654  1.7922  0.6425
 3684TIP3    H232544   0.452   0.302  33.525  0.1971 -1.4448  1.3789
 3685TIP3   OH232545   3.212   1.930  35.555 -0.2396 -0.1038  0.0987
 3685TIP3    H132546   3.173   2.012  35.523  0.7877  0.5166  0.3606
 3685TIP3    H232547   3.138   1.870  35.564 -0.8362  0.3389 -1.4563
 3686TIP3   OH232548   0.423   3.959  39.406  0.4401 -0.3732  0.2717
 3686TIP3    H132549   0.384   4.030  39.457 -0.5071 -0.3430 -0.4483
 3686TIP3    H232550   0.517   3.974  39.412  0.2744  0.6652  0.5337
 3687TIP3   OH232551   1.726   2.543  35.646  0.4354 -0.0857 -0.1344
 3687TIP3    H132552   1.649   2.502  35.686 -0.0001  0.4385 -0.4157
 3687TIP3    H232553   1.784   2.563  35.719  0.9350 -1.7604 -0.0499
 3688TIP3   OH232554   3.683   3.907  37.365 -0.4811 -0.4390 -0.3712
 3688TIP3    H132555   3.656   3.894  37.456 -0.2159  1.0731 -0.0518
 3688TIP3    H232556   3.778   3.893  37.366 -0.2497  0.9562 -0.0942
 3689TIP3   OH232557   2.982   0.110  32.502 -0.4089 -0.8203  0.3236
 3689TIP3    H132558   2.939   0.065  32.429 -0.1471  0.4298 -0.6375
 3689TIP3    H232559   3.075   0.091  32.491 -0.1964  0.5456 -0.5791
 3690TIP3   OH232560   1.520   3.344  28.569  0.5584  0.4254  0.1354
 3690TIP3    H132561   1.494   3.435  28.551 -0.5936 -0.5358 -4.5578
 3690TIP3    H232562   1.591   3.327  28.507  0.8410 -1.8571  0.9904
 3691TIP3   OH232563   3.827   1.386  34.621 -0.1343 -0.2812  0.3635
 3691TIP3    H132564   3.845   1.293  34.607 -0.0035 -0.2663  0.4324
 3691TIP3    H232565   3.874   1.408  34.701 -2.5415 -0.8706  2.0284
 3692TIP3   OH232566   2.829   2.039  43.292  0.4151 -0.3042 -0.3072
 3692TIP3    H132567   2.749   1.987  43.305  0.8652 -1.0235 -0.3328
 3692TIP3    H232568   2.837   2.049  43.197 -0.7252  1.5269 -0.2673
 3693TIP3   OH232569   3.428   0.074  13.783  0.5519  0.4915 -0.4913
 3693TIP3    H132570   3.340   0.044  13.759  1.1140  0.3904 -2.6302
 3693TIP3    H232571   3.427   0.168  13.764  0.9505  0.4556 -0.6905
 3694TIP3   OH232572   3.421   1.198  46.097 -0.0240 -0.3407 -0.5315
 3694TIP3    H132573   3.396   1.233  46.182 -2.0381 -0.1220 -1.1627
 3694TIP3    H232574   3.427   1.274  46.040  2.1638 -0.3887 -0.4453
 3695TIP3   OH232575   2.942   1.869  16.209 -0.3127 -0.0401 -0.1117
 3695TIP3    H132576   2.929   1.929  16.282  0.1068  2.1020 -1.7007
 3695TIP3    H232577   3.037   1.858  16.204 -0.2816  0.4557 -0.7797
 3696TIP3   OH232578   3.799   2.631  12.511 -0.2513 -0.2462  0.2217
 3696TIP3    H132579   3.773   2.545  12.477 -0.2380  0.4294 -1.5841
 3696TIP3    H232580   3.888   2.618  12.543 -0.1433 -0.8315 -0.3055
 3697TIP3   OH232581   1.932   1.471  10.421 -0.3580  0.2373 -0.0571
 3697TIP3    H132582   1.873   1.528  10.371 -1.0944 -0.7323 -0.3262
 3697TIP3    H232583   1.955   1.401  10.359  0.1033 -0.0499  0.4335
 3698TIP3   OH232584   1.632   2.118   6.657  0.5273 -0.2435 -0.2631
 3698TIP3    H132585   1.697   2.165   6.709  0.3058 -0.8750  0.5965
 3698TIP3    H232586   1.656   2.137   6.566  1.5163  0.0595  0.0536
 3699TIP3   OH232587   0.090   0.456  35.108 -0.4869  0.2531  0.4191
 3699TIP3    H132588   0.073   0.491  35.021  0.6516  0.8447  0.4207
 3699TIP3    H232589   0.102   0.362  35.094  0.2489  0.4233 -0.1528
 3700TIP3   OH232590   1.629   0.305  10.008 -0.0056 -0.0389  0.0621
 3700TIP3    H132591   1.653   0.252   9.932 -2.2784  0.8203 -1.3512
 3700TIP3    H232592   1.621   0.394   9.973 -0.8525  0.4147  1.3454
 3701TIP3   OH232593   2.136   2.017   7.702  0.1766 -0.6423 -0.2199
 3701TIP3    H132594   2.054   2.030   7.656  0.1001  0.1904  0.1389
 3701TIP3    H232595   2.204   2.041   7.639  0.0729  0.4632  0.0663
 3702TIP3   OH232596   0.117   3.015   8.819  0.0341 -0.8453  0.2608
 3702TIP3    H132597   0.034   3.062   8.809 -0.9791 -2.6193 -0.2082
 3702TIP3    H232598   0.119   2.989   8.911 -1.5056 -3.3770 -0.3027
 3703TIP3   OH232599   3.788   3.732  12.193  0.0433  0.2860 -0.6517
 3703TIP3    H132600   3.875   3.768  12.177  1.1069 -0.8420  1.9621
 3703TIP3    H232601   3.731   3.808  12.202  1.1242  1.1080 -0.6290
 3704TIP3   OH232602   3.486   0.538  35.890  0.3690  0.5480  0.5965
 3704TIP3    H132603   3.437   0.461  35.919  0.6325 -0.2094 -0.8714
 3704TIP3    H232604   3.571   0.531  35.935  0.3594  0.0215  0.5358
 3705TIP3   OH232605   3.303   3.152   6.490 -0.6114  0.2166  0.3943
 3705TIP3    H132606   3.328   3.146   6.398 -0.9583  0.9780  0.2405
 3705TIP3    H232607   3.354   3.083   6.534  0.8523  0.9444 -0.0957
 3706TIP3   OH232608   0.387   0.346   8.563  0.2296  0.1973 -0.4646
 3706TIP3    H132609   0.362   0.274   8.506 -0.6990  0.0818  0.0686
 3706TIP3    H232610   0.334   0.420   8.533 -0.8062 -0.0516  0.6844
 3707TIP3   OH232611   1.147   1.571  11.065  0.2212 -0.1497 -0.6914
 3707TIP3    H132612   1.218   1.556  11.128 -0.6731 -0.8259  0.1834
 3707TIP3    H232613   1.189   1.619  10.993  1.3523  0.3151  0.2373
 3708TIP3   OH232614   1.484   1.031  38.740 -0.1072 -0.2096 -0.0990
 3708TIP3    H132615   1.408   1.018  38.797 -1.8625  0.5107 -2.1444
 3708TIP3    H232616   1.477   0.963  38.674 -0.3763  1.2739 -1.6796
 3709TIP3   OH232617   0.472   2.575   3.863  0.3118 -0.3122 -0.1517
 3709TIP3    H132618   0.446   2.539   3.779  1.4088 -0.3767 -0.4828
 3709TIP3    H232619   0.539   2.640   3.841 -0.8974  1.2212  0.5092
 3710TIP3   OH232620   1.040   2.907  45.411 -0.4851  0.5880 -0.0495
 3710TIP3    H132621   1.017   2.832  45.356 -1.6114  0.9340 -0.0864
 3710TIP3    H232622   1.001   2.982  45.366 -3.2059  0.6631  2.1695
 3711TIP3   OH232623   1.364   0.351   4.428  0.1005  0.2920 -0.0172
 3711TIP3    H132624   1.430   0.359   4.497  1.5703 -0.1866 -1.3208
 3711TIP3    H232625   1.356   0.440   4.393 -0.0748  0.3814  0.2446
 3712TIP3   OH232626   3.532   2.307  41.380  0.2098  0.0027 -0.8163
 3712TIP3    H132627   3.465   2.374  41.396  0.1932  0.0399 -1.0372
 3712TIP3    H232628   3.499   2.259  41.305 -0.6763 -1.4138  0.4162
 3713TIP3   OH232629   2.952   3.813  33.841 -0.2941 -0.0015  0.5527
 3713TIP3    H132630   3.039   3.777  33.858  0.1970  0.5891 -0.6247
 3713TIP3    H232631   2.967   3.906  33.826 -1.1650  0.1481  0.5530
 3714TIP3   OH232632   4.096   2.510  32.755  0.2390 -0.4078 -0.7725
 3714TIP3    H132633   4.009   2.513  32.795  0.3664  0.1864 -0.5252
 3714TIP3    H232634   4.125   2.420  32.767  0.9008  0.0638  1.8636
 3715TIP3   OH232635   3.189   0.525   2.752  0.2408  0.3044 -0.2365
 3715TIP3    H132636   3.199   0.480   2.836  1.8919  2.3106  0.7629
 3715TIP3    H232637   3.095   0.530   2.738 -0.0365 -1.1208  0.8853
 3716TIP3   OH232638   1.923   2.221  46.824  0.8372 -0.3141 -0.5861
 3716TIP3    H132639   1.933   2.146  46.882 -1.3662  0.6359  1.2091
 3716TIP3    H232640   1.832   2.248  46.836  1.9238  3.6635  0.1996
 3717TIP3   OH232641   3.796   2.948  46.642  0.3650  0.3082  0.2022
 3717TIP3    H132642   3.869   2.948  46.703  1.1802 -0.5060 -0.7217
 3717TIP3    H232643   3.729   2.894  46.684  1.7433 -2.0961 -0.4862
 3718TIP3   OH232644   0.651   1.008   0.604 -0.0473 -0.0321  0.4647
 3718TIP3    H132645   0.597   1.022   0.682 -0.5002 -1.3311  0.4172
 3718TIP3    H232646   0.729   0.962   0.636  0.2572  0.3684  0.3015
 3719TIP3   OH232647   2.870   0.597  36.312 -0.0973  0.1927 -0.2087
 3719TIP3    H132648   2.948   0.548  36.339  0.7921  1.3164 -0.6621
 3719TIP3    H232649   2.828   0.541  36.246  0.0116 -0.6703  0.4412
 3720TIP3   OH232650   3.270   1.981  17.727  0.1847  0.2352 -0.5038
 3720TIP3    H132651   3.300   1.917  17.662 -0.9314  1.2306 -2.0776
 3720TIP3    H232652   3.180   2.003  17.700 -0.3901  0.5696  1.4949
 3721TIP3   OH232653   4.098   0.397  43.907 -0.5073  0.5334  0.0323
 3721TIP3    H132654   4.040   0.363  43.839 -1.0648  0.2510  0.6409
 3721TIP3    H232655   4.150   0.322  43.934  0.8292  0.9721 -1.1534
 3722TIP3   OH232656   2.644   0.608  12.257  0.3198 -0.5171 -0.0463
 3722TIP3    H132657   2.651   0.703  12.263  0.2483 -0.4356 -1.1272
 3722TIP3    H232658   2.645   0.578  12.348  1.1780  0.4516  0.2827
 3723TIP3   OH232659   3.543   0.472  44.679 -0.0180 -0.1275  0.2977
 3723TIP3    H132660   3.629   0.513  44.686  0.1936 -0.0021 -1.9953
 3723TIP3    H232661   3.559   0.379  44.696  0.4054  0.0321  0.7713
 3724TIP3   OH232662   1.999   1.167  36.980  0.2276 -0.4683  0.0163
 3724TIP3    H132663   1.916   1.205  36.953  0.1938 -0.5411  0.0160
 3724TIP3    H232664   2.026   1.112  36.906 -0.2811 -1.3382  0.4511
 3725TIP3   OH232665   1.299   3.604  46.136  0.3652 -0.2033  0.1225
 3725TIP3    H132666   1.300   3.513  46.106 -0.5295 -1.1064  2.5969
 3725TIP3    H232667   1.348   3.652  46.069 -1.1321 -2.0643 -2.4933
 3726TIP3   OH232668   1.107   2.164   8.778  0.3762 -0.3209 -0.2113
 3726TIP3    H132669   1.069   2.251   8.763 -0.5595 -0.7964 -0.7454
 3726TIP3    H232670   1.033   2.111   8.807  0.7979 -1.0889 -0.5161
 3727TIP3   OH232671   2.899   2.620   9.099 -0.1585  1.1565 -0.3750
 3727TIP3    H132672   2.893   2.688   9.166  0.2877  0.6058  0.2354
 3727TIP3    H232673   2.808   2.600   9.077 -0.3583  0.4182  1.0316
 3728TIP3   OH232674   2.699   3.951  26.695 -0.1263 -0.8264  0.5192
 3728TIP3    H132675   2.745   3.872  26.723 -1.0978 -1.4621  0.3722
 3728TIP3    H232676   2.638   3.970  26.766  0.9568  0.5283  1.1181
 3729TIP3   OH232677   2.891   3.920  14.366  0.3644 -0.2236 -0.0994
 3729TIP3    H132678   2.848   3.891  14.446  0.5126 -1.6481 -0.5231
 3729TIP3    H232679   2.947   3.847  14.339 -1.2513 -0.6468 -2.6508
 3730TIP3   OH232680   2.055   3.347  38.855  0.6088 -0.3461 -0.3159
 3730TIP3    H132681   1.992   3.326  38.786  0.1775 -1.0329  0.2749
 3730TIP3    H232682   2.001   3.374  38.929  1.0312 -0.4612  0.0342
 3731TIP3   OH232683   4.030   2.425  35.007 -0.1308 -0.2836  0.0710
 3731TIP3    H132684   3.941   2.449  35.032 -0.0863  1.0318 -0.9716
 3731TIP3    H232685   4.085   2.472  35.069 -0.1392 -0.7498  0.4389
 3732TIP3   OH232686   1.489   0.991  41.559  0.1077  0.6407  0.1380
 3732TIP3    H132687   1.534   0.920  41.513 -0.9560  0.1645 -0.2192
 3732TIP3    H232688   1.398   0.985  41.528  0.4471  3.8206 -1.9922
 3733TIP3   OH232689   0.508   3.514   5.448  0.5252 -0.3039 -0.0081
 3733TIP3    H132690   0.600   3.511   5.421  0.7225  0.5232  0.5226
 3733TIP3    H232691   0.510   3.488   5.540  0.3945  0.9174  0.3500
 3734TIP3   OH232692   1.213   0.757  36.594 -0.1795  0.0600  0.4615
 3734TIP3    H132693   1.211   0.753  36.690 -1.8582  0.9406  0.5019
 3734TIP3    H232694   1.139   0.703  36.566 -0.5718  0.9549 -0.2672
 3735TIP3   OH232695   2.661   3.504  41.173  0.7510  0.1816  0.5646
 3735TIP3    H132696   2.668   3.598  41.154  0.2465  0.1732  0.3051
 3735TIP3    H232697   2.745   3.467  41.146  0.1083  0.1890 -1.6345
 3736TIP3   OH232698   3.750   1.964  41.721  0.7313  0.2094  0.2633
 3736TIP3    H132699   3.844   1.984  41.723  0.4223  1.7879  0.6821
 3736TIP3    H232700   3.725   1.977  41.629  0.9141 -0.2462  0.1427
 3737TIP3   OH232701   3.351   1.519  43.859 -0.3305  0.4788  0.4629
 3737TIP3    H132702   3.304   1.479  43.786 -1.3167 -0.5854  1.6032
 3737TIP3    H232703   3.354   1.612  43.839 -2.0161  0.4292 -0.1902
 3738TIP3   OH232704   3.946   3.726  44.980 -0.2216 -0.2065 -0.1362
 3738TIP3    H132705   4.001   3.769  45.046  0.5540 -1.3148 -0.0403
 3738TIP3    H232706   3.990   3.745  44.897  1.5655 -2.8426  0.1142
 3739TIP3   OH232707   3.711   1.090  38.116  0.0684  0.2008  0.2099
 3739TIP3    H132708   3.624   1.123  38.135 -0.6511 -0.3304 -1.8698
 3739TIP3    H232709   3.714   1.004  38.158  0.1395  0.7744  1.4380
 3740TIP3   OH232710   3.849   1.979  42.049  0.1831 -0.9398 -0.3760
 3740TIP3    H132711   3.781   2.005  41.987 -0.9165  0.2138  1.2217
 3740TIP3    H232712   3.893   2.062  42.071 -0.3611 -1.0877  1.3907
 3741TIP3   OH232713   3.398   2.437  33.001  0.5826  0.0594 -0.0964
 3741TIP3    H132714   3.440   2.488  33.070  0.7717  0.2193 -0.3227
 3741TIP3    H232715   3.405   2.346  33.030  1.9270 -0.0076 -0.5486
 3742TIP3   OH232716   3.718   3.736   2.854  0.9525 -0.1156 -0.2199
 3742TIP3    H132717   3.769   3.781   2.786  0.6626 -0.1443 -0.4591
 3742TIP3    H232718   3.696   3.652   2.815  0.3693  0.0592 -0.2784
 3743TIP3   OH232719   1.772   1.612   4.052  0.2863 -0.4083  0.1224
 3743TIP3    H132720   1.759   1.526   4.012  1.6045 -0.1712 -0.8880
 3743TIP3    H232721   1.749   1.675   3.984  2.2219  0.0031 -0.2134
 3744TIP3   OH232722   0.658   3.792   3.239 -0.0358  0.0304 -0.7387
 3744TIP3    H132723   0.590   3.740   3.282  0.4314 -0.6557 -0.8085
 3744TIP3    H232724   0.736   3.737   3.242  0.3231  0.4876 -1.3506
 3745TIP3   OH232725   3.105   3.264  40.302  0.0699  0.3533 -0.6025
 3745TIP3    H132726   3.010   3.276  40.308  0.0535 -0.2488  0.7505
 3745TIP3    H232727   3.139   3.301  40.384  0.9941  0.3802 -0.9838
 3746TIP3   OH232728   0.604   0.042  25.594 -0.3924 -0.8717 -0.3080
 3746TIP3    H132729   0.600  -0.033  25.535  2.9489 -0.4457 -1.2330
 3746TIP3    H232730   0.557   0.112  25.548  1.3638 -0.8094 -2.1122
 3747TIP3   OH232731   3.293   1.814   6.474 -0.2867 -0.2693  0.2186
 3747TIP3    H132732   3.280   1.908   6.466  0.9064 -0.0820  0.3922
 3747TIP3    H232733   3.346   1.804   6.553 -0.8621 -1.1355  0.5138
 3748TIP3   OH232734   0.958   2.975   4.422 -0.1061  0.3815  0.1239
 3748TIP3    H132735   0.955   2.937   4.510 -0.0763 -1.7655 -0.7247
 3748TIP3    H232736   1.050   2.970   4.397 -0.2812 -0.0876 -0.4411
 3749TIP3   OH232737   2.867   3.230   5.458  0.5838 -0.0911 -0.1584
 3749TIP3    H132738   2.949   3.180   5.460  0.3977 -0.3823  0.3508
 3749TIP3    H232739   2.893   3.319   5.481  0.5811 -0.4527  1.3490
 3750TIP3   OH232740   2.913   2.787   0.846 -0.2390 -0.5424  0.1062
 3750TIP3    H132741   2.902   2.693   0.857  0.7855 -1.0034 -2.2663
 3750TIP3    H232742   3.000   2.806   0.881  0.5421 -0.9435 -1.5337
 3751TIP3   OH232743   0.396   1.840  10.194  0.3420 -0.0946  0.1758
 3751TIP3    H132744   0.468   1.779  10.209  0.3119 -0.0796  0.3956
 3751TIP3    H232745   0.350   1.806  10.118 -0.8149 -1.4197  1.3998
 3752TIP3   OH232746   2.131   3.553   5.298  0.0311 -0.4972  0.6025
 3752TIP3    H132747   2.113   3.522   5.387  0.6359 -0.3807  0.7742
 3752TIP3    H232748   2.226   3.555   5.293  0.1281 -3.9384 -1.2731
 3753TIP3   OH232749   2.935   3.644  11.246 -0.4114  0.3145  0.6469
 3753TIP3    H132750   2.957   3.630  11.154  0.9426 -0.6234  1.0824
 3753TIP3    H232751   2.880   3.722  11.246 -2.3725 -0.9543 -1.1892
 3754TIP3   OH232752   2.849   2.478  34.447 -0.2170  0.6502  0.3641
 3754TIP3    H132753   2.892   2.392  34.446 -1.9835 -0.2898  0.8883
 3754TIP3    H232754   2.918   2.539  34.423  1.6654 -0.6418  2.1367
 3755TIP3   OH232755   3.540   3.400  40.403  0.0836 -0.1467 -0.2994
 3755TIP3    H132756   3.600   3.457  40.354  0.0793 -1.0428 -1.3749
 3755TIP3    H232757   3.453   3.432  40.380  0.0803 -0.5815 -0.9277
 3756TIP3   OH232758   0.550   0.136  26.577 -0.4914 -0.1581 -0.3540
 3756TIP3    H132759   0.486   0.072  26.609  0.3653 -0.9240 -0.1334
 3756TIP3    H232760   0.613   0.085  26.526  0.2952  0.4771 -0.0549
 3757TIP3   OH232761   0.685   2.670  42.611 -0.1320 -0.2020 -0.0689
 3757TIP3    H132762   0.756   2.727  42.581  0.3356 -0.9142 -0.3481
 3757TIP3    H232763   0.718   2.581  42.597 -0.6484 -0.5477  0.8313
 3758TIP3   OH232764   2.562   2.214  42.912  0.0428 -0.1490 -0.5631
 3758TIP3    H132765   2.543   2.159  42.988  0.5771  0.0364 -0.2917
 3758TIP3    H232766   2.555   2.155  42.837  1.6994 -0.8663 -0.1908
 3759TIP3   OH232767   2.909   2.868  12.842 -0.0137 -0.2830 -0.4376
 3759TIP3    H132768   2.887   2.804  12.774 -0.9786 -0.4410  0.0012
 3759TIP3    H232769   2.972   2.927  12.801 -1.1356  0.0587 -1.7030
 3760TIP3   OH232770   3.139   2.332  38.887 -0.2222  0.7041 -0.3034
 3760TIP3    H132771   3.155   2.242  38.916  0.4619  1.4539  1.8289
 3760TIP3    H232772   3.161   2.386  38.963  2.4547  2.9557 -2.4569
 3761TIP3   OH232773   3.104   3.651   5.641 -0.6153 -0.0096  0.4895
 3761TIP3    H132774   3.115   3.559   5.666 -1.7553 -0.5568 -0.8640
 3761TIP3    H232775   3.039   3.649   5.571 -0.2565  1.7889  0.0515
 3762TIP3   OH232776   1.784   3.436  46.197  0.0719 -0.1545  0.3756
 3762TIP3    H132777   1.760   3.462  46.108  2.7246 -0.1738 -0.4430
 3762TIP3    H232778   1.856   3.373  46.185  0.2663 -0.4056  2.5164
 3763TIP3   OH232779   1.263   3.954   5.283 -0.4732 -0.1444  0.0999
 3763TIP3    H132780   1.268   3.859   5.268 -0.2397  0.0013 -0.7898
 3763TIP3    H232781   1.192   3.983   5.225  0.2316  0.3954 -0.5044
 3764TIP3   OH232782   3.835   2.254  42.654 -0.2774  0.2533  0.2095
 3764TIP3    H132783   3.899   2.324  42.641  0.6246 -0.7240 -0.9028
 3764TIP3    H232784   3.888   2.174  42.657 -0.9659 -0.2673  4.0427
 3765TIP3   OH232785   0.839   1.979  31.605  0.2986  0.2631  0.3882
 3765TIP3    H132786   0.861   1.893  31.641  0.3637 -0.2251 -0.7849
 3765TIP3    H232787   0.747   1.970  31.578 -0.3236  1.1838  2.0034
 3766TIP3   OH232788   2.715   2.311  19.095  0.6399 -0.2762 -0.0022
 3766TIP3    H132789   2.678   2.285  19.179  0.8553  1.0078  0.5076
 3766TIP3    H232790   2.794   2.258  19.087  0.9645  0.0499  0.9150
 3767TIP3   OH232791   0.566   3.598   7.466 -0.6462  0.0868  0.3258
 3767TIP3    H132792   0.554   3.596   7.561 -1.1867 -1.5648  0.2571
 3767TIP3    H232793   0.659   3.620   7.454 -0.8743  1.6485  1.1697
 3768TIP3   OH232794   1.735   3.123  30.096 -0.1174 -0.1745  1.0558
 3768TIP3    H132795   1.707   3.065  30.167  1.1397  2.7286  4.2003
 3768TIP3    H232796   1.826   3.098  30.079 -0.1973 -0.4052  0.9629
 3769TIP3   OH232797   0.345   1.648  15.075  0.2062 -0.0117  0.1938
 3769TIP3    H132798   0.256   1.641  15.043  0.1701  0.7707  0.1060
 3769TIP3    H232799   0.388   1.568  15.046 -0.4363 -0.3410  0.1442
 3770TIP3   OH232800   0.317   3.176  39.836 -0.0995  0.3978  0.8667
 3770TIP3    H132801   0.305   3.221  39.753 -2.0769  0.4017  1.1156
 3770TIP3    H232802   0.358   3.093  39.814 -2.7232 -0.6413 -0.4397
 3771TIP3   OH232803   0.301   0.246  14.764  0.3882 -0.1200  0.1059
 3771TIP3    H132804   0.326   0.288  14.682  1.5617 -0.4603  0.2706
 3771TIP3    H232805   0.262   0.163  14.738 -3.5715  1.6514 -0.3328
 3772TIP3   OH232806   1.205   3.753   5.065 -0.3403 -0.1638  0.1913
 3772TIP3    H132807   1.197   3.690   5.137  0.3511 -0.2149  0.2362
 3772TIP3    H232808   1.264   3.710   5.003  0.1105  0.4252  0.2059
 3773TIP3   OH232809   2.458   0.625  41.196  0.4370  0.0224  0.0604
 3773TIP3    H132810   2.450   0.690  41.126 -1.0589 -1.0731 -0.8478
 3773TIP3    H232811   2.499   0.550  41.154 -0.9276 -0.8278  0.2250
 3774TIP3   OH232812   3.432   2.525   9.669  0.2541 -0.8130  0.4298
 3774TIP3    H132813   3.512   2.529   9.721  1.8923  0.9212 -1.9969
 3774TIP3    H232814   3.426   2.611   9.627 -1.6386 -1.6793 -1.2621
 3775TIP3   OH232815   3.325   2.621  32.172  0.8911 -0.1211  0.1686
 3775TIP3    H132816   3.412   2.649  32.200  1.2212 -1.3858  0.4614
 3775TIP3    H232817   3.278   2.702  32.153  1.3901  0.6860  2.2220
 3776TIP3   OH232818   1.073   4.078   1.407  0.3220  0.3855 -0.5692
 3776TIP3    H132819   1.164   4.057   1.429  0.6750  2.6562  0.4311
 3776TIP3    H232820   1.071   4.080   1.312 -0.3340 -5.9815 -1.1552
 3777TIP3   OH232821   3.463   2.049  16.193  0.5024 -0.4976  0.3319
 3777TIP3    H132822   3.414   2.108  16.136  0.1525  0.0810  1.2006
 3777TIP3    H232823   3.470   1.967  16.144  2.1233  0.6319 -1.4664
 3778TIP3   OH232824   2.924   2.669  38.244 -0.1478 -0.0330 -0.2487
 3778TIP3    H132825   2.889   2.731  38.309 -0.4827 -1.5839  1.1023
 3778TIP3    H232826   3.004   2.636  38.283  0.8745  0.6816 -1.6725
 3779TIP3   OH232827   2.470   0.320   3.287  0.4444 -0.9229  0.1072
 3779TIP3    H132828   2.547   0.301   3.341 -0.5373  2.5785  3.1517
 3779TIP3    H232829   2.398   0.275   3.331 -0.2312  1.2934  1.4315
 3780TIP3   OH232830   1.249   1.572   9.430  0.5662 -0.0928 -0.8446
 3780TIP3    H132831   1.215   1.483   9.420 -0.4108  0.2798 -0.9470
 3780TIP3    H232832   1.209   1.605   9.511  1.2412  0.1220 -0.5840
 3781TIP3   OH232833   2.446   3.776  44.553  0.1318  0.2688 -0.0718
 3781TIP3    H132834   2.373   3.735  44.505 -1.0485  0.5545  1.4215
 3781TIP3    H232835   2.459   3.860  44.510  0.2991 -0.2157 -1.0014
 3782TIP3   OH232836   0.038   1.781  13.972  0.3327  0.4204 -0.0620
 3782TIP3    H132837   0.051   1.723  14.048  2.1098 -0.5062 -0.9860
 3782TIP3    H232838  -0.052   1.765  13.945 -0.3014  0.6755  1.7495
 3783TIP3   OH232839   1.318   3.454  26.724 -0.3908  0.2705  0.4863
 3783TIP3    H132840   1.369   3.429  26.646  1.0280  0.9050  1.1787
 3783TIP3    H232841   1.266   3.529  26.695 -1.3594 -0.6960 -0.3756
 3784TIP3   OH232842   3.278   2.287   7.320  0.4109 -0.3480  0.0927
 3784TIP3    H132843   3.240   2.343   7.252  0.8605 -0.5284 -0.3194
 3784TIP3    H232844   3.297   2.347   7.393  1.4115  0.1640 -0.5555
 3785TIP3   OH232845   1.043   1.244   8.921  0.3129  0.5166  0.4019
 3785TIP3    H132846   1.074   1.197   8.843 -1.0341 -0.8831  0.6746
 3785TIP3    H232847   0.969   1.296   8.890 -1.4187 -1.4447  1.0178
 3786TIP3   OH232848   1.592   3.055  32.401 -0.2472  0.1758 -0.1781
 3786TIP3    H132849   1.537   3.010  32.337  2.0814 -0.5078 -1.8440
 3786TIP3    H232850   1.661   3.095  32.349 -0.5489  3.2582  1.5505
 3787TIP3   OH232851   2.148   0.641  44.851 -0.3028  0.1775  0.3761
 3787TIP3    H132852   2.164   0.718  44.906 -1.0846 -0.1767  1.1282
 3787TIP3    H232853   2.064   0.659  44.809  0.6561  0.7988 -1.3652
 3788TIP3   OH232854   1.801   0.350  37.663  0.0946 -0.1227 -0.0234
 3788TIP3    H132855   1.864   0.278  37.671  0.7864  0.1286 -2.4865
 3788TIP3    H232856   1.782   0.375  37.754 -0.0121 -3.2246  0.9326
 3789TIP3   OH232857   4.038   0.404  40.444  0.1918 -0.3458  0.2226
 3789TIP3    H132858   4.062   0.318  40.481  1.6446 -0.2313 -0.3889
 3789TIP3    H232859   3.947   0.394  40.418 -0.9701 -0.4412  3.7841
 3790TIP3   OH232860   0.850   2.282   5.835 -0.1723  0.2400  0.3430
 3790TIP3    H132861   0.779   2.344   5.820 -1.1534 -1.1084 -0.8994
 3790TIP3    H232862   0.808   2.196   5.828  1.3436 -0.5741  0.8840
 3791TIP3   OH232863   1.378   1.598   5.915 -0.1822 -0.6734 -0.6688
 3791TIP3    H132864   1.291   1.567   5.891 -0.2586 -0.2263 -0.9925
 3791TIP3    H232865   1.408   1.537   5.982 -1.0746 -0.3743  0.0191
 3792TIP3   OH232866   2.681   0.043  10.603  0.0180 -0.8823  0.3252
 3792TIP3    H132867   2.668   0.042  10.698 -1.9343 -0.1065  0.1194
 3792TIP3    H232868   2.606  -0.007  10.569 -0.4343  0.5610 -0.8855
 3793TIP3   OH232869   1.699   2.591   0.311  0.2602 -0.0090  0.1146
 3793TIP3    H132870   1.708   2.583   0.405  1.6086  1.1043  0.1070
 3793TIP3    H232871   1.613   2.554   0.292 -0.1002 -0.0984  1.7861
 3794TIP3   OH232872   3.930   3.885  27.733 -0.2112 -1.1062  0.0075
 3794TIP3    H132873   3.839   3.885  27.704 -0.8043  2.2067  1.4222
 3794TIP3    H232874   3.980   3.916  27.657 -0.5144 -1.1457 -0.2066
 3795TIP3   OH232875   2.902   0.844   1.297 -0.1323 -0.0695 -0.2586
 3795TIP3    H132876   2.854   0.918   1.259  0.3171  0.0557 -0.5896
 3795TIP3    H232877   2.972   0.827   1.235  1.6869  1.2393  1.3185
 3796TIP3   OH232878   1.731   0.818   6.286  0.7622  0.2579  0.6024
 3796TIP3    H132879   1.715   0.797   6.194 -1.0239 -0.9913  1.1463
 3796TIP3    H232880   1.690   0.904   6.299  1.2288  0.5492  0.1982
 3797TIP3   OH232881   1.023   3.355   0.297  0.8209 -0.7472  0.4010
 3797TIP3    H132882   1.067   3.418   0.240  0.8929 -1.0626  0.1095
 3797TIP3    H232883   1.084   3.282   0.304  1.2481 -0.3081  1.6594
 3798TIP3   OH232884   0.870   3.998   4.771 -0.1778  0.1385  0.5942
 3798TIP3    H132885   0.904   3.914   4.801 -0.9344 -0.6869 -0.7349
 3798TIP3    H232886   0.948   4.048   4.746  0.2783 -0.1429  1.4463
 3799TIP3   OH232887   3.081   1.493   4.187 -0.3265  0.5960 -0.6510
 3799TIP3    H132888   2.985   1.490   4.184 -0.4427 -0.2855  1.6712
 3799TIP3    H232889   3.101   1.549   4.262  0.9540  0.2286 -0.6891
 3800TIP3   OH232890   0.169   3.705   1.240  0.0276  0.0590 -0.3163
 3800TIP3    H132891   0.140   3.795   1.251  0.6893  0.2821 -0.3415
 3800TIP3    H232892   0.091   3.652   1.254 -0.5644  0.6830 -1.2019
 3801TIP3   OH232893   2.652   3.439  33.776 -0.3038 -0.8902  0.2974
 3801TIP3    H132894   2.675   3.432  33.868  1.0686 -0.7479 -0.0109
 3801TIP3    H232895   2.708   3.509  33.742  0.5852 -2.1839 -1.0394
 3802TIP3   OH232896   3.005   1.735   7.450 -0.5143  0.3636 -0.0792
 3802TIP3    H132897   3.065   1.784   7.505  1.2423 -2.2768  0.5662
 3802TIP3    H232898   2.942   1.696   7.511  0.3575 -1.1208 -0.0877
 3803TIP3   OH232899   0.912   3.903  47.030  0.2627  0.0606 -0.1424
 3803TIP3    H132900   0.825   3.929  47.060  0.3530  0.0437  0.1428
 3803TIP3    H232901   0.965   3.982  47.039  0.4399 -0.1092  0.3379
 3804TIP3   OH232902   2.483   0.832   6.301  0.0770 -0.0554  0.0574
 3804TIP3    H132903   2.436   0.870   6.227  0.1268 -0.0753  0.0146
 3804TIP3    H232904   2.575   0.855   6.285  0.3667 -1.6860 -0.9100
 3805TIP3   OH232905   3.555   1.430   0.246 -0.1528 -0.0634 -0.4247
 3805TIP3    H132906   3.494   1.384   0.189  0.1693 -0.9785 -0.0644
 3805TIP3    H232907   3.590   1.361   0.303  0.6831  0.5622 -0.1623
 3806TIP3   OH232908   0.169   1.381  44.316  0.2066  0.0922 -0.0592
 3806TIP3    H132909   0.130   1.391  44.403 -2.5796  0.1328 -1.2183
 3806TIP3    H232910   0.150   1.464  44.271  2.1990  0.3419 -0.5393
 3807TIP3   OH232911   0.514   2.079  17.045 -0.4537  0.1865  0.0657
 3807TIP3    H132912   0.547   2.058  16.957 -2.1700 -0.6079 -0.4479
 3807TIP3    H232913   0.420   2.061  17.039 -0.6984  0.6919  1.9159
 3808TIP3   OH232914   0.367   0.729   1.897 -0.1414 -0.3288 -0.6761
 3808TIP3    H132915   0.332   0.817   1.914  1.4984  0.4249 -1.0709
 3808TIP3    H232916   0.393   0.731   1.805  1.2690 -0.7437 -0.3000
 3809TIP3   OH232917   1.413   1.781  12.829  0.2185 -0.3158  0.7732
 3809TIP3    H132918   1.368   1.736  12.757  0.6816 -0.4220  0.5484
 3809TIP3    H232919   1.460   1.853  12.787  1.1408 -0.8598  0.8547
 3810TIP3   OH232920   2.985   3.434  38.509  0.1709 -0.2634 -0.6121
 3810TIP3    H132921   2.935   3.353  38.499 -1.0759  0.2212  1.1007
 3810TIP3    H232922   2.943   3.497  38.450  1.0786 -0.7983 -1.8703
 3811TIP3   OH232923   3.950   2.131   7.385 -0.5952  0.0699 -0.0882
 3811TIP3    H132924   3.980   2.172   7.466  2.3277  1.4514 -1.7382
 3811TIP3    H232925   3.906   2.201   7.337 -0.2906 -0.1187 -0.6599
 3812TIP3   OH232926   3.716   2.026  46.202 -0.2274  0.2248 -0.3531
 3812TIP3    H132927   3.742   1.938  46.176  1.3815  0.1851  1.2596
 3812TIP3    H232928   3.628   2.015  46.239 -0.8231 -0.3609 -1.8597
 3813TIP3   OH232929   0.634   2.481  34.519  0.6942  0.4673 -0.1388
 3813TIP3    H132930   0.596   2.528  34.593  0.3282  1.5620 -1.0027
 3813TIP3    H232931   0.561   2.463  34.461  0.8707 -0.9610  0.0318
 3814TIP3   OH232932   1.891   1.262   2.541  0.7522  0.1382  0.6994
 3814TIP3    H132933   1.799   1.284   2.557  0.6819  1.0552 -0.8281
 3814TIP3    H232934   1.897   1.169   2.562 -0.9453 -0.3671 -0.8244
 3815TIP3   OH232935   1.815   0.987  44.534 -0.0187  0.3081 -0.1568
 3815TIP3    H132936   1.835   1.077  44.558  1.6520  0.3585 -1.4875
 3815TIP3    H232937   1.725   0.973  44.563 -0.2627  2.3428  0.2060
 3816TIP3   OH232938   3.532   3.303  42.782 -0.1589 -0.2563 -0.3626
 3816TIP3    H132939   3.500   3.244  42.849 -0.9423 -0.6767 -1.0840
 3816TIP3    H232940   3.626   3.308  42.797 -0.4208  0.2872  1.2353
 3817TIP3   OH232941   3.972   0.393  12.471 -0.0781  0.1541  0.1813
 3817TIP3    H132942   3.998   0.302  12.489  1.7358  0.3114 -1.3024
 3817TIP3    H232943   4.043   0.446  12.508  0.3110  0.7800 -1.3781
 3818TIP3   OH232944   2.287   1.257   0.727 -0.4236 -0.4171  0.2052
 3818TIP3    H132945   2.311   1.190   0.662  0.3858 -0.6553  0.7402
 3818TIP3    H232946   2.270   1.335   0.675  0.7003 -0.4714 -0.2704
 3819TIP3   OH232947   2.930   3.935   6.340 -0.2211 -0.6367 -0.4232
 3819TIP3    H132948   2.933   3.850   6.384  0.6988 -0.0978  0.6047
 3819TIP3    H232949   2.920   3.913   6.247 -1.6768 -1.8103 -0.0180
 3820TIP3   OH232950   1.917   0.208  45.302 -1.0233 -0.4755 -0.0053
 3820TIP3    H132951   1.964   0.136  45.344  1.0853  0.0558 -1.2569
 3820TIP3    H232952   1.909   0.181  45.210 -1.8471  0.1121 -0.1117
 3821TIP3   OH232953   1.018   2.924   0.179 -0.1930 -0.1752 -0.0693
 3821TIP3    H132954   1.045   2.850   0.233 -0.7119  0.6227  1.3420
 3821TIP3    H232955   0.936   2.953   0.217 -0.1488  0.9589 -0.7748
 3822TIP3   OH232956   2.665   3.017  10.637  0.0399 -0.3276  0.3763
 3822TIP3    H132957   2.728   3.004  10.566  0.0766  0.0310  0.3417
 3822TIP3    H232958   2.583   2.981  10.603  0.7624 -3.1363  1.3511
 3823TIP3   OH232959   2.237   0.742   2.813 -0.1983  0.1760 -0.0328
 3823TIP3    H132960   2.310   0.773   2.866  0.5352 -1.6516  0.1164
 3823TIP3    H232961   2.261   0.763   2.723 -1.3053  3.0110  0.2470
 3824TIP3   OH232962   3.624   0.360  25.354 -0.1185 -0.6101  0.4779
 3824TIP3    H132963   3.697   0.335  25.298  0.3340  0.1798  0.7041
 3824TIP3    H232964   3.646   0.321  25.439  0.1360 -0.2250  0.5925
 3825TIP3   OH232965   2.127   1.535   0.862  0.1316  0.5780 -0.1498
 3825TIP3    H132966   2.136   1.463   0.925  0.9789 -0.5388 -1.4762
 3825TIP3    H232967   2.077   1.602   0.909  2.4599  0.7148  2.4615
 3826TIP3   OH232968   2.814   1.190  38.671 -0.0230 -0.1351  0.1513
 3826TIP3    H132969   2.772   1.160  38.590 -0.0033 -0.0306  0.1046
 3826TIP3    H232970   2.760   1.152  38.740  2.0081 -3.3313  0.1944
 3827TIP3   OH232971   0.625   1.590  16.240  0.2320 -0.2123  0.7080
 3827TIP3    H132972   0.562   1.649  16.282  0.4477  0.5518 -0.0124
 3827TIP3    H232973   0.708   1.637  16.243  0.2713 -0.1529 -0.4904
 3828TIP3   OH232974   2.640   3.617   0.099 -0.0179 -0.2403  0.0230
 3828TIP3    H132975   2.682   3.599   0.015 -0.0065 -0.5155  0.0841
 3828TIP3    H232976   2.546   3.623   0.078  0.0754  0.7082 -0.1732
 3829TIP3   OH232977   2.019   0.790  41.357 -0.1328  0.1874 -0.2656
 3829TIP3    H132978   2.104   0.746  41.353  0.3732  0.9482  1.1672
 3829TIP3    H232979   1.956   0.718  41.363  0.6070 -0.4124  1.1228
 3830TIP3   OH232980   2.824   2.879  39.125  0.0995 -0.0631  0.1205
 3830TIP3    H132981   2.763   2.903  39.055  1.3094 -1.3049 -1.4157
 3830TIP3    H232982   2.773   2.822  39.183 -0.4985 -0.1933 -0.5210
 3831TIP3   OH232983   1.462   2.295  47.566 -0.2441 -0.3481  0.2872
 3831TIP3    H132984   1.468   2.390  47.560  1.4608 -0.5126 -1.7866
 3831TIP3    H232985   1.440   2.278  47.658  0.4553  1.9895  0.9588
 3832TIP3   OH232986   3.442   0.409  10.664 -0.1231 -0.2819  0.4117
 3832TIP3    H132987   3.510   0.470  10.634 -1.6609  1.3862  0.0962
 3832TIP3    H232988   3.488   0.328  10.683  1.7371  0.3545 -1.1170
 3833TIP3   OH232989   0.454   1.546  14.495  0.0382  0.4058 -0.3748
 3833TIP3    H132990   0.529   1.538  14.554 -0.1957  0.4972 -0.0609
 3833TIP3    H232991   0.479   1.496  14.418  1.2978  2.1075 -1.1555
 3834TIP3   OH232992   2.283   2.768   9.224 -0.0161 -0.0349 -0.1985
 3834TIP3    H132993   2.249   2.780   9.135 -1.9071  0.0164  0.4738
 3834TIP3    H232994   2.377   2.785   9.217  0.0804 -1.0691 -2.3747
 3835TIP3   OH232995   0.821   0.636  38.522 -0.4254  0.0802  0.1584
 3835TIP3    H132996   0.878   0.709  38.500 -0.7615 -0.1340 -1.5731
 3835TIP3    H232997   0.841   0.569  38.455 -0.1463 -1.4119  1.6619
 3836TIP3   OH232998   3.444   3.242   2.831  0.4029  0.3070 -0.3084
 3836TIP3    H132999   3.405   3.223   2.916  0.1117 -0.8988 -0.6932
 3836TIP3    H233000   3.533   3.207   2.838  0.1444 -0.4572 -0.7321
 3837TIP3   OH233001   4.045   2.258   1.025 -0.1297  0.1822  0.3241
 3837TIP3    H133002   4.053   2.337   0.972  0.7038 -0.3646 -0.3977
 3837TIP3    H233003   4.031   2.290   1.114  0.2381  1.1373  0.0536
 3838TIP3   OH233004   2.742   3.544  10.741 -0.0965  0.7585  0.6747
 3838TIP3    H133005   2.664   3.496  10.767  1.7246 -2.8069  0.0572
 3838TIP3    H233006   2.741   3.543  10.646 -0.3818  2.7477  0.6140
 3839TIP3   OH233007   1.099   1.328  34.810 -0.4960  0.1587  0.4387
 3839TIP3    H133008   1.145   1.388  34.751 -1.4481  0.0260 -0.4663
 3839TIP3    H233009   1.154   1.250  34.812 -0.7208 -0.0408 -0.7100
 3840TIP3   OH233010   3.275   1.804   0.887 -0.3545 -0.2901  0.3023
 3840TIP3    H133011   3.185   1.831   0.904  0.0726  0.6739  1.1465
 3840TIP3    H233012   3.328   1.878   0.918  0.6439  0.1071 -2.1114
 3841TIP3   OH233013   1.428   3.371   8.947 -0.1179 -0.1586  0.0394
 3841TIP3    H133014   1.415   3.463   8.971  0.3021  0.1677 -0.9397
 3841TIP3    H233015   1.507   3.371   8.893  0.3476 -1.2150  0.6914
 3842TIP3   OH233016   0.841   3.727  13.729  0.0153  0.0095 -0.5841
 3842TIP3    H133017   0.795   3.663  13.784  0.6276 -0.6450 -0.8131
 3842TIP3    H233018   0.910   3.762  13.786  0.2130 -0.1578 -0.7205
 3843TIP3   OH233019   2.787   0.926  43.988  0.0672 -0.7116  0.3325
 3843TIP3    H133020   2.856   0.982  44.026  1.3298 -2.3229  0.5019
 3843TIP3    H233021   2.834   0.868  43.928 -1.4050 -0.7391 -0.8337
 3844TIP3   OH233022   3.146   2.156   2.300 -0.4818 -0.3860  0.0679
 3844TIP3    H133023   3.079   2.162   2.233  0.3946  1.9298 -0.7036
 3844TIP3    H233024   3.223   2.123   2.253  0.0384  0.9223 -0.0455
 3845TIP3   OH233025   2.613   2.283   2.519  0.7108 -0.1971 -0.0783
 3845TIP3    H133026   2.612   2.301   2.425 -0.1330 -3.4704 -0.7954
 3845TIP3    H233027   2.521   2.277   2.544  0.9110 -1.8217  0.3665
 3846TIP3   OH233028   1.072   0.209  14.971 -0.0705 -0.7226 -0.5141
 3846TIP3    H133029   0.985   0.168  14.965  1.2186 -3.5191 -2.1789
 3846TIP3    H233030   1.091   0.211  15.065 -2.7124  2.0674  0.1420
 3847TIP3   OH233031   1.093   3.345  14.924  0.1347 -0.3698  0.6532
 3847TIP3    H133032   1.005   3.377  14.944 -0.3358 -1.1731 -0.0526
 3847TIP3    H233033   1.138   3.421  14.887 -0.3862 -0.0508  0.6631
 3848TIP3   OH233034   2.196   3.898   0.920 -0.0035  0.2087  0.1644
 3848TIP3    H133035   2.104   3.913   0.898  0.7102  1.2226 -2.6661
 3848TIP3    H233036   2.232   3.986   0.934  0.4640 -0.2083  1.7113
 3849TIP3   OH233037   3.952   3.857  37.411  0.0488 -0.3260  0.0349
 3849TIP3    H133038   4.038   3.816  37.405  0.6387  0.8225  0.4869
 3849TIP3    H233039   3.945   3.886  37.502 -0.8928 -0.5537  0.0458
 3850TIP3   OH233040   0.633   4.086   3.249  0.2624  0.4866  0.4670
 3850TIP3    H133041   0.601   4.096   3.338 -0.4999  2.8944  0.0092
 3850TIP3    H233042   0.665   3.996   3.244  2.8113  0.9979  3.9568
 3851TIP3   OH233043   2.598   4.093  26.056  0.2487  0.3346  0.4282
 3851TIP3    H133044   2.530   4.026  26.060 -0.4869  1.0439  0.1275
 3851TIP3    H233045   2.568   4.161  26.116  1.2510  0.1650  1.1348
 3852TIP3   OH233046   1.069   0.679   1.327  0.1250  0.2027  0.0885
 3852TIP3    H133047   1.086   0.693   1.420 -1.1531  0.0882  0.3470
 3852TIP3    H233048   1.025   0.595   1.322 -1.3898  0.9832 -0.4167
 3853TIP3   OH233049   3.395   0.516   5.654  0.3586 -0.1434 -0.3565
 3853TIP3    H133050   3.462   0.578   5.627 -1.8264  1.7437 -1.7774
 3853TIP3    H233051   3.391   0.452   5.583  0.7526 -0.3413 -0.1993
 3854TIP3   OH233052   0.612   0.300  31.277 -0.1699  0.2768  0.2274
 3854TIP3    H133053   0.559   0.220  31.271  0.1893  0.0522 -0.0024
 3854TIP3    H233054   0.625   0.313  31.371 -0.1255 -0.0077  0.2623
 3855TIP3   OH233055   0.245   2.782  13.158  0.0181  0.1421  0.0144
 3855TIP3    H133056   0.218   2.694  13.184 -2.4129  0.6126 -0.6477
 3855TIP3    H233057   0.332   2.771  13.120 -0.1449 -1.9305  0.1292
 3856TIP3   OH233058   1.425   2.089   5.295  0.5167 -0.2943 -0.2684
 3856TIP3    H133059   1.435   2.083   5.200  0.2267 -0.3075 -0.2994
 3856TIP3    H233060   1.340   2.049   5.313  0.9399 -1.0408  0.0898
 3857TIP3   OH233061   3.505   0.689   3.391  0.1096 -0.3725  0.1901
 3857TIP3    H133062   3.492   0.781   3.369 -1.5143 -0.2853  1.3661
 3857TIP3    H233063   3.564   0.689   3.466  2.1538 -0.4648 -1.3322
 3858TIP3   OH233064   1.313   2.057  39.859  0.7361  0.2243 -0.1495
 3858TIP3    H133065   1.311   1.981  39.917 -0.8703  0.6305  0.4046
 3858TIP3    H233066   1.401   2.092  39.867  1.0067 -0.6412  0.8566
 3859TIP3   OH233067   0.605   0.083  39.697  0.4429  0.3693  0.0698
 3859TIP3    H133068   0.616  -0.000  39.651 -1.3087 -0.2778  0.7617
 3859TIP3    H233069   0.695   0.112  39.716  1.2287  0.1916 -2.8276
 3860TIP3   OH233070   1.629   2.155  42.154 -0.2325  0.1868 -0.4527
 3860TIP3    H133071   1.714   2.114  42.171 -0.4291  0.1495  0.4621
 3860TIP3    H233072   1.567   2.107  42.209 -0.6395  1.0151 -0.1714
 3861TIP3   OH233073   1.727   1.009   3.192 -0.2305 -0.5420 -0.4001
 3861TIP3    H133074   1.713   1.052   3.277  2.6643 -1.6243  0.7303
 3861TIP3    H233075   1.652   0.950   3.183 -2.1570  1.6564 -0.0956
 3862TIP3   OH233076   0.371   2.959  44.421  0.7680  0.2150  0.3239
 3862TIP3    H133077   0.383   2.965  44.327 -0.1137  0.9995  0.2413
 3862TIP3    H233078   0.355   2.866  44.437 -0.6217  0.2731 -0.5278
 3863TIP3   OH233079   2.280   1.598  39.904 -0.3842  0.0042  0.0189
 3863TIP3    H133080   2.246   1.645  39.828  1.4530  0.4574 -0.5755
 3863TIP3    H233081   2.308   1.667  39.964  1.2832 -0.2987 -0.3688
 3864TIP3   OH233082   3.623   2.085   4.422  0.2567 -0.3815 -0.2669
 3864TIP3    H133083   3.697   2.037   4.384  0.0239 -1.0753  0.1429
 3864TIP3    H233084   3.546   2.039   4.389  0.0314 -0.2619  0.0965
 3865TIP3   OH233085   0.977   2.789  31.555  0.1946 -0.5263 -0.0984
 3865TIP3    H133086   1.043   2.749  31.612  0.5749 -1.2823 -1.0576
 3865TIP3    H233087   0.929   2.715  31.519 -0.2709 -0.0318 -0.4993
 3866TIP3   OH233088   0.769   3.601  13.506  0.1611  0.1380  0.0508
 3866TIP3    H133089   0.819   3.640  13.578 -0.1133 -0.2686  0.4655
 3866TIP3    H233090   0.680   3.631  13.520  0.0258 -0.2978  0.1319
 3867TIP3   OH233091   1.841   2.985  31.671  0.1106 -0.1309  0.3465
 3867TIP3    H133092   1.821   2.905  31.622 -4.1108  1.2276 -0.4898
 3867TIP3    H233093   1.894   3.037  31.611  1.6833 -1.6098  0.3641
 3868TIP3   OH233094   0.954   0.275  39.511  0.9799  0.6120 -0.5626
 3868TIP3    H133095   1.025   0.331  39.482 -0.0422  1.1675 -2.1269
 3868TIP3    H233096   0.906   0.327  39.576  0.8507  1.0120 -0.9798
 3869TIP3   OH233097   0.484   2.392  43.712  0.2939  0.3406  0.0311
 3869TIP3    H133098   0.496   2.313  43.659  0.9139  0.0643  0.5710
 3869TIP3    H233099   0.416   2.368  43.775  0.5014  0.2290  0.2116
 3870TIP3   OH233100   2.513   1.815  14.628  0.7250  0.2939  0.2376
 3870TIP3    H133101   2.596   1.785  14.590 -0.3758 -1.7593 -0.6590
 3870TIP3    H233102   2.517   1.785  14.719  1.1877  0.7327  0.3717
 3871TIP3   OH233103   1.161   1.174  35.923 -0.0773 -0.0130  0.1015
 3871TIP3    H133104   1.136   1.109  35.989 -1.0141 -1.0232 -1.1888
 3871TIP3    H233105   1.106   1.153  35.847  0.1712  1.8049 -0.6281
 3872TIP3   OH233106   1.245   3.316  10.566  0.0855 -0.3987  0.2970
 3872TIP3    H133107   1.178   3.352  10.508  0.2651  0.0119  0.3435
 3872TIP3    H233108   1.297   3.260  10.509 -0.1517 -0.5328  0.2094
 3873TIP3   OH233109   0.098   1.800  38.855 -0.5172 -0.5556 -0.4686
 3873TIP3    H133110   0.070   1.892  38.856  1.5435  0.1592 -1.3302
 3873TIP3    H233111   0.157   1.792  38.930  0.2988 -0.7891 -1.1108
 3874TIP3   OH233112   1.932   0.657   7.949  0.1566 -0.4930  0.5290
 3874TIP3    H133113   1.861   0.629   7.891 -1.0683 -1.8463  2.5675
 3874TIP3    H233114   1.891   0.721   8.008  1.6833  1.8631 -0.7663
 3875TIP3   OH233115   3.517   4.051   9.401 -0.2340 -0.2257  0.6359
 3875TIP3    H133116   3.469   4.060   9.319  0.2536  2.6847  0.5822
 3875TIP3    H233117   3.471   3.981   9.449 -2.5750  0.3266 -0.6791
 3876TIP3   OH233118   0.855   2.569  10.540 -0.2436 -0.8153  0.1326
 3876TIP3    H133119   0.925   2.527  10.590  0.4398  0.3775  0.2153
 3876TIP3    H233120   0.832   2.505  10.472  1.2466 -1.0535 -0.1802
 3877TIP3   OH233121   1.278   0.994   3.606 -0.2674  0.6255  0.4192
 3877TIP3    H133122   1.207   1.054   3.581 -0.5604  0.2702  0.3960
 3877TIP3    H233123   1.333   0.990   3.528 -1.7295 -1.2841 -0.5859
 3878TIP3   OH233124   1.570   3.059  41.271 -0.0573 -0.0653 -0.1217
 3878TIP3    H133125   1.547   3.149  41.251 -0.2250 -0.2062 -0.5639
 3878TIP3    H233126   1.487   3.011  41.266 -0.0521 -0.1630  0.5894
 3879TIP3   OH233127   2.483   1.349  44.147  0.0556 -0.2679 -0.3397
 3879TIP3    H133128   2.457   1.258  44.159  0.4617 -0.2338  0.9375
 3879TIP3    H233129   2.400   1.396  44.138 -0.1579 -0.7345 -0.9467
 3880TIP3   OH233130   1.264   2.288  43.007 -0.1750  0.0978 -0.3478
 3880TIP3    H133131   1.322   2.360  43.033 -0.6022  1.2385 -2.3491
 3880TIP3    H233132   1.323   2.221  42.972  0.0713  0.5830 -0.8817
 3881TIP3   OH233133   2.384   0.358  27.501  0.3716  0.0138  0.5948
 3881TIP3    H133134   2.386   0.266  27.476 -0.3661  0.1591 -0.0529
 3881TIP3    H233135   2.447   0.366  27.573  1.1070 -0.8113  0.0556
 3882TIP3   OH233136   0.715   2.461  14.943 -0.2832  0.0569  0.4768
 3882TIP3    H133137   0.638   2.410  14.968  0.1326 -0.1833  1.3123
 3882TIP3    H233138   0.723   2.449  14.849  0.8249 -2.8588  0.8621
 3883TIP3   OH233139   3.117   2.300  32.695  0.0397  0.2564 -0.3414
 3883TIP3    H133140   3.121   2.313  32.601  0.6716  0.9783 -0.2198
 3883TIP3    H233141   3.039   2.348  32.723  0.8150  1.5087 -0.2712
 3884TIP3   OH233142   3.034   0.683  32.778 -0.7491  0.1609  0.0132
 3884TIP3    H133143   3.030   0.627  32.856  1.1892 -1.6862 -1.1212
 3884TIP3    H233144   3.099   0.750  32.800 -0.4348 -0.1677  0.0829
 3885TIP3   OH233145   1.057   1.050   6.977 -0.0854 -0.1153 -0.2662
 3885TIP3    H133146   1.005   1.129   6.993  2.0191  1.0291  1.6943
 3885TIP3    H233147   1.083   1.056   6.885 -2.3888 -0.1538 -0.9730
 3886TIP3   OH233148   2.023   1.347  37.298  0.6872 -0.1528 -0.3372
 3886TIP3    H133149   1.962   1.273  37.303  2.2320 -1.4046  1.3807
 3886TIP3    H233150   2.072   1.331  37.217  1.6607 -1.6301  0.4868
 3887TIP3   OH233151   0.697   3.723  38.344  0.5614  0.1022 -0.0860
 3887TIP3    H133152   0.689   3.812  38.310 -0.2845  0.0187 -0.1247
 3887TIP3    H233153   0.641   3.721  38.421  2.3858  0.2605  1.3061
 3888TIP3   OH233154   2.287   0.430   4.708 -0.3061 -0.1757  0.0931
 3888TIP3    H133155   2.295   0.339   4.736 -1.6598 -0.2235  0.3718
 3888TIP3    H233156   2.371   0.450   4.666  0.8669 -0.8662  1.9940
 3889TIP3   OH233157   3.534   1.939  14.514  0.2468  0.5746 -0.0843
 3889TIP3    H133158   3.491   1.854  14.509  0.5686  0.4437 -0.6676
 3889TIP3    H233159   3.477   1.997  14.463 -0.9321  1.1312  1.7657
 3890TIP3   OH233160   2.558   4.035  30.820 -0.3053  0.1481 -0.5119
 3890TIP3    H133161   2.613   4.027  30.742 -0.3634  2.3230 -0.8221
 3890TIP3    H233162   2.472   4.059  30.786 -0.8792 -0.9202  0.1275
 3891TIP3   OH233163   0.099   0.608  33.352  0.4259 -0.1968  0.0151
 3891TIP3    H133164   0.023   0.581  33.301  0.0727  0.0981  0.3739
 3891TIP3    H233165   0.153   0.529  33.359 -1.3203 -1.3149  2.3749
 3892TIP3   OH233166   3.017   4.012  47.568 -0.7421 -0.0615  0.4401
 3892TIP3    H133167   3.050   4.101  47.584 -2.0361  0.6871 -0.8392
 3892TIP3    H233168   2.981   3.985  47.653 -1.6039  1.2060  0.5035
 3893TIP3   OH233169   2.256   3.514  32.159 -0.2411 -0.1379  0.1704
 3893TIP3    H133170   2.168   3.532  32.193 -0.0246  1.6218 -0.0653
 3893TIP3    H233171   2.292   3.601  32.140  0.4644 -0.9025 -2.4730
 3894TIP3   OH233172   1.485   1.748  19.896 -0.2037  0.5192  0.6337
 3894TIP3    H133173   1.405   1.741  19.947  0.0553  1.9523  1.2829
 3894TIP3    H233174   1.552   1.776  19.958  0.7603 -0.3944  0.0474
 3895TIP3   OH233175   1.476   2.925   5.304  0.2394 -0.0112 -0.3769
 3895TIP3    H133176   1.562   2.934   5.346 -0.3319 -0.2101  0.8857
 3895TIP3    H233177   1.440   3.013   5.303 -1.1240 -0.3834  2.7022
 3896TIP3   OH233178   0.889   1.388  14.399 -0.0631 -0.5191 -0.4676
 3896TIP3    H133179   0.972   1.411  14.440 -0.1305  0.5279 -0.8803
 3896TIP3    H233180   0.823   1.400  14.468  0.2877 -3.2128  0.4439
 3897TIP3   OH233181   2.089   0.517   7.328 -1.1950  0.2536  0.3297
 3897TIP3    H133182   2.101   0.588   7.265 -0.7601  0.2501  0.4087
 3897TIP3    H233183   1.994   0.512   7.340 -1.3127 -0.0186 -0.6346
 3898TIP3   OH233184   2.787   0.330   4.664 -1.0645 -0.1381 -0.6524
 3898TIP3    H133185   2.814   0.396   4.601  0.1065  0.7211  0.6898
 3898TIP3    H233186   2.852   0.336   4.735 -2.6764 -0.6128  0.9429
 3899TIP3   OH233187   2.199   0.673   6.550  0.4339 -0.0487 -0.7572
 3899TIP3    H133188   2.109   0.668   6.517  0.4577 -0.0507 -0.8212
 3899TIP3    H233189   2.225   0.764   6.534  0.2107  0.1289 -0.1396
 3900TIP3   OH233190   2.092   3.766   6.666 -0.1337 -0.5278 -0.1961
 3900TIP3    H133191   2.133   3.680   6.651  0.5305 -0.1129 -0.8000
 3900TIP3    H233192   2.156   3.829   6.634 -0.9007  0.1767 -0.3768
 3901TIP3   OH233193   0.340   3.151  31.302  0.0249  0.2190 -0.3971
 3901TIP3    H133194   0.247   3.163  31.285  0.1893  0.1314 -1.3906
 3901TIP3    H233195   0.382   3.159  31.217  0.8704 -0.3160 -0.0498
 3902TIP3   OH233196   2.074   1.463   4.151 -0.5782 -0.3377 -0.0281
 3902TIP3    H133197   2.166   1.457   4.176 -0.5281 -1.4208 -0.4256
 3902TIP3    H233198   2.064   1.552   4.117 -0.0457  0.3026  1.4127
 3903TIP3   OH233199   0.330   0.577  12.412 -0.0532 -0.5984  0.0761
 3903TIP3    H133200   0.294   0.652  12.459 -1.6296 -0.7466 -0.8291
 3903TIP3    H233201   0.300   0.588  12.322  1.7243 -1.0635 -0.6042
 3904TIP3   OH233202   1.172   0.407  14.421  0.2080  0.0909 -0.2027
 3904TIP3    H133203   1.175   0.393  14.516 -1.4643 -0.9250 -0.2504
 3904TIP3    H233204   1.222   0.335  14.384 -1.2264 -0.9718 -0.1459
 3905TIP3   OH233205   2.732   3.396  13.135  0.0914  0.0549  0.2123
 3905TIP3    H133206   2.770   3.407  13.048 -0.7972 -1.6043 -0.4248
 3905TIP3    H233207   2.730   3.301  13.149 -3.4064 -0.0017  0.3238
 3906TIP3   OH233208   1.644   0.097  40.472  0.1550  0.1778 -0.1586
 3906TIP3    H133209   1.575   0.037  40.501 -0.5566  1.4491  0.8926
 3906TIP3    H233210   1.597   0.177  40.448  1.2951  1.3513  1.3236
 3907TIP3   OH233211   2.510   2.265  42.125  0.0198  0.1425 -0.1384
 3907TIP3    H133212   2.423   2.299  42.146  0.4276  1.1125  0.0369
 3907TIP3    H233213   2.543   2.323  42.057  1.8007  1.8794  2.0098
 3908TIP3   OH233214   3.948   1.552  16.627  0.2411  0.4991  0.0684
 3908TIP3    H133215   4.034   1.521  16.655  0.1277  1.2963  1.4073
 3908TIP3    H233216   3.925   1.620  16.691 -0.3912  1.9116 -1.5927
 3909TIP3   OH233217   3.860   0.090  40.946  0.0250  0.4000 -0.2909
 3909TIP3    H133218   3.853   0.000  40.914 -1.8343  0.8001 -1.1782
 3909TIP3    H233219   3.951   0.114  40.934  0.3494 -1.0587 -0.8941
 3910TIP3   OH233220   2.677   0.630  10.371  0.5477  0.0612  0.6518
 3910TIP3    H133221   2.596   0.676  10.348 -0.6547 -2.5007 -0.8028
 3910TIP3    H233222   2.746   0.696  10.365 -0.9723  1.5671 -1.8310
 3911TIP3   OH233223   2.225   3.751  39.041 -0.0584 -0.1631  0.4343
 3911TIP3    H133224   2.133   3.731  39.023  0.3118 -0.6194 -1.1540
 3911TIP3    H233225   2.238   3.725  39.132 -0.9691 -2.2431  0.0405
 3912TIP3   OH233226   1.077   1.874   5.681 -0.1684 -0.2740  0.1824
 3912TIP3    H133227   1.011   1.914   5.624  0.5985 -1.3080 -1.5013
 3912TIP3    H233228   1.135   1.947   5.705  0.5064 -0.0748 -1.8434
 3913TIP3   OH233229   1.849   2.064  12.277 -0.4816 -0.6470 -0.5076
 3913TIP3    H133230   1.932   2.109  12.291 -0.6967 -0.8037  1.4874
 3913TIP3    H233231   1.793   2.130  12.235  0.2064 -0.1047 -0.5940
 3914TIP3   OH233232   0.078   2.174  19.106  0.0920  0.1135 -0.6118
 3914TIP3    H133233   0.102   2.259  19.070  0.2021  0.1627 -0.4175
 3914TIP3    H233234   0.073   2.187  19.200 -1.3628  0.2730 -0.6904
 3915TIP3   OH233235   3.184   0.293  11.539 -0.6074  0.2274  0.0582
 3915TIP3    H133236   3.133   0.255  11.467  1.8561 -1.2109 -1.0670
 3915TIP3    H233237   3.166   0.387  11.534 -2.8991 -0.1805 -0.3920
 3916TIP3   OH233238   1.199   0.821   5.005 -0.0783 -0.6708  0.0049
 3916TIP3    H133239   1.245   0.747   5.045  0.6143 -0.3482 -0.1886
 3916TIP3    H233240   1.106   0.800   5.016  0.0646 -0.5255  1.9219
 3917TIP3   OH233241   2.147   0.750   0.418  0.1524 -0.2094 -0.1909
 3917TIP3    H133242   2.072   0.690   0.420 -0.1683  0.2058  0.7483
 3917TIP3    H233243   2.214   0.706   0.469  0.6981 -0.7534 -1.3504
 3918TIP3   OH233244   1.507   1.462  13.225  0.0091  0.0993  0.4086
 3918TIP3    H133245   1.417   1.476  13.253 -0.1247 -0.9034  0.5379
 3918TIP3    H233246   1.502   1.459  13.129  0.3745  2.9275  0.2394
 3919TIP3   OH233247   0.284   0.428  13.725 -0.3128 -0.0677  0.3022
 3919TIP3    H133248   0.371   0.458  13.752  0.0321 -0.3579 -0.4399
 3919TIP3    H233249   0.300   0.376  13.647 -1.0787 -0.8013  0.6210
 3920TIP3   OH233250   1.548   1.476  37.308  0.1122 -0.2660 -0.0222
 3920TIP3    H133251   1.608   1.505  37.376  1.7058  0.4472 -1.6536
 3920TIP3    H233252   1.600   1.417  37.253 -0.4185  0.9058 -1.8731
 3921TIP3   OH233253   2.076   3.209   7.567 -0.0767  0.3677  0.2543
 3921TIP3    H133254   2.013   3.266   7.610 -0.0567  0.8850 -0.3861
 3921TIP3    H233255   2.125   3.169   7.638 -1.7639 -0.8030  0.8039
 3922TIP3   OH233256   3.393   4.038  41.943 -0.1120  0.0910  0.0914
 3922TIP3    H133257   3.461   4.001  42.000 -1.5781 -1.9336  0.6202
 3922TIP3    H233258   3.410   4.000  41.857 -0.7466 -0.6919  0.3015
 3923TIP3   OH233259   2.270   3.804  33.220 -0.2382  0.4689 -0.0165
 3923TIP3    H133260   2.364   3.804  33.207 -0.2849  1.7471 -0.5337
 3923TIP3    H233261   2.233   3.798  33.131 -0.6333  0.9379  0.1109
 3924TIP3   OH233262   1.972   2.489  43.385  1.0871  0.4387 -0.5029
 3924TIP3    H133263   1.961   2.582  43.403 -0.6195 -0.0665  1.3813
 3924TIP3    H233264   2.060   2.469  43.416  1.1722  1.2637 -0.1898
 3925TIP3   OH233265   3.780   3.566   4.634 -0.4125  0.2382  0.7364
 3925TIP3    H133266   3.789   3.622   4.557 -0.5253  0.5922  0.9780
 3925TIP3    H233267   3.686   3.555   4.645 -0.3849 -0.5815  0.2786
 3926TIP3   OH233268   3.141   2.362   5.020 -0.1110  0.5565 -0.3439
 3926TIP3    H133269   3.106   2.353   4.932 -0.4294 -0.4654 -0.1337
 3926TIP3    H233270   3.222   2.412   5.010  0.4171 -0.4718 -1.3559
 3927TIP3   OH233271   3.782   3.868  47.007 -0.1500 -0.4855  0.0705
 3927TIP3    H133272   3.765   3.891  46.915 -1.3411 -0.2825  0.3292
 3927TIP3    H233273   3.859   3.812  47.003 -0.9268 -1.5450 -1.2053
 3928TIP3   OH233274   3.225   0.601   3.360  0.2650  0.1720 -0.0725
 3928TIP3    H133275   3.217   0.680   3.306  1.5088  0.1287 -0.3511
 3928TIP3    H233276   3.319   0.596   3.380  0.0720 -0.7869  0.6275
 3929TIP3   OH233277   2.518   3.753  10.870 -0.3465 -0.1314  0.1035
 3929TIP3    H133278   2.573   3.686  10.828 -1.0664 -0.1398 -0.8808
 3929TIP3    H233279   2.576   3.797  10.932  0.3714 -1.0905  0.1325
 3930TIP3   OH233280   3.748   1.654   5.499  0.5566  0.0388 -0.2168
 3930TIP3    H133281   3.819   1.624   5.442 -0.2857 -0.8386 -0.8302
 3930TIP3    H233282   3.782   1.734   5.539  1.6082  0.0389 -1.0616
 3931TIP3   OH233283   1.909   0.683  11.796 -0.1120 -0.0335  0.1651
 3931TIP3    H133284   1.838   0.630  11.832 -0.8257  0.5914 -0.3013
 3931TIP3    H233285   1.982   0.622  11.788 -0.4873 -0.6075  0.9654
 3932TIP3   OH233286   1.146   2.587  44.255  0.0011  0.1687  0.5501
 3932TIP3    H133287   1.063   2.633  44.253 -0.6910 -1.0468 -1.3622
 3932TIP3    H233288   1.131   2.507  44.204  1.9047 -0.8441  1.4449
 3933TIP3   OH233289   3.686   2.906  42.736 -0.0017  0.0183  0.6117
 3933TIP3    H133290   3.716   2.879  42.823 -0.2322 -0.0388  0.6732
 3933TIP3    H233291   3.618   2.970  42.753 -0.7843 -0.7573  0.5015
 3934TIP3   OH233292   0.700   0.015  14.061  0.6381 -0.5756 -0.0726
 3934TIP3    H133293   0.730  -0.076  14.060 -0.6529 -1.0256 -0.9260
 3934TIP3    H233294   0.606   0.009  14.081  0.2955  0.4533 -1.2310
 3935TIP3   OH233295   0.870   0.717  46.631  0.2631  0.6255  0.3019
 3935TIP3    H133296   0.849   0.670  46.712  1.8637 -0.9423 -0.1285
 3935TIP3    H233297   0.848   0.808  46.650 -0.5566  0.1114  2.0619
 3936TIP3   OH233298   0.524   2.542  10.698 -0.2090  0.3831  0.4414
 3936TIP3    H133299   0.568   2.502  10.622  0.3115  0.2224  0.8223
 3936TIP3    H233300   0.442   2.576  10.662  0.7417  1.7368 -0.5352
 3937TIP3   OH233301   1.598   3.762   9.849  0.3108  0.0607 -0.1087
 3937TIP3    H133302   1.644   3.679   9.860 -1.9073 -1.2326  0.0379
 3937TIP3    H233303   1.543   3.769   9.927  1.6254  2.5339  0.6961
 3938TIP3   OH233304   0.384   3.876   0.835  0.6184 -0.0600 -0.2205
 3938TIP3    H133305   0.377   3.859   0.929 -0.4124  1.5239  0.0369
 3938TIP3    H233306   0.475   3.855   0.814  0.6703 -1.1683  0.9588
 3939TIP3   OH233307   3.799   0.600   4.868  0.3192 -0.1000  0.6872
 3939TIP3    H133308   3.795   0.639   4.955 -0.8885 -0.3471  0.7547
 3939TIP3    H233309   3.795   0.675   4.808  1.5189  0.0961  0.8219
 3940TIP3   OH233310   2.499   2.106  22.165  0.3072  0.0679 -0.3527
 3940TIP3    H133311   2.451   2.138  22.241  1.3438 -0.8935  0.7426
 3940TIP3    H233312   2.486   2.174  22.098 -1.8983  0.1920  0.1332
 3941TIP3   OH233313   1.450   3.345   4.136 -0.8549  0.0128 -0.0874
 3941TIP3    H133314   1.378   3.403   4.161  0.1391  1.1567  0.2599
 3941TIP3    H233315   1.529   3.395   4.159  0.0475 -1.6355  0.5571
 3942TIP3   OH233316   2.148   1.983   3.412  0.2476 -0.4061  0.1561
 3942TIP3    H133317   2.204   1.971   3.489 -2.1894 -0.6082  2.0032
 3942TIP3    H233318   2.063   2.008   3.448 -0.9562 -0.3853 -2.5096
 3943TIP3   OH233319   2.860   3.846   4.957  0.2488 -0.0686  0.2677
 3943TIP3    H133320   2.805   3.780   4.998 -0.0995 -0.9322 -1.4611
 3943TIP3    H233321   2.803   3.921   4.943 -0.3663 -0.7164 -0.9061
 3944TIP3   OH233322   3.338   2.594  10.066  0.6714 -0.0590  0.2405
 3944TIP3    H133323   3.401   2.655  10.104 -0.4301  0.3524  1.4623
 3944TIP3    H233324   3.256   2.644  10.061 -0.3041 -1.4566  1.4508
 3945TIP3   OH233325   0.616   3.227   9.269 -0.0937 -0.2839 -0.1818
 3945TIP3    H133326   0.708   3.250   9.287 -0.6943  1.4996  0.8624
 3945TIP3    H233327   0.619   3.181   9.185  1.7508 -0.1722 -0.2256
 3946TIP3   OH233328   3.203   1.082  32.981 -0.1730  0.0717  0.1343
 3946TIP3    H133329   3.165   1.066  32.894  0.3823  0.4288 -0.1723
 3946TIP3    H233330   3.290   1.117  32.964  0.4531 -1.0817  0.8393
 3947TIP3   OH233331   3.983   3.549  12.545 -0.1278 -0.2272 -0.7320
 3947TIP3    H133332   4.021   3.557  12.458 -0.3498  0.9748 -0.7404
 3947TIP3    H233333   3.914   3.615  12.547  1.0321  1.0184  0.9351
 3948TIP3   OH233334   3.276   3.970  30.521  0.3282  0.1559 -0.3393
 3948TIP3    H133335   3.194   4.019  30.528  1.2654  1.8198 -0.5923
 3948TIP3    H233336   3.343   4.037  30.514  2.1085 -1.0172  3.3225
 3949TIP3   OH233337   3.530   3.853  12.521 -0.2645 -0.0512 -0.9541
 3949TIP3    H133338   3.583   3.920  12.564  0.1602 -1.2116  0.3843
 3949TIP3    H233339   3.439   3.880  12.537 -0.1117  0.8554 -1.5187
 3950TIP3   OH233340   4.013   0.901  42.562 -0.2133 -0.0973 -0.3853
 3950TIP3    H133341   3.982   0.918  42.473 -1.4726 -0.8554 -0.1093
 3950TIP3    H233342   4.098   0.946  42.567 -0.6913  0.9962 -1.5660
 3951TIP3   OH233343   3.612   0.004   7.897 -0.2379  0.0203 -0.2816
 3951TIP3    H133344   3.685  -0.016   7.956 -0.6176  1.0850  0.5770
 3951TIP3    H233345   3.595   0.097   7.911 -2.1581 -0.3421 -0.0372
 3952TIP3   OH233346   0.875   1.153  12.212 -0.2027 -0.5589  0.1016
 3952TIP3    H133347   0.876   1.103  12.131  0.1716 -0.0088 -0.2401
 3952TIP3    H233348   0.824   1.232  12.192 -0.1372 -0.4346  0.4090
 3953TIP3   OH233349   1.441   1.875   9.929  0.1661 -0.1996  0.0684
 3953TIP3    H133350   1.347   1.858   9.935  0.2767 -2.1130 -2.1239
 3953TIP3    H233351   1.457   1.884   9.836  2.2998 -0.8126  0.3388
 3954TIP3   OH233352   1.623   3.401  11.807  0.1628 -0.1998 -0.4791
 3954TIP3    H133353   1.697   3.461  11.795  0.0317  0.0958  0.1662
 3954TIP3    H233354   1.659   3.314  11.788  0.4252  0.0446 -1.1362
 3955TIP3   OH233355   1.069   0.233  32.910  0.0720 -0.0234  0.1698
 3955TIP3    H133356   1.054   0.248  33.004  2.1545 -1.0338  0.7284
 3955TIP3    H233357   1.077   0.321  32.873  1.5141  0.4016  1.3948
 3956TIP3   OH233358   0.108   0.877  34.666  0.2144  0.1164  0.2051
 3956TIP3    H133359   0.187   0.863  34.614 -0.0387 -1.0890  0.1117
 3956TIP3    H233360   0.081   0.967  34.645  0.2024 -0.2747 -1.6493
 3957TIP3   OH233361   1.833   2.159   8.401 -0.2854  0.1280 -0.0396
 3957TIP3    H133362   1.812   2.096   8.470  0.9332  1.1599  1.3371
 3957TIP3    H233363   1.760   2.221   8.402 -0.4167 -0.0279  0.1082
 3958TIP3   OH233364   3.238   2.325  38.199 -0.4099  0.1951 -0.1380
 3958TIP3    H133365   3.293   2.289  38.269 -0.6780 -0.7032 -0.3754
 3958TIP3    H233366   3.296   2.331  38.123 -0.7360 -1.1802 -0.5159
 3959TIP3   OH233367   0.816   0.050   1.657 -0.8407  0.2883  0.5917
 3959TIP3    H133368   0.855   0.073   1.741  1.1312 -0.7869  0.0371
 3959TIP3    H233369   0.841   0.121   1.598  2.4294 -1.4333 -0.3180
 3960TIP3   OH233370   0.900   0.035  42.286 -0.4142  0.2887 -0.4356
 3960TIP3    H133371   0.946   0.028  42.370 -3.5155  1.9881  1.5894
 3960TIP3    H233372   0.826  -0.025  42.295 -1.1423  0.9688 -1.7150
 3961TIP3   OH233373   1.111   2.221  34.410 -0.1672  0.5992  0.1874
 3961TIP3    H133374   1.028   2.181  34.436 -0.0674  1.1135  1.3484
 3961TIP3    H233375   1.121   2.296  34.469  1.7875 -0.2439  1.0063
 3962TIP3   OH233376   2.478   3.220  32.813  0.3460 -0.3559 -0.3554
 3962TIP3    H133377   2.542   3.289  32.797 -1.0999  0.8458 -1.2588
 3962TIP3    H233378   2.411   3.234  32.746 -0.4820 -2.0405  0.0708
 3963TIP3   OH233379   2.916   0.479   4.076  0.0814  0.2494 -0.0426
 3963TIP3    H133380   2.990   0.520   4.121  0.2346  0.0387 -0.0992
 3963TIP3    H233381   2.956   0.435   4.000 -0.0300 -0.3256  0.2259
 3964TIP3   OH233382   0.991   2.373  18.532  0.0385 -0.3801  0.1780
 3964TIP3    H133383   1.061   2.338  18.588  1.5794  1.0225 -0.7866
 3964TIP3    H233384   1.029   2.374  18.444 -0.7164  1.5911 -0.1646
 3965TIP3   OH233385   2.913   1.307  19.913 -1.0884 -0.4122  0.2564
 3965TIP3    H133386   2.824   1.291  19.944 -0.4477 -4.3138  0.5222
 3965TIP3    H233387   2.968   1.286  19.988  0.1664 -1.3997 -0.9190
 3966TIP3   OH233388   1.675   0.363   4.172  0.0927 -0.1921  0.0122
 3966TIP3    H133389   1.612   0.292   4.182  0.6488 -0.5167  1.6613
 3966TIP3    H233390   1.671   0.410   4.256  1.9373 -0.1672  0.1243
 3967TIP3   OH233391   0.724   2.400  18.455 -0.6469  0.2044 -0.1317
 3967TIP3    H133392   0.713   2.477  18.399  1.8859 -0.6022 -1.9746
 3967TIP3    H233393   0.808   2.414  18.498 -0.7877 -0.9283  0.5530
 3968TIP3   OH233394   1.737   2.463   5.393  0.1738 -0.1435  0.0695
 3968TIP3    H133395   1.671   2.441   5.328  0.1773  0.5764 -0.1848
 3968TIP3    H233396   1.766   2.379   5.428  0.1258 -0.5285 -0.8116
 3969TIP3   OH233397   3.481   1.135  43.811 -0.1405  0.5824 -0.2506
 3969TIP3    H133398   3.556   1.084  43.842  0.1099  1.8152  1.3119
 3969TIP3    H233399   3.467   1.200  43.879 -3.0336  0.0250 -0.1831
 3970TIP3   OH233400   0.925   1.860   0.419  0.1416 -0.0723 -0.3176
 3970TIP3    H133401   1.004   1.868   0.365  0.0942 -2.2357 -0.8087
 3970TIP3    H233402   0.901   1.767   0.412 -1.0526  0.0204  1.7924
 3971TIP3   OH233403   3.311   2.434  43.784  0.1714 -0.4504  0.0169
 3971TIP3    H133404   3.261   2.459  43.862  1.3239 -0.3810  0.7557
 3971TIP3    H233405   3.387   2.386  43.819  1.5370  0.9157 -0.9234
 3972TIP3   OH233406   3.709   1.532  45.456 -0.2872  0.0911  0.6947
 3972TIP3    H133407   3.616   1.550  45.472 -0.9651 -2.9852  1.0238
 3972TIP3    H233408   3.734   1.474  45.529  0.9622 -1.6208 -0.9909
 3973TIP3   OH233409   1.080   1.865  43.731 -0.1159  0.0383 -0.3565
 3973TIP3    H133410   1.068   1.771  43.716  1.0061  0.1609 -2.4042
 3973TIP3    H233411   1.159   1.887  43.682 -1.2232  2.3396 -1.2193
 3974TIP3   OH233412   2.748   0.032   7.705  0.0472  0.5514  0.3562
 3974TIP3    H133413   2.752  -0.063   7.705  0.0176  0.5488  0.6837
 3974TIP3    H233414   2.686   0.054   7.635  1.7564  0.4149 -1.2488
 3975TIP3   OH233415   1.698   2.200  10.911  0.2451 -0.2891 -0.5114
 3975TIP3    H133416   1.741   2.241  10.836  1.9185 -2.1842 -0.6555
 3975TIP3    H233417   1.766   2.194  10.977 -0.5634 -0.8477  0.2866
 3976TIP3   OH233418   2.496   3.004  41.125 -0.1275  0.0132 -0.1281
 3976TIP3    H133419   2.485   3.081  41.070  2.3846  0.7545  0.2982
 3976TIP3    H233420   2.512   3.039  41.212 -2.0830 -1.1096  0.7284
 3977TIP3   OH233421   1.550   0.625   0.709 -0.0504  0.0960  0.3471
 3977TIP3    H133422   1.545   0.718   0.728 -1.6172 -0.2065  1.6503
 3977TIP3    H233423   1.502   0.615   0.626 -0.2800  0.3876  0.4433
 3978TIP3   OH233424   0.509   2.661  36.401 -0.0822  0.2908  0.6173
 3978TIP3    H133425   0.477   2.750  36.411 -2.4681 -0.6301  2.1129
 3978TIP3    H233426   0.539   2.656  36.310 -3.2442  1.6496 -0.6340
 3979TIP3   OH233427   1.242   3.958  42.750 -0.5995 -0.1765  0.2209
 3979TIP3    H133428   1.181   3.998  42.812 -0.2865 -0.6952  0.8791
 3979TIP3    H233429   1.301   4.029  42.725 -0.6573  0.0113  0.6092
 3980TIP3   OH233430   4.004   0.233  11.865 -0.3690 -0.2526 -0.5256
 3980TIP3    H133431   3.994   0.147  11.824 -0.7371  0.1406 -1.2720
 3980TIP3    H233432   4.099   0.246  11.870 -0.2155 -1.5983  1.5446
 3981TIP3   OH233433   2.328   1.246  37.365 -0.0071  0.3864  0.5309
 3981TIP3    H133434   2.286   1.160  37.365 -0.7484  0.7311 -0.0688
 3981TIP3    H233435   2.323   1.275  37.274  0.3037  1.0321  0.7100
 3982TIP3   OH233436   1.945   2.667   3.761  0.2198  0.3053 -0.2812
 3982TIP3    H133437   1.911   2.708   3.682  3.4549  1.5519 -1.1688
 3982TIP3    H233438   1.987   2.738   3.809  0.8579 -0.9623  1.1333
 3983TIP3   OH233439   0.144   3.139  41.293  0.2670 -0.0223  0.2643
 3983TIP3    H133440   0.112   3.083  41.223  0.9013 -0.1735  0.0814
 3983TIP3    H233441   0.207   3.085  41.341  0.0979  0.1918  0.7352
 3984TIP3   OH233442   0.061   0.985   7.449 -0.7068 -0.3539 -0.5746
 3984TIP3    H133443   0.024   0.953   7.531 -1.8440  0.8057 -0.6012
 3984TIP3    H233444   0.145   1.023   7.473 -0.6678 -0.7428 -0.0883
 3985TIP3   OH233445   2.033   1.785   2.380 -0.3609  1.2597  0.2073
 3985TIP3    H133446   2.058   1.705   2.333 -2.5927  0.8341 -0.3711
 3985TIP3    H233447   2.114   1.836   2.385  0.4953  0.2300 -1.9441
 3986TIP3   OH233448   2.844   0.743  43.069  0.1811 -0.1720 -0.1101
 3986TIP3    H133449   2.766   0.708  43.025 -0.2579  2.3822 -1.5896
 3986TIP3    H233450   2.809   0.808  43.130  1.1255  1.4553 -1.2420
 3987TIP3   OH233451   3.303   0.461   7.459 -0.2105  0.4901  0.1520
 3987TIP3    H133452   3.212   0.488   7.467 -0.4811 -0.2620 -0.3429
 3987TIP3    H233453   3.342   0.526   7.400 -0.4288  0.7856  0.3307
 3988TIP3   OH233454   1.254   1.796  20.023  0.1194 -0.1791  0.3081
 3988TIP3    H133455   1.167   1.831  20.003  0.6204  0.9288 -0.0370
 3988TIP3    H233456   1.290   1.857  20.088  0.9106 -0.2114 -0.0852
 3989TIP3   OH233457   1.548   2.789  10.324  0.2148 -0.3277 -0.2812
 3989TIP3    H133458   1.534   2.820  10.234 -1.6227  3.1002  0.9752
 3989TIP3    H233459   1.639   2.761  10.325  0.4776  0.0842 -3.0634
 3990TIP3   OH233460   0.023   1.548  34.546 -0.2337 -0.0533  0.2515
 3990TIP3    H133461   0.051   1.561  34.455 -1.5364 -2.2921 -0.5440
 3990TIP3    H233462  -0.011   1.634  34.573  0.0730  0.6344 -1.4021
 3991TIP3   OH233463   3.194   1.955  16.217  0.1333 -0.9028 -0.6057
 3991TIP3    H133464   3.231   1.907  16.143  1.5366 -0.4822 -0.2025
 3991TIP3    H233465   3.268   1.999  16.257 -0.5613 -1.2486  1.1663
 3992TIP3   OH233466   2.770   1.111  46.947 -0.4326 -0.0690  0.1896
 3992TIP3    H133467   2.676   1.128  46.955 -0.6997 -1.1692 -0.3272
 3992TIP3    H233468   2.811   1.169  47.011 -1.6526 -1.2148  2.1219
 3993TIP3   OH233469   1.384   1.864  40.703 -1.0534  0.4308  0.6335
 3993TIP3    H133470   1.471   1.900  40.719 -1.4223  0.9411  1.5473
 3993TIP3    H233471   1.392   1.818  40.619  0.3385 -0.3265  1.1487
 3994TIP3   OH233472   2.195   0.028  14.797 -0.2574 -0.2913  0.6982
 3994TIP3    H133473   2.179  -0.059  14.832 -1.4296 -0.5577 -0.4216
 3994TIP3    H233474   2.291   0.037  14.798 -0.1661 -1.1795  1.7537
 3995TIP3   OH233475   1.743   1.121   6.901  0.0420 -0.1881 -0.0902
 3995TIP3    H133476   1.831   1.155   6.915 -0.0433  0.9934 -1.9989
 3995TIP3    H233477   1.685   1.194   6.924 -0.3783 -0.5327 -0.0390
 3996TIP3   OH233478   0.077   0.708  44.439 -0.2771 -0.0007  0.5034
 3996TIP3    H133479   0.123   0.721  44.356  0.4465 -2.1354  0.5219
 3996TIP3    H233480   0.021   0.786  44.447 -1.1403 -0.1582 -2.4811
 3997TIP3   OH233481   1.967   0.961   1.228  0.3553 -0.6372 -0.3947
 3997TIP3    H133482   1.931   0.935   1.143  0.5203 -3.4339  0.3022
 3997TIP3    H233483   1.898   0.941   1.291  1.1414 -0.9733  0.3844
 3998TIP3   OH233484   1.809   0.313  36.515 -0.7465 -0.1666 -0.3436
 3998TIP3    H133485   1.840   0.287  36.601 -2.9710  0.3546  0.7045
 3998TIP3    H233486   1.769   0.399  36.528 -1.0891 -0.0499 -1.8931
 3999TIP3   OH233487   2.069   1.786   7.424 -0.8684 -0.2914 -0.2433
 3999TIP3    H133488   1.983   1.793   7.466 -1.5852 -0.8803 -1.5705
 3999TIP3    H233489   2.053   1.737   7.344  0.7009 -0.3253 -0.5677
 4000TIP3   OH233490   0.461   3.290  35.008 -0.7695 -0.0879  0.3022
 4000TIP3    H133491   0.431   3.330  35.089 -1.2503 -0.5316  0.3530
 4000TIP3    H233492   0.499   3.206  35.035  1.7109  0.9829  0.3927
 4001TIP3   OH233493   2.340   3.945  30.158  0.2597  0.0113 -0.0872
 4001TIP3    H133494   2.377   4.021  30.113  0.7424  0.3862  0.8986
 4001TIP3    H233495   2.261   3.923  30.108  0.1688  1.1024 -0.4502
 4002TIP3   OH233496   1.292   3.762  12.402  0.3827  0.3131 -0.4173
 4002TIP3    H133497   1.322   3.679  12.365 -0.0901 -0.5311  1.0094
 4002TIP3    H233498   1.351   3.828  12.364 -0.6098 -0.3291 -3.3112
 4003TIP3   OH233499   3.678   0.705  10.161 -0.2818 -0.2928 -0.2828
 4003TIP3    H133500   3.690   0.786  10.210  1.3782 -0.0299 -1.0775
 4003TIP3    H233501   3.678   0.636  10.228  1.1462  0.1293  0.1798
 4004TIP3   OH233502   0.858   1.109   7.615  0.0969  0.1609 -0.0524
 4004TIP3    H133503   0.918   1.139   7.547  0.3164 -0.6340 -0.2267
 4004TIP3    H233504   0.872   1.014   7.619  1.4889  0.3766  2.4287
 4005TIP3   OH233505   0.260   1.317  10.196  0.4979  0.5052 -0.0198
 4005TIP3    H133506   0.315   1.254  10.242  0.4328  0.5046  0.0575
 4005TIP3    H233507   0.209   1.359  10.266 -0.8278 -0.6805 -0.2424
 4006TIP3   OH233508   2.694   0.967   7.665 -0.2144  0.3676  0.4449
 4006TIP3    H133509   2.699   1.045   7.721 -3.1666  0.9621  0.0476
 4006TIP3    H233510   2.620   0.918   7.700 -1.3060  0.0799 -2.1054
 4007TIP3   OH233511   1.430   0.851  15.807 -0.1818  0.6038  0.1658
 4007TIP3    H133512   1.499   0.848  15.873 -0.8386  0.2549  0.8346
 4007TIP3    H233513   1.378   0.928  15.829 -2.0902 -1.0393  1.7877
 4008TIP3   OH233514   3.092   3.362  44.295  0.0301  0.1335 -0.2854
 4008TIP3    H133515   3.017   3.418  44.313 -1.3574 -2.0550  1.2379
 4008TIP3    H233516   3.167   3.422  44.295 -1.4619  2.1108  0.1380
 4009TIP3   OH233517   1.443   3.307  36.914 -0.1465 -0.1560 -0.3443
 4009TIP3    H133518   1.482   3.276  36.995 -1.6944 -3.1450 -0.6024
 4009TIP3    H233519   1.395   3.386  36.938 -0.3041 -0.8057  1.5929
 4010TIP3   OH233520   0.694   3.855   0.890  0.1408  0.5044 -1.0353
 4010TIP3    H133521   0.624   3.789   0.898 -1.6650  2.4564  0.3993
 4010TIP3    H233522   0.715   3.877   0.981 -0.1950  2.7591 -1.4680
 4011TIP3   OH233523   2.301   2.444  40.762 -0.4077 -0.0346  0.1532
 4011TIP3    H133524   2.357   2.510  40.721 -0.8408  0.0244 -0.3589
 4011TIP3    H233525   2.230   2.494  40.802 -1.5914 -0.2431 -1.5627
 4012TIP3   OH233526   1.407   1.867  34.685  0.0160  0.2058 -0.3638
 4012TIP3    H133527   1.454   1.786  34.667  0.9751  1.1134 -2.1851
 4012TIP3    H233528   1.466   1.915  34.744 -0.8154 -0.5925  1.2095
 4013TIP3   OH233529   3.602   2.096   2.324  0.1327  0.1047  0.2089
 4013TIP3    H133530   3.540   2.023   2.316  0.3637 -0.0323 -0.3767
 4013TIP3    H233531   3.670   2.063   2.382 -0.5778  0.4274  1.2643
 4014TIP3   OH233532   0.095   1.227  12.271 -0.1795  0.2246 -0.1834
 4014TIP3    H133533   0.023   1.290  12.263 -0.0600  0.5749  1.2762
 4014TIP3    H233534   0.054   1.148  12.305  0.0843  0.3579  0.4531
 4015TIP3   OH233535   2.915   2.961  46.957  0.2204  0.3202 -0.5442
 4015TIP3    H133536   2.887   3.033  47.014 -1.0724 -2.0061  2.0397
 4015TIP3    H233537   2.835   2.914  46.936  1.0644 -0.6429 -1.7729
 4016TIP3   OH233538   1.874   3.019  43.589 -0.2481 -0.2764 -0.2116
 4016TIP3    H133539   1.847   3.060  43.672 -1.1134  2.2982 -1.6543
 4016TIP3    H233540   1.963   3.050  43.574 -0.2008 -0.5040 -0.4126
 4017TIP3   OH233541   0.915   1.181  10.756 -0.5745  0.5051  0.3719
 4017TIP3    H133542   0.987   1.184  10.819  0.5502 -0.9869 -0.7636
 4017TIP3    H233543   0.958   1.184  10.671 -1.9039  0.1777 -0.3351
 4018TIP3   OH233544   3.339   3.811  14.540  0.1126  0.5106  0.2893
 4018TIP3    H133545   3.296   3.776  14.619  1.4217 -2.1366 -0.0802
 4018TIP3    H233546   3.319   3.747  14.472  1.0524  1.4830 -0.9296
 4019TIP3   OH233547   2.259   0.159  41.412  0.2647  0.2044  0.8634
 4019TIP3    H133548   2.227   0.109  41.486 -0.0998 -0.1626  0.4573
 4019TIP3    H233549   2.188   0.221  41.392 -0.5009 -1.0313 -0.4341
 4020TIP3   OH233550   1.224   3.722  35.284  0.2987  0.0838  0.6948
 4020TIP3    H133551   1.230   3.634  35.246  0.7463  0.1806  0.5292
 4020TIP3    H233552   1.155   3.765  35.236  1.1341  0.3451 -0.3058
 4021TIP3   OH233553   1.453   0.306  26.516 -0.2131  0.1081  0.6574
 4021TIP3    H133554   1.363   0.274  26.518 -1.4320  2.7570 -2.2651
 4021TIP3    H233555   1.453   0.384  26.571  0.0955  0.4324  0.2159
 4022TIP3   OH233556   1.253   1.184   7.293  0.2692  0.3686  0.2031
 4022TIP3    H133557   1.348   1.192   7.284  0.3478  0.5355  1.0773
 4022TIP3    H233558   1.218   1.260   7.246  0.5140 -0.1548 -0.8653
 4023TIP3   OH233559   3.168   3.510   7.168  0.4741 -0.1289 -0.5771
 4023TIP3    H133560   3.141   3.601   7.173 -1.2616 -0.6489  0.1918
 4023TIP3    H233561   3.146   3.483   7.079  2.0759  0.4731 -1.2041
 4024TIP3   OH233562   2.951   1.633   0.509  0.2242  0.4078 -0.2612
 4024TIP3    H133563   3.041   1.660   0.527 -0.2784  1.7186  0.4000
 4024TIP3    H233564   2.932   1.667   0.422  0.5630 -0.4329 -0.6770
 4025TIP3   OH233565   2.225   1.264  41.831  0.0456 -0.0628  0.2933
 4025TIP3    H133566   2.313   1.282  41.798 -0.2057 -0.6702 -0.7792
 4025TIP3    H233567   2.168   1.316  41.774 -0.3977 -1.0152 -0.1456
 4026TIP3   OH233568   1.184   2.378   4.957 -0.0749 -0.3677  0.3080
 4026TIP3    H133569   1.155   2.286   4.954 -1.6905  0.0965  0.6499
 4026TIP3    H233570   1.263   2.380   4.904 -0.0792 -1.9388  0.1904
 4027TIP3   OH233571   2.247   3.577  11.558 -0.1292  0.0954  0.2950
 4027TIP3    H133572   2.194   3.612  11.629 -2.4543 -1.1619 -0.6917
 4027TIP3    H233573   2.300   3.509  11.599 -0.3473  0.3880  1.0800
 4028TIP3   OH233574   0.509   0.963  34.420 -0.2361  0.2532 -0.1014
 4028TIP3    H133575   0.578   0.994  34.362  0.6287  0.3479  0.9405
 4028TIP3    H233576   0.436   0.943  34.362  0.7842 -0.2054 -1.2681
 4029TIP3   OH233577   2.892   2.217  11.543  0.6983  0.3233  0.0405
 4029TIP3    H133578   2.858   2.190  11.458  0.9398  1.8659 -0.5606
 4029TIP3    H233579   2.939   2.298  11.527  1.2641  0.3413  1.5523
 4030TIP3   OH233580   3.979   1.213  44.617 -0.2669 -0.2553  0.3346
 4030TIP3    H133581   4.050   1.277  44.621  0.6822 -1.3109  0.8721
 4030TIP3    H233582   3.997   1.160  44.540  0.1131 -1.1631  1.0265
 4031TIP3   OH233583   2.228   2.641  43.267  0.3779 -0.0114 -0.2924
 4031TIP3    H133584   2.145   2.624  43.224 -0.9432  0.0112  2.0942
 4031TIP3    H233585   2.227   2.586  43.345  1.2544  2.1738  1.3640
 4032TIP3   OH233586   0.884   1.331  46.414 -0.3604 -0.6402 -0.1947
 4032TIP3    H133587   0.908   1.280  46.336 -1.2844  1.3463 -1.8840
 4032TIP3    H233588   0.788   1.333  46.412 -0.3459  1.4376 -0.4166
 4033TIP3   OH233589   2.563   3.145  14.560  0.1411  0.0192  0.3565
 4033TIP3    H133590   2.584   3.107  14.646 -1.5482  2.6584  2.1171
 4033TIP3    H233591   2.594   3.236  14.567 -0.2107  0.3486 -1.7932
 4034TIP3   OH233592   0.630   3.117   4.294  0.0615 -0.6245 -0.2039
 4034TIP3    H133593   0.725   3.102   4.300  0.2734  1.1835  3.7124
 4034TIP3    H233594   0.592   3.053   4.353 -0.9076  0.3380  0.2391
 4035TIP3   OH233595   3.585   2.104  12.196  0.6128 -0.5503 -0.4300
 4035TIP3    H133596   3.555   2.035  12.256  0.7228 -1.5749 -1.5223
 4035TIP3    H233597   3.659   2.144  12.242 -0.4899 -0.0082  0.9607
 4036TIP3   OH233598   0.327   0.315  38.793 -0.1704  0.3902  0.1667
 4036TIP3    H133599   0.288   0.270  38.868 -0.5431  0.8997  0.2789
 4036TIP3    H233600   0.367   0.244  38.742 -0.2436 -0.0049  0.6397
 4037TIP3   OH233601   2.999   1.745   3.270 -0.2750 -0.3940 -0.2955
 4037TIP3    H133602   3.093   1.743   3.287 -0.3162  0.7300  0.0951
 4037TIP3    H233603   2.963   1.679   3.329  0.3318 -1.3524 -0.9569
 4038TIP3   OH233604   0.310   1.321  41.068  0.4937  0.2967 -0.4914
 4038TIP3    H133605   0.291   1.230  41.044  0.2593  1.1529 -4.1550
 4038TIP3    H233606   0.385   1.315  41.127  0.9063 -2.2650 -1.1543
 4039TIP3   OH233607   0.790   0.690  33.151  0.7456 -0.8951 -0.6397
 4039TIP3    H133608   0.760   0.618  33.096  1.6243 -0.1672 -2.1182
 4039TIP3    H233609   0.777   0.769  33.099 -1.3721  0.2438  1.4256
 4040TIP3   OH233610   1.653   3.631  12.441 -0.0807  0.1541 -0.0904
 4040TIP3    H133611   1.691   3.547  12.416 -0.0243  0.8157 -2.4768
 4040TIP3    H233612   1.561   3.625  12.413  0.1235  1.1415 -1.0516
 4041TIP3   OH233613   0.186   0.892  32.371 -0.0918 -0.0371 -0.8071
 4041TIP3    H133614   0.092   0.904  32.385  0.5694  3.3858  1.8272
 4041TIP3    H233615   0.202   0.923  32.282 -1.1360  2.0487 -0.3107
 4042TIP3   OH233616   1.695   0.334   5.608 -0.1887  0.1172  0.4500
 4042TIP3    H133617   1.777   0.373   5.579 -0.1413 -0.9820 -1.0248
 4042TIP3    H233618   1.685   0.257   5.553 -2.4058  0.4297  0.3301
 4043TIP3   OH233619   2.097   0.275   7.976 -0.4813  0.7897 -0.2827
 4043TIP3    H133620   2.188   0.303   7.984  0.1266 -1.4234  1.5033
 4043TIP3    H233621   2.054   0.312   8.054 -0.1151 -1.4546  1.0511
 4044TIP3   OH233622   0.047   3.152   1.245 -0.7863 -0.0677 -0.9450
 4044TIP3    H133623   0.064   3.184   1.157  1.7625  2.0827  0.1821
 4044TIP3    H233624  -0.031   3.200   1.274 -2.7337 -2.0659 -2.4848
 4045TIP3   OH233625   2.710   0.195  40.021  0.3105  0.0582 -0.4124
 4045TIP3    H133626   2.622   0.188  39.985  0.4944 -0.7012 -0.7444
 4045TIP3    H233627   2.753   0.114  39.994  0.3448 -0.7626  1.8652
 4046TIP3   OH233628   2.709   2.244  32.527 -0.1068 -0.2287 -0.2716
 4046TIP3    H133629   2.623   2.285  32.534 -0.3161 -0.4591 -1.2140
 4046TIP3    H233630   2.765   2.311  32.489  0.5188  0.3988  1.6733
 4047TIP3   OH233631   0.605   0.034   9.678  0.2348  0.1027  0.2710
 4047TIP3    H133632   0.650   0.095   9.737 -1.6158  1.6252  0.1957
 4047TIP3    H233633   0.518   0.023   9.717 -0.9540  0.9424 -1.9759
 4048TIP3   OH233634   1.251   1.723  35.785  0.0321 -0.2054 -0.2738
 4048TIP3    H133635   1.287   1.682  35.706  1.8286  0.0484  0.3668
 4048TIP3    H233636   1.321   1.714  35.850 -1.6993 -1.1384  1.5678
 4049TIP3   OH233637   1.308   3.198   9.986  0.0746  0.0289 -0.0402
 4049TIP3    H133638   1.356   3.274  10.019  0.6392 -0.0813 -0.5880
 4049TIP3    H233639   1.338   3.189   9.895 -0.2790 -0.6167 -0.0953
 4050TIP3   OH233640   2.139   1.254  14.271 -0.0734 -0.1010 -0.0121
 4050TIP3    H133641   2.209   1.313  14.242 -0.9367  0.6793 -0.5625
 4050TIP3    H233642   2.122   1.199  14.195 -1.5601  1.1961 -0.6813
 4051TIP3   OH233643   4.000   3.379   7.788  0.1063  0.0913  0.1739
 4051TIP3    H133644   3.925   3.423   7.827 -1.3812 -1.1491 -1.1683
 4051TIP3    H233645   4.053   3.350   7.863 -1.6795 -0.6007  1.2116
 4052TIP3   OH233646   0.535   0.913  10.039  0.1761 -0.5965  0.9861
 4052TIP3    H133647   0.566   0.906  10.129 -0.9180 -0.8939  1.3530
 4052TIP3    H233648   0.483   0.835  10.025 -0.2125 -0.2260  0.3151
 4053TIP3   OH233649   2.604   4.068  46.600 -0.0655 -0.4663 -0.1856
 4053TIP3    H133650   2.645   4.093  46.517  0.1477 -0.7146 -0.1588
 4053TIP3    H233651   2.564   4.148  46.633 -0.1701 -0.3692 -0.5422
 4054TIP3   OH233652   0.352   1.586  35.787  0.0520  0.4594  0.8797
 4054TIP3    H133653   0.416   1.596  35.717  0.5541  1.2173  1.4258
 4054TIP3    H233654   0.324   1.495  35.782  2.6846 -0.5001  1.9000
 4055TIP3   OH233655   1.034   2.708  43.567 -0.3419  0.0713 -0.0157
 4055TIP3    H133656   1.081   2.743  43.643  1.1758  0.1361 -0.9352
 4055TIP3    H233657   1.058   2.615  43.566  1.0075  0.3975 -1.3262
 4056TIP3   OH233658   1.681   0.170  26.635  0.3604  0.2116  0.0079
 4056TIP3    H133659   1.650   0.087  26.672  0.6339 -1.1539 -2.6224
 4056TIP3    H233660   1.607   0.203  26.585  0.6967  0.9053 -0.0470
 4057TIP3   OH233661   0.501   2.891  10.736 -0.2117 -0.8673 -0.1024
 4057TIP3    H133662   0.474   2.975  10.773 -0.9119 -1.2542  0.2960
 4057TIP3    H233663   0.590   2.878  10.769 -0.4734 -0.7568  0.6878
 4058TIP3   OH233664   2.875   2.738   6.650 -0.3766  0.2970  0.3293
 4058TIP3    H133665   2.829   2.816   6.620 -0.2666  0.9857  1.8393
 4058TIP3    H233666   2.830   2.665   6.609 -1.4015  1.0847  0.0281
 4059TIP3   OH233667   1.396   0.143  40.339  0.2951  0.2279  0.4497
 4059TIP3    H133668   1.326   0.124  40.402 -0.5972 -0.8898 -0.8385
 4059TIP3    H233669   1.375   0.230  40.305 -1.9193 -1.0475 -1.7062
 4060TIP3   OH233670   0.239   0.939   8.345 -0.3063 -0.2638 -0.0198
 4060TIP3    H133671   0.206   0.850   8.336  0.7903 -0.9544  2.0155
 4060TIP3    H233672   0.334   0.930   8.344 -0.1415  0.5735  2.0007
 4061TIP3   OH233673   3.615   1.302  33.153 -0.0111  0.2300  0.0510
 4061TIP3    H133674   3.596   1.209  33.170  1.3862 -0.2980 -1.0300
 4061TIP3    H233675   3.533   1.347  33.172 -1.0982 -1.3813 -0.5762
 4062TIP3   OH233676   0.071   2.655   8.432  0.1811  0.4004  0.1652
 4062TIP3    H133677   0.086   2.745   8.460 -1.7212  0.1082  2.5426
 4062TIP3    H233678  -0.020   2.655   8.401  1.1022 -0.1225 -2.8515
 4063TIP3   OH233679   2.533   3.327  33.521 -0.5106  0.2991  0.2188
 4063TIP3    H133680   2.515   3.346  33.613 -1.9547  0.6668 -0.1034
 4063TIP3    H233681   2.448   3.302  33.485 -0.0871  0.7415 -1.1532
 4064TIP3   OH233682   3.566   3.898  39.725  0.0193 -0.5511  0.1750
 4064TIP3    H133683   3.585   3.939  39.809  1.1663  0.0214 -0.3514
 4064TIP3    H233684   3.493   3.949  39.689  1.0048  0.6457 -0.1829
 4065TIP3   OH233685   1.220   3.281   6.621 -0.6366  0.1928 -0.4475
 4065TIP3    H133686   1.230   3.258   6.713 -1.6684 -1.9414 -0.8066
 4065TIP3    H233687   1.141   3.334   6.617 -0.7243  0.0828 -0.1444
 4066TIP3   OH233688   0.154   2.336  43.653 -0.0124 -0.1148  0.2137
 4066TIP3    H133689   0.178   2.246  43.674  0.9118 -0.3285 -1.5277
 4066TIP3    H233690   0.124   2.374  43.736  0.5329 -1.7158  1.1768
 4067TIP3   OH233691   2.074   1.322  40.596  0.6130 -0.2198 -0.0449
 4067TIP3    H133692   2.169   1.340  40.598  0.4240  0.8564  2.1582
 4067TIP3    H233693   2.062   1.270  40.517  3.2629 -1.6665  0.3772
 4068TIP3   OH233694   0.974   1.249  11.345  0.4743 -0.0201  0.2875
 4068TIP3    H133695   1.064   1.239  11.377  0.3228  0.2525  0.8198
 4068TIP3    H233696   0.927   1.173  11.380  0.6656 -0.5874 -0.6477
 4069TIP3   OH233697   0.109   1.479  41.017 -0.1783  0.2837  0.0648
 4069TIP3    H133698   0.180   1.416  41.030  0.0053  0.7617  1.4529
 4069TIP3    H233699   0.119   1.542  41.088 -1.5525  0.7673 -0.1462
 4070TIP3   OH233700   1.436   2.546   3.640  0.8191  0.3417 -0.0739
 4070TIP3    H133701   1.368   2.581   3.697  1.7422  0.9975  0.6674
 4070TIP3    H233702   1.390   2.518   3.561 -0.5116 -0.7029  1.0200
 4071TIP3   OH233703   2.397   1.641  17.445  0.5717  0.1837  0.2449
 4071TIP3    H133704   2.333   1.678  17.505  0.7283  1.1722 -0.1747
 4071TIP3    H233705   2.378   1.683  17.361  1.8812  0.6668  0.1521
 4072TIP3   OH233706   1.538   1.020   6.217  0.0513 -0.6623 -0.3516
 4072TIP3    H133707   1.547   1.110   6.187 -1.9415  0.1617  1.3264
 4072TIP3    H233708   1.463   0.985   6.168  0.8349 -1.4503 -1.0257
 4073TIP3   OH233709   1.787   3.746   7.174  0.5103 -0.8370 -0.3435
 4073TIP3    H133710   1.702   3.779   7.146 -0.3371 -2.1828  0.5342
 4073TIP3    H233711   1.849   3.814   7.147 -0.9954  0.8968  0.3234
 4074TIP3   OH233712   0.404   1.265   8.097  0.0491 -0.0164  0.1063
 4074TIP3    H133713   0.321   1.229   8.066  0.1999 -0.3471  0.0833
 4074TIP3    H233714   0.395   1.263   8.193  0.5283 -1.2610  0.1463
 4075TIP3   OH233715   1.375   2.746  46.868 -0.1250 -0.4419  0.8041
 4075TIP3    H133716   1.353   2.738  46.775  2.0384 -2.8038  0.3851
 4075TIP3    H233717   1.427   2.827  46.873  0.2427 -0.5973 -0.1756
 4076TIP3   OH233718   1.275   3.022  34.402 -0.3426 -0.1559 -0.3271
 4076TIP3    H133719   1.357   2.981  34.375  0.3293  0.9392  0.0090
 4076TIP3    H233720   1.209   2.982  34.346  0.8402  1.2384 -2.8982
 4077TIP3   OH233721   0.220   4.061   5.014  0.5833 -0.2847 -0.8247
 4077TIP3    H133722   0.142   4.086   4.964 -0.0371  2.0493  1.1697
 4077TIP3    H233723   0.237   3.970   4.987 -1.3231 -0.0652 -3.1332
 4078TIP3   OH233724   0.294   0.468  29.084  0.0565 -0.5287  0.0613
 4078TIP3    H133725   0.226   0.475  29.150  0.1741 -1.3756  0.2895
 4078TIP3    H233726   0.360   0.410  29.123 -0.3039 -1.7966 -1.1338
 4079TIP3   OH233727   0.240   1.908  38.328 -0.0200 -0.2218  0.0525
 4079TIP3    H133728   0.267   1.906  38.236  0.5225 -2.7899  0.1998
 4079TIP3    H233729   0.275   1.827  38.365  0.3631  1.0635  2.7247
 4080TIP3   OH233730   1.397   0.266  43.352 -0.8913 -0.4381  0.1001
 4080TIP3    H133731   1.467   0.213  43.391  0.4540 -1.0161 -2.8444
 4080TIP3    H233732   1.391   0.235  43.262 -3.1747  1.4301 -0.4717
 4081TIP3   OH233733   0.953   2.993  32.835 -0.1140  0.7415 -0.0666
 4081TIP3    H133734   0.878   3.017  32.780  1.0958  1.2574 -1.5629
 4081TIP3    H233735   0.981   3.075  32.875  0.9319  0.9713 -1.2071
 4082TIP3   OH233736   2.198   3.602  39.799 -0.1654 -0.3455  0.4024
 4082TIP3    H133737   2.288   3.610  39.832  0.6970 -1.2680 -1.5767
 4082TIP3    H233738   2.182   3.685  39.754 -0.5649  0.0781  1.3097
 4083TIP3   OH233739   1.025   1.295  36.944 -0.5390  0.1178 -0.0891
 4083TIP3    H133740   0.947   1.291  36.888  0.1925 -0.0537 -1.1193
 4083TIP3    H233741   1.092   1.335  36.889  0.6479 -1.5282  0.1068
 4084TIP3   OH233742   2.119   2.006   1.010 -0.5931  0.0756 -0.0695
 4084TIP3    H133743   2.114   1.948   0.934  0.6923  0.3536 -0.3868
 4084TIP3    H233744   2.211   2.004   1.035 -0.9288  0.3131  1.2372
 4085TIP3   OH233745   3.129   0.544   5.707  0.4793 -0.1501  0.4087
 4085TIP3    H133746   3.105   0.607   5.639 -0.2782  0.3193  1.1003
 4085TIP3    H233747   3.225   0.545   5.708  0.4921  1.7451  1.0758
 4086TIP3   OH233748   0.919   1.368  35.892 -0.4304 -0.0268  0.2646
 4086TIP3    H133749   0.932   1.318  35.972  1.3424 -0.2959 -0.1498
 4086TIP3    H233750   0.979   1.442  35.900 -0.8410  0.3951 -0.4571
 4087TIP3   OH233751   0.587   3.607  29.717  0.2220 -0.0419  0.4323
 4087TIP3    H133752   0.593   3.693  29.759 -0.2233  0.8066 -1.1498
 4087TIP3    H233753   0.643   3.615  29.639 -0.6178 -0.8297 -0.2746
 4088TIP3   OH233754   0.250   3.994  44.797  0.7027  0.4674 -1.1332
 4088TIP3    H133755   0.235   4.087  44.779 -0.0186  0.4306 -0.7586
 4088TIP3    H233756   0.163   3.960  44.821  1.4076  0.3081  1.4561
 4089TIP3   OH233757   3.759   1.967  39.693 -0.0379 -0.5305 -0.3474
 4089TIP3    H133758   3.675   1.927  39.717  0.7551 -2.0379  0.0768
 4089TIP3    H233759   3.789   1.916  39.618 -0.2932  1.1405 -1.6296
 4090TIP3   OH233760   0.490   2.052  41.926 -0.8511 -0.3137  0.1066
 4090TIP3    H133761   0.498   2.141  41.893  0.6648 -0.1934  0.7175
 4090TIP3    H233762   0.396   2.042  41.944 -0.9127  1.5662  1.1248
 4091TIP3   OH233763   3.817   1.038   6.702 -0.2851 -0.0873  0.3814
 4091TIP3    H133764   3.847   1.018   6.614 -1.3933  1.3661 -0.3625
 4091TIP3    H233765   3.880   1.101   6.736 -1.2979  1.4181 -0.4227
 4092TIP3   OH233766   3.339   0.170   4.778  0.5135 -0.0482  0.1070
 4092TIP3    H133767   3.367   0.261   4.787  1.0552  0.0478 -1.9024
 4092TIP3    H233768   3.357   0.149   4.686 -1.5325 -1.5371 -0.0318
 4093TIP3   OH233769   0.918   3.566  14.691  0.4037 -0.3333  0.1495
 4093TIP3    H133770   0.873   3.499  14.742 -2.9996  2.0320  0.5681
 4093TIP3    H233771   0.994   3.589  14.744 -0.2757 -1.4357  1.6667
 4094TIP3   OH233772   1.261   3.396  25.659 -0.3325 -0.2985  0.6309
 4094TIP3    H133773   1.262   3.483  25.619 -1.9339 -0.7553 -0.5037
 4094TIP3    H233774   1.321   3.402  25.733  1.9092  0.9067 -1.1853
 4095TIP3   OH233775   1.632   2.995  13.585 -0.6240  0.1819  0.3838
 4095TIP3    H133776   1.578   2.932  13.632  1.2847 -0.7405  1.4716
 4095TIP3    H233777   1.617   3.078  13.630 -0.6666 -0.1915  1.0783
 4096TIP3   OH233778   1.655   0.159  32.922 -0.0949  0.8161  0.9032
 4096TIP3    H133779   1.605   0.181  32.843 -0.5384 -0.0868  0.9200
 4096TIP3    H233780   1.590   0.163  32.993 -0.7002 -2.3295  0.6730
 4097TIP3   OH233781   4.063   3.720   6.369  0.3060 -0.3220 -0.0338
 4097TIP3    H133782   3.992   3.783   6.355 -1.0859 -1.5029  1.3026
 4097TIP3    H233783   4.091   3.695   6.281  0.0881  1.2546 -0.5829
 4098TIP3   OH233784   1.562   0.216  13.483 -0.6146 -0.6896  0.1248
 4098TIP3    H133785   1.503   0.273  13.433  0.0204 -1.8121 -2.0527
 4098TIP3    H233786   1.606   0.275  13.544 -1.6313  0.7325 -0.4471
 4099TIP3   OH233787   0.540   3.944  42.870  0.4923  0.1965 -0.0498
 4099TIP3    H133788   0.447   3.929  42.882  0.3704 -0.6413 -1.7284
 4099TIP3    H233789   0.578   3.856  42.866  1.4919  0.5210  1.3375
 4100TIP3   OH233790   2.806   2.844  47.605  0.3366 -0.7207 -0.0549
 4100TIP3    H133791   2.765   2.923  47.640  2.4172  0.7283 -0.7010
 4100TIP3    H233792   2.760   2.829  47.522 -0.0502 -0.1624  0.0508
 4101TIP3   OH233793   0.879   1.585   0.392  0.0110 -0.2311  0.4230
 4101TIP3    H133794   0.812   1.596   0.325 -0.2360  0.1524  0.7304
 4101TIP3    H233795   0.836   1.537   0.462 -0.0196  0.2227  0.7235
 4102TIP3   OH233796   3.332   1.871  45.976 -0.3861  0.9028 -0.1934
 4102TIP3    H133797   3.277   1.945  46.000 -0.0564  0.9951  0.2859
 4102TIP3    H233798   3.418   1.890  46.014 -0.7592 -0.5768  1.5339
 4103TIP3   OH233799   2.830   3.668  26.970 -0.7330  0.1916 -0.3921
 4103TIP3    H133800   2.801   3.578  26.986 -0.5166  0.2892  0.6214
 4103TIP3    H233801   2.894   3.684  27.039 -0.4262  0.9676 -0.8562
 4104TIP3   OH233802   0.090   1.534   1.681  0.5378  0.3225 -0.5885
 4104TIP3    H133803   0.001   1.527   1.645 -0.0413 -1.5462  0.9672
 4104TIP3    H233804   0.084   1.605   1.745 -0.0021 -0.0921 -0.1593
 4105TIP3   OH233805   3.036   1.568   7.928  0.1228  0.5777  0.0292
 4105TIP3    H133806   3.098   1.582   7.856  0.4309  1.2712  0.4220
 4105TIP3    H233807   2.961   1.526   7.887 -0.3690  2.3793 -1.0170
 4106TIP3   OH233808   3.519   2.511  36.947 -0.1313  0.0437 -0.0852
 4106TIP3    H133809   3.453   2.448  36.978 -0.1176  0.5304  0.9924
 4106TIP3    H233810   3.603   2.472  36.971 -0.0489 -0.2726 -0.8739
 4107TIP3   OH233811   0.189   3.699  34.689  0.0629  0.2086  0.4294
 4107TIP3    H133812   0.220   3.751  34.615 -0.4249  0.4318  0.3787
 4107TIP3    H233813   0.265   3.646  34.715 -0.3110 -1.4575 -1.5800
 4108TIP3   OH233814   0.069   1.374  38.256  0.3126 -0.1456  0.2893
 4108TIP3    H133815   0.082   1.451  38.202 -2.1506  1.0207  1.2030
 4108TIP3    H233816   0.008   1.403  38.324 -2.3681 -3.3575 -0.4885
 4109TIP3   OH233817   1.639   2.877  46.064  0.1643  0.3022 -0.1843
 4109TIP3    H133818   1.695   2.853  45.990 -1.0138  2.4191 -1.8743
 4109TIP3    H233819   1.566   2.814  46.061 -0.2388  0.7978 -1.3157
 4110TIP3   OH233820   1.658   0.723  38.196  0.1492  0.2175 -0.1943
 4110TIP3    H133821   1.597   0.650  38.193 -0.0517  0.4007 -0.6064
 4110TIP3    H233822   1.646   0.769  38.113 -0.0488  0.9760  0.2470
 4111TIP3   OH233823   2.215   4.017  35.028 -0.1700  0.2687 -0.7354
 4111TIP3    H133824   2.290   4.077  35.032  1.6424 -1.8562 -1.0268
 4111TIP3    H233825   2.243   3.940  35.076 -2.0413 -0.7817 -1.2305
 4112TIP3   OH233826   3.830   2.229  19.960  0.1493  0.0974 -0.7149
 4112TIP3    H133827   3.923   2.227  19.940  0.2188 -0.9257 -0.3146
 4112TIP3    H233828   3.823   2.197  20.049 -0.5457  0.6795 -0.5475
 4113TIP3   OH233829   2.420   1.509  42.661 -0.1063  0.5469  0.2223
 4113TIP3    H133830   2.347   1.565  42.633 -0.0876  0.3244 -0.2878
 4113TIP3    H233831   2.497   1.566  42.656  0.2397  0.0055 -2.1983
 4114TIP3   OH233832   2.945   2.627  32.898  0.0728  0.0142  0.0007
 4114TIP3    H133833   2.930   2.662  32.810  3.1822 -0.6756 -0.9454
 4114TIP3    H233834   2.865   2.579  32.919 -1.3502  1.4545 -1.7855
 4115TIP3   OH233835   0.388   0.719  37.031 -0.2646 -0.0402  0.2937
 4115TIP3    H133836   0.482   0.721  37.047 -0.3177 -0.1448  0.6349
 4115TIP3    H233837   0.350   0.766  37.106 -0.4604  0.2915 -0.0118
 4116TIP3   OH233838   0.056   2.154  32.011 -0.3865  0.0318 -0.2792
 4116TIP3    H133839   0.061   2.249  31.997  0.6682 -0.1315 -1.1735
 4116TIP3    H233840   0.094   2.117  31.932  1.6812 -1.0852  1.1544
 4117TIP3   OH233841   3.126   3.718  13.170  0.1888  0.0422 -0.5605
 4117TIP3    H133842   3.105   3.797  13.221  0.4930 -0.7242  0.7940
 4117TIP3    H233843   3.217   3.699  13.192 -0.3651 -1.6333  0.4882
 4118TIP3   OH233844   1.211   0.614  37.403 -0.3646  0.0690 -0.0538
 4118TIP3    H133845   1.303   0.612  37.377 -0.4272 -0.7134 -0.2605
 4118TIP3    H233846   1.211   0.592  37.496 -0.3528 -0.1212 -0.0976
 4119TIP3   OH233847   1.797   0.277   3.164  0.0918  0.2552  0.0899
 4119TIP3    H133848   1.860   0.320   3.221 -0.1121 -0.6678  1.0299
 4119TIP3    H233849   1.837   0.281   3.077  1.0537  0.4079  0.5311
 4120TIP3   OH233850   3.521   0.116  32.182  0.5004 -0.3564 -0.1235
 4120TIP3    H133851   3.440   0.067  32.202  0.5842  0.1686  1.7414
 4120TIP3    H233852   3.546   0.086  32.095 -1.7347 -0.4886 -0.7945
 4121TIP3   OH233853   3.657   3.550  30.075  0.5198 -0.0022 -0.1115
 4121TIP3    H133854   3.690   3.639  30.065 -1.9788  1.3548  2.2587
 4121TIP3    H233855   3.586   3.543  30.010  1.0185 -0.4540 -0.6136
 4122TIP3   OH233856   3.141   0.368  40.393 -0.3943 -0.4052 -0.1986
 4122TIP3    H133857   3.237   0.374  40.390 -0.4658  0.5180 -2.7003
 4122TIP3    H233858   3.116   0.426  40.465  0.9193 -1.3124  1.0698
 4123TIP3   OH233859   0.374   4.018  36.833 -0.2795  0.1724  0.4191
 4123TIP3    H133860   0.329   4.091  36.875  1.0165  1.3797 -0.2280
 4123TIP3    H233861   0.410   4.055  36.753  1.5854 -0.8188  0.7635
 4124TIP3   OH233862   0.417   2.357  46.674 -0.3666 -0.0104  0.9069
 4124TIP3    H133863   0.359   2.400  46.611 -1.7356 -0.4317  1.8390
 4124TIP3    H233864   0.372   2.275  46.695  2.1842 -2.0535 -0.8926
 4125TIP3   OH233865   1.831   3.899  37.118  0.2470  0.6537  0.2491
 4125TIP3    H133866   1.798   3.835  37.181 -1.1286 -0.1054 -1.1441
 4125TIP3    H233867   1.819   3.983  37.160  1.3525  0.0736  1.8108
 4126TIP3   OH233868   1.156   3.709  32.632  0.5239 -0.1666 -0.1604
 4126TIP3    H133869   1.214   3.766  32.683 -0.2141 -1.1461  1.8697
 4126TIP3    H233870   1.082   3.691  32.691 -2.5279  1.9556 -2.9999
 4127TIP3   OH233871   0.996   1.715  45.640  0.2569 -0.5207  0.2871
 4127TIP3    H133872   0.951   1.728  45.724  0.0917  1.1390 -0.0277
 4127TIP3    H233873   1.074   1.664  45.662 -0.5556 -1.4133  1.2003
 4128TIP3   OH233874   0.376   2.972   7.878 -0.2712  0.2591  0.5449
 4128TIP3    H133875   0.364   2.995   7.785  0.0393 -2.1454 -0.1455
 4128TIP3    H233876   0.345   3.049   7.925  0.3230  1.8939 -1.5479
 4129TIP3   OH233877   3.210   0.396  40.744 -0.2872 -0.2995 -0.4015
 4129TIP3    H133878   3.180   0.423  40.831  0.1070  0.5648 -0.5211
 4129TIP3    H233879   3.150   0.439  40.683 -0.3911 -0.6744 -0.5663
 4130TIP3   OH233880   1.915   4.101  45.711 -0.3658 -0.1580  0.4708
 4130TIP3    H133881   1.990   4.103  45.652 -0.0323 -1.9623  0.7888
 4130TIP3    H233882   1.946   4.141  45.792  0.0868 -0.4176  0.4244
 4131TIP3   OH233883   0.164   1.189   1.121 -1.1693  0.1428 -0.0583
 4131TIP3    H133884   0.141   1.113   1.068  0.3239 -1.5794  1.6353
 4131TIP3    H233885   0.260   1.191   1.121 -1.1391  0.7369  1.6223
 4132TIP3   OH233886   3.866   1.828   7.069  0.0358  0.5601  0.6480
 4132TIP3    H133887   3.893   1.768   7.000  0.0749 -0.0832  1.2126
 4132TIP3    H233888   3.794   1.879   7.031 -1.0590 -0.9230  0.6625
 4133TIP3   OH233889   0.622   2.998  13.993 -0.0907  0.2402  0.0453
 4133TIP3    H133890   0.628   2.918  14.045 -0.4896 -0.5190 -1.0333
 4133TIP3    H233891   0.580   2.970  13.912  2.4466  0.9202 -1.6114
 4134TIP3   OH233892   2.179   3.989  42.080 -0.1581 -0.1150  0.4807
 4134TIP3    H133893   2.233   4.004  42.003  1.3512 -0.0086  1.5320
 4134TIP3    H233894   2.092   3.971  42.045  0.5515 -0.3208 -1.2528
 4135TIP3   OH233895   0.704   2.372   6.592  0.2418  0.4746  0.9445
 4135TIP3    H133896   0.630   2.323   6.629  0.0664  0.3777  0.4752
 4135TIP3    H233897   0.778   2.350   6.649  0.2672 -0.6926  0.5040
 4136TIP3   OH233898   3.479   2.352  13.048  0.4759  0.5186 -0.1136
 4136TIP3    H133899   3.542   2.381  13.114  1.0529  1.8783 -1.1993
 4136TIP3    H233900   3.403   2.322  13.098  2.0340 -1.4009  1.2383
 4137TIP3   OH233901   0.977   2.255   8.315 -0.5144  0.2442 -0.4693
 4137TIP3    H133902   0.935   2.200   8.381 -0.0429  0.1508 -0.2428
 4137TIP3    H233903   0.999   2.195   8.244 -1.0313  0.3466 -0.7211
 4138TIP3   OH233904   1.941   1.656  33.114  0.3103 -0.1286  0.3686
 4138TIP3    H133905   1.881   1.725  33.086  0.4157  0.5395  1.7006
 4138TIP3    H233906   2.028   1.697  33.107  0.4802 -0.5577 -0.0459
 4139TIP3   OH233907   3.360   2.549  31.223  0.6734  0.0052 -0.3077
 4139TIP3    H133908   3.273   2.511  31.231  0.6912  0.1774  1.0603
 4139TIP3    H233909   3.385   2.571  31.313  1.0680  2.3461 -0.9099
 4140TIP3   OH233910   3.067   1.159  41.146  0.0326  0.2034 -0.7926
 4140TIP3    H133911   3.057   1.250  41.173  0.4426  0.5407 -1.7527
 4140TIP3    H233912   3.052   1.109  41.226  1.0459  1.1583  0.0288
 4141TIP3   OH233913   1.921   2.312  11.159 -0.1948  0.7653  0.1017
 4141TIP3    H133914   1.965   2.298  11.243  0.3995 -2.3443 -0.6173
 4141TIP3    H233915   1.828   2.311  11.180 -0.0575 -0.1303  0.7273
 4142TIP3   OH233916   0.631   3.821   8.932  0.2273 -0.2951  0.4779
 4142TIP3    H133917   0.637   3.766   9.010  0.0309  0.7755  1.2725
 4142TIP3    H233918   0.539   3.850   8.931 -0.2269 -1.6061 -1.0937
 4143TIP3   OH233919   0.719   3.610  10.438 -0.1628 -0.2029  0.1012
 4143TIP3    H133920   0.722   3.621  10.533 -1.4256  1.3401 -0.0007
 4143TIP3    H233921   0.636   3.564  10.422  0.3542 -1.0463 -0.2273
 4144TIP3   OH233922   1.864   0.833   4.530  0.4986 -0.1889  0.6999
 4144TIP3    H133923   1.924   0.888   4.580  0.1690  1.4966 -0.6471
 4144TIP3    H233924   1.781   0.880   4.533  0.1896 -0.6222 -0.4610
 4145TIP3   OH233925   3.776   2.018  40.677  0.5280 -0.3483 -0.4313
 4145TIP3    H133926   3.801   1.933  40.640 -1.0647 -0.9052 -0.3179
 4145TIP3    H233927   3.692   2.001  40.719  0.0406  1.3528 -0.6596
 4146TIP3   OH233928   0.099   3.691   1.986  0.2923  0.3543  0.3558
 4146TIP3    H133929   0.151   3.623   2.029  0.7245  0.4940  0.0621
 4146TIP3    H233930   0.156   3.723   1.916 -0.1140  0.6532  0.1629
 4147TIP3   OH233931   0.065   0.669  15.020 -0.1921 -0.3550 -0.7751
 4147TIP3    H133932   0.146   0.629  14.990 -0.5733 -1.2419 -0.6356
 4147TIP3    H233933   0.092   0.725  15.093  0.3629 -0.2335 -1.0657
 4148TIP3   OH233934   2.392   1.530  10.996  0.1222  0.4173  0.0887
 4148TIP3    H133935   2.311   1.582  10.995 -1.3568 -1.7426  0.6864
 4148TIP3    H233936   2.438   1.555  10.916 -1.6166  0.9960 -0.7756
 4149TIP3   OH233937   1.864   0.600  14.874  0.1023 -0.1825 -0.1816
 4149TIP3    H133938   1.954   0.627  14.855  0.2886 -0.6987 -0.0435
 4149TIP3    H233939   1.826   0.578  14.789  0.0322  0.2610 -0.2654
 4150TIP3   OH233940   1.707   3.022   0.636  0.5692  0.2708  0.0513
 4150TIP3    H133941   1.700   2.987   0.547 -1.5976 -1.2983  0.7549
 4150TIP3    H233942   1.637   3.087   0.642 -0.2773 -0.6933  1.0201
 4151TIP3   OH233943   1.458   2.336  10.961 -0.4997  0.1016  0.0490
 4151TIP3    H133944   1.521   2.266  10.982  0.3020  0.5593 -0.7412
 4151TIP3    H233945   1.379   2.289  10.933 -0.5885 -0.4820  1.2305
 4152TIP3   OH233946   0.707   1.163   8.279  0.3423 -0.3278  0.1333
 4152TIP3    H133947   0.722   1.229   8.211  2.2924 -1.2062 -0.3396
 4152TIP3    H233948   0.674   1.087   8.232  1.0617 -0.7194  0.2600
 4153TIP3   OH233949   3.783   2.610   6.857 -0.1077 -0.1882  0.0140
 4153TIP3    H133950   3.852   2.549   6.834  1.0210  1.1367 -0.2657
 4153TIP3    H233951   3.792   2.624   6.951  0.0089 -0.0131 -0.0231
 4154TIP3   OH233952   1.499   3.452  12.062 -0.4524  0.5002  0.1683
 4154TIP3    H133953   1.556   3.421  11.992  0.5092 -0.1572  1.2203
 4154TIP3    H233954   1.417   3.475  12.017 -0.1546 -0.6814 -1.0566
 4155TIP3   OH233955   3.378   2.122   2.140  0.3481  0.3671 -0.2935
 4155TIP3    H133956   3.462   2.117   2.185 -0.2384  0.2482  0.8215
 4155TIP3    H233957   3.400   2.121   2.047  1.4437 -2.4938 -0.0987
 4156TIP3   OH233958   1.524   0.862   3.992  0.6226 -0.0505 -0.4383
 4156TIP3    H133959   1.465   0.862   4.067 -2.0160  0.6663 -2.3550
 4156TIP3    H233960   1.543   0.769   3.976 -1.9288 -0.5403 -1.0923
 4157TIP3   OH233961   3.466   1.514   1.645 -0.1025 -0.0737  0.1999
 4157TIP3    H133962   3.546   1.525   1.696  0.0494 -0.1936 -0.0121
 4157TIP3    H233963   3.453   1.599   1.602  2.1431 -1.1738 -3.0038
 4158TIP3   OH233964   2.310   3.629   6.170  0.3835  0.7048 -0.0195
 4158TIP3    H133965   2.237   3.650   6.228 -0.4246  0.7493 -1.0240
 4158TIP3    H233966   2.341   3.714   6.138 -0.8787  0.5993 -1.6615
 4159TIP3   OH233967   2.035   3.274   9.766 -0.1929 -0.3908 -0.1852
 4159TIP3    H133968   2.029   3.330   9.689 -0.5535 -1.6002 -1.0608
 4159TIP3    H233969   2.105   3.213   9.746 -1.3783 -1.7619 -0.2723
 4160TIP3   OH233970   2.789   0.224  43.596 -0.4227  0.6422  0.1652
 4160TIP3    H133971   2.729   0.168  43.547 -0.9162  0.4250  1.0014
 4160TIP3    H233972   2.857   0.247  43.533  0.4156 -1.7993  0.0850
 4161TIP3   OH233973   0.375   3.380  45.064  0.5047 -0.0419  0.1214
 4161TIP3    H133974   0.279   3.370  45.063  0.5919 -0.9161 -0.6145
 4161TIP3    H233975   0.394   3.418  45.150 -0.6117  1.3461 -0.2076
 4162TIP3   OH233976   1.813   1.696  44.167  0.1522  0.0394  0.5763
 4162TIP3    H133977   1.783   1.775  44.122  0.6366 -0.3808 -0.5236
 4162TIP3    H233978   1.754   1.687  44.242 -1.1886  0.3417 -0.4022
 4163TIP3   OH233979   4.000   3.573   2.971  0.0129 -0.0368  0.4201
 4163TIP3    H133980   4.014   3.480   2.991 -0.0821  0.3502  2.6288
 4163TIP3    H233981   3.908   3.578   2.946  0.3711 -0.7145 -1.1391
 4164TIP3   OH233982   0.587   0.523  25.284 -0.3852  0.0874 -0.0292
 4164TIP3    H133983   0.565   0.551  25.372  0.1008  3.2722 -0.7926
 4164TIP3    H233984   0.622   0.602  25.242  0.9041 -1.7037 -2.5839
 4165TIP3   OH233985   1.426   1.862   9.382 -0.2020 -0.0796  0.1526
 4165TIP3    H133986   1.348   1.918   9.381 -1.2978 -1.5148 -1.0792
 4165TIP3    H233987   1.500   1.922   9.375 -1.3373  1.2183 -1.6650
 4166TIP3   OH233988   2.669   3.444   6.012  0.0749 -0.5636  0.0012
 4166TIP3    H133989   2.751   3.492   6.023 -1.1957  1.6762  0.3201
 4166TIP3    H233990   2.645   3.417   6.101 -1.1230  1.7209  0.4628
 4167TIP3   OH233991   1.295   0.421  35.621  0.1189  0.0632  0.4104
 4167TIP3    H133992   1.350   0.464  35.687  0.2512  0.4097  0.0782
 4167TIP3    H233993   1.338   0.440  35.538 -0.5695  0.4467  0.1309
 4168TIP3   OH233994   3.743   3.968   3.033  0.5370 -0.0930  0.4390
 4168TIP3    H133995   3.744   3.878   2.999  0.1555 -0.1949  0.7020
 4168TIP3    H233996   3.651   3.986   3.052  0.3655  0.9179 -1.1095
 4169TIP3   OH233997   2.250   0.103   2.489 -0.2854 -0.4574 -0.0101
 4169TIP3    H133998   2.158   0.097   2.515 -0.5098 -0.3966 -0.7756
 4169TIP3    H233999   2.274   0.194   2.508 -0.2100 -0.6244  0.7315
 4170TIP3   OH234000   0.554   1.208  46.174 -0.3525 -0.3390  0.8071
 4170TIP3    H134001   0.544   1.232  46.266 -0.6407  0.5950  0.5422
 4170TIP3    H234002   0.621   1.140  46.174  0.8501  0.8065  1.5505
 4171TIP3   OH234003   3.463   1.528  13.369  0.4577 -0.3725 -0.2098
 4171TIP3    H134004   3.382   1.536  13.420  1.2447  1.9567  0.8174
 4171TIP3    H234005   3.473   1.434  13.356 -1.9575 -0.7941  0.3566
 4172TIP3   OH234006   0.519   2.304  40.100 -0.3148  0.2475 -0.2680
 4172TIP3    H134007   0.468   2.297  40.181  0.3342 -0.4097  0.0996
 4172TIP3    H234008   0.566   2.221  40.095  1.5185  1.2276 -0.0287
 4173TIP3   OH234009   2.115   3.280   2.155  0.6160 -0.4249  0.1147
 4173TIP3    H134010   2.200   3.264   2.114  0.9918 -0.7638  1.0024
 4173TIP3    H234011   2.136   3.316   2.242 -0.1709  0.7442 -0.1523
 4174TIP3   OH234012   1.654   2.053  45.431 -0.2755  0.3438 -0.0574
 4174TIP3    H134013   1.663   2.144  45.402 -3.0518  1.1394  1.2534
 4174TIP3    H234014   1.624   2.006  45.354  1.2893  0.4430 -0.7761
 4175TIP3   OH234015   1.665   1.454   5.072  0.5711 -0.2734 -0.7832
 4175TIP3    H134016   1.641   1.383   5.132 -0.6692 -0.2060 -1.1646
 4175TIP3    H234017   1.581   1.493   5.047  1.2019  1.0162 -0.9599
 4176TIP3   OH234018   3.469   0.271   7.560 -0.2724 -0.3594 -0.5717
 4176TIP3    H134019   3.506   0.220   7.488  2.1393  1.9044 -1.1082
 4176TIP3    H234020   3.407   0.331   7.518  1.5365  1.3380 -0.9693
 4177TIP3   OH234021   0.950   1.162   6.315 -0.7451 -0.1335 -0.4450
 4177TIP3    H134022   0.942   1.256   6.302 -0.2745 -0.1626 -1.0021
 4177TIP3    H234023   0.906   1.123   6.239 -0.2440 -0.3463 -0.6307
 4178TIP3   OH234024   3.975   1.540   7.011 -0.0400  0.0830  0.0540
 4178TIP3    H134025   3.883   1.532   7.035  0.4709 -0.8035  1.8846
 4178TIP3    H234026   4.023   1.527   7.093  1.6587  4.1876 -0.0546
 4179TIP3   OH234027   3.018   1.713  45.658  0.1324 -0.3829 -0.4792
 4179TIP3    H134028   2.938   1.760  45.636 -1.1064 -1.0820  2.1928
 4179TIP3    H234029   2.989   1.637  45.708  2.3829 -1.5181 -0.7651
 4180TIP3   OH234030   1.856   0.593  36.666  0.8159  0.4631 -0.6960
 4180TIP3    H134031   1.921   0.571  36.600  0.5216  0.9157 -1.1365
 4180TIP3    H234032   1.870   0.685  36.685 -0.1518  0.7509 -1.3192
 4181TIP3   OH234033   2.958   3.394  44.912 -0.2688 -0.2494 -0.6539
 4181TIP3    H134034   2.968   3.449  44.835  0.1851  1.9565  0.9156
 4181TIP3    H234035   3.040   3.345  44.918  2.2012  3.6740  1.4181
 4182TIP3   OH234036   2.271   3.302  45.598  0.4345 -0.4374 -0.1669
 4182TIP3    H134037   2.316   3.325  45.679  0.4114  0.5076 -0.4170
 4182TIP3    H234038   2.244   3.211  45.611  0.5475 -0.3407  0.8365
 4183TIP3   OH234039   3.044   1.458   5.707 -0.4254 -0.0025 -0.1664
 4183TIP3    H134040   3.139   1.468   5.717 -0.3445  2.0377 -2.2232
 4183TIP3    H234041   3.030   1.363   5.710  1.8845 -0.4703 -1.2662
 4184TIP3   OH234042   0.515   4.076  34.212 -0.1313 -0.3590 -0.7900
 4184TIP3    H134043   0.500   4.003  34.272  0.5622 -0.2104 -0.4350
 4184TIP3    H234044   0.591   4.050  34.160  1.4482  0.9897  0.7593
 4185TIP3   OH234045   3.847   1.871  44.009  0.1127  0.6453  0.3106
 4185TIP3    H134046   3.767   1.876  44.062 -1.2380 -0.9463 -1.4184
 4185TIP3    H234047   3.839   1.787  43.963  1.9802  1.2236 -1.1702
 4186TIP3   OH234048   2.308   2.673  10.124 -0.4667 -0.7563 -0.0933
 4186TIP3    H134049   2.272   2.599  10.076 -0.6634 -2.4571  2.4713
 4186TIP3    H234050   2.249   2.684  10.199  0.8638  0.4691  0.8323
 4187TIP3   OH234051   1.970   1.747  46.969 -0.2981  0.5514  0.0796
 4187TIP3    H134052   1.943   1.839  46.968  1.1127  1.0150 -1.8522
 4187TIP3    H234053   2.066   1.751  46.966 -0.2032 -1.0025  0.4362
 4188TIP3   OH234054   2.651   0.068   4.185  0.0748 -0.2917 -0.2715
 4188TIP3    H134055   2.720   0.129   4.212 -0.3019  0.7474 -1.5184
 4188TIP3    H234056   2.580   0.082   4.247 -0.5471  1.6179 -1.3239
 4189TIP3   OH234057   2.429   0.597   8.486 -0.0308 -0.6830  0.0455
 4189TIP3    H134058   2.498   0.538   8.514  1.5329  0.5499 -1.0051
 4189TIP3    H234059   2.432   0.595   8.390  0.6824  1.6519 -0.0665
 4190TIP3   OH234060   3.990   2.962   1.924  0.4588  0.1273 -0.2634
 4190TIP3    H134061   3.925   3.011   1.974 -2.1243 -3.0305 -0.2521
 4190TIP3    H234062   3.997   2.878   1.968  4.0676 -0.0214 -0.7837
 4191TIP3   OH234063   2.078   2.967  40.642  0.1896 -0.0275 -0.0321
 4191TIP3    H134064   1.990   2.934  40.626  0.1318 -0.2635  0.7403
 4191TIP3    H234065   2.119   2.901  40.697  0.9772 -0.0946 -0.6693
 4192TIP3   OH234066   0.012   3.308  34.193 -0.0245  0.1201 -0.1932
 4192TIP3    H134067  -0.030   3.352  34.267  1.6577  1.0080  0.2860
 4192TIP3    H234068  -0.008   3.362  34.117 -1.2118 -0.4445 -0.3142
 4193TIP3   OH234069   0.504   3.178  43.605 -0.1722  0.0898 -0.1663
 4193TIP3    H134070   0.598   3.168  43.590 -0.2559 -0.8275 -0.1567
 4193TIP3    H234071   0.465   3.165  43.519 -0.4260 -1.8164  0.1916
 4194TIP3   OH234072   0.297   1.624  38.796 -0.5436 -0.7933  0.1990
 4194TIP3    H134073   0.216   1.675  38.790 -0.0135  0.0055 -0.4294
 4194TIP3    H234074   0.281   1.563  38.868 -0.9369  0.7697  1.5162
 4195TIP3   OH234075   3.024   2.054   6.607  0.5461  0.0044  0.0716
 4195TIP3    H134076   3.028   2.149   6.592  0.8319 -0.1798 -1.1798
 4195TIP3    H234077   2.971   2.021   6.534  2.0853 -1.0042 -0.6443
 4196TIP3   OH234078   3.654   1.623   0.967 -0.6325 -0.2787 -0.9364
 4196TIP3    H134079   3.653   1.574   1.049 -2.1895  0.5139 -0.4385
 4196TIP3    H234080   3.744   1.656   0.959 -0.4016 -0.5521  0.3447
 4197TIP3   OH234081   0.191   4.101  32.613 -0.4403 -0.2569  0.3413
 4197TIP3    H134082   0.184   4.055  32.530  0.3807  2.1871 -1.1662
 4197TIP3    H234083   0.102   4.133  32.630 -0.5112 -0.3627  0.1698
 4198TIP3   OH234084   1.157   3.496  10.764 -0.2434  0.1694  0.4793
 4198TIP3    H134085   1.154   3.432  10.692  1.2377 -0.2062  0.7067
 4198TIP3    H234086   1.159   3.442  10.843  0.3910  0.5107  0.6969
 4199TIP3   OH234087   1.862   0.926  10.255  0.0195  0.1596 -0.0138
 4199TIP3    H134088   1.798   0.904  10.188 -0.4137 -0.8349  0.7109
 4199TIP3    H234089   1.817   0.912  10.338  1.3750 -1.2666  0.5291
 4200TIP3   OH234090   0.896   1.051  11.939 -0.1875  0.1490  0.3191
 4200TIP3    H134091   0.923   1.002  11.862 -2.6540  0.1966 -0.6911
 4200TIP3    H234092   0.818   1.100  11.910 -0.8101  0.6878  2.6590
 4201TIP3   OH234093   2.853   2.142  39.430  0.8907  0.1518  0.3969
 4201TIP3    H134094   2.784   2.127  39.365  2.5396  2.3890 -2.1056
 4201TIP3    H234095   2.838   2.232  39.460  1.0167 -0.3668  2.1197
 4202TIP3   OH234096   0.394   1.420  38.225 -0.1839  0.2398 -0.3685
 4202TIP3    H134097   0.430   1.489  38.169 -0.4454 -1.8556 -3.3024
 4202TIP3    H234098   0.323   1.381  38.174 -0.9166 -1.3879  1.7251
 4203TIP3   OH234099   3.291   2.759  12.707 -0.2662  0.7557  0.0639
 4203TIP3    H134100   3.332   2.688  12.756 -0.9482 -0.3065 -0.8510
 4203TIP3    H234101   3.335   2.838  12.738  0.9570 -0.1227  0.6500
 4204TIP3   OH234102   2.776   3.873  14.631 -0.3795 -0.9989  0.3426
 4204TIP3    H134103   2.689   3.903  14.661 -0.1227 -0.1377  0.2703
 4204TIP3    H234104   2.812   3.825  14.706  0.2196  1.0548  1.4609
 4205TIP3   OH234105   0.412   0.085   4.446 -0.7945 -0.5783  0.0174
 4205TIP3    H134106   0.468   0.157   4.473 -1.9634  0.1974  0.4345
 4205TIP3    H234107   0.332   0.095   4.498 -2.3027 -0.2324 -2.2501
 4206TIP3   OH234108   2.471   1.147  35.567  0.1910  0.2609  0.3788
 4206TIP3    H134109   2.442   1.105  35.486  0.5461  0.7459 -0.0061
 4206TIP3    H234110   2.558   1.181  35.547 -0.0904  1.1808  0.6752
 4207TIP3   OH234111   3.218   3.918  37.936  0.2662 -0.1278 -0.5823
 4207TIP3    H134112   3.165   3.912  37.857 -1.1910 -0.1986  0.3792
 4207TIP3    H234113   3.225   3.828  37.967  3.1380 -0.5254 -2.0428
 4208TIP3   OH234114   2.907   2.759  43.414 -0.3559  0.3846 -0.2754
 4208TIP3    H134115   2.883   2.685  43.358  0.3366 -0.8731  1.0140
 4208TIP3    H234116   2.845   2.754  43.487  0.8408 -0.0829  0.7477
 4209TIP3   OH234117   2.163   2.150  13.813  0.2917 -0.0570 -0.5991
 4209TIP3    H134118   2.191   2.174  13.901 -1.1270  1.9538 -0.6287
 4209TIP3    H234119   2.227   2.192  13.755 -0.6376  1.4600 -0.5741
 4210TIP3   OH234120   3.599   1.969  32.886  0.0314 -0.6131  0.2901
 4210TIP3    H134121   3.580   1.905  32.955 -0.7318  0.1945  0.8693
 4210TIP3    H234122   3.543   1.943  32.813  0.1670 -0.9463  0.3039
 4211TIP3   OH234123   3.844   2.277  37.667 -0.5288  0.0743  0.0919
 4211TIP3    H134124   3.834   2.183  37.683  1.6196 -0.1805  0.2825
 4211TIP3    H234125   3.939   2.291  37.669 -0.8289  2.3438  0.5712
 4212TIP3   OH234126   1.722   0.141  39.734 -0.1840 -0.2599  0.2510
 4212TIP3    H134127   1.717   0.096  39.819 -0.2333 -0.3622  0.1938
 4212TIP3    H234128   1.654   0.208  39.739  0.8407  0.7824  0.9147
 4213TIP3   OH234129   0.791   3.850  29.049 -0.2004 -1.1688 -0.4314
 4213TIP3    H134130   0.841   3.870  29.128 -0.1454 -2.9841  0.0412
 4213TIP3    H234131   0.845   3.884  28.977  0.3065 -0.5302  0.2376
 4214TIP3   OH234132   2.901   1.763  13.365 -0.3250  0.6581  0.3029
 4214TIP3    H134133   2.992   1.767  13.336 -0.2793 -1.9808 -0.1552
 4214TIP3    H234134   2.851   1.740  13.287 -0.7535 -2.2888  1.3247
 4215TIP3   OH234135   1.348   3.523  31.122 -0.3601  0.0012  0.6224
 4215TIP3    H134136   1.362   3.474  31.203  0.4537 -0.7043  0.0709
 4215TIP3    H234137   1.417   3.590  31.122 -1.4175  1.1401  1.3340
 4216TIP3   OH234138   3.636   2.910  44.414 -0.2349  0.1931 -0.5414
 4216TIP3    H134139   3.656   2.909  44.320 -0.5188 -1.0197 -0.6016
 4216TIP3    H234140   3.703   2.968  44.452  0.5048 -0.1033 -1.3529
 4217TIP3   OH234141   3.095   2.500  15.033 -0.1129 -0.0406  0.3609
 4217TIP3    H134142   3.072   2.424  15.086 -0.8241  0.4504  0.7835
 4217TIP3    H234143   3.015   2.520  14.984  0.4781 -0.3719 -0.7608
 4218TIP3   OH234144   3.348   2.439  10.305 -0.2281  0.2005  0.1905
 4218TIP3    H134145   3.334   2.502  10.235  0.7846 -0.5914 -0.7532
 4218TIP3    H234146   3.263   2.397  10.317 -0.4680  0.5066 -0.4082
 4219TIP3   OH234147   3.356   2.978  10.023 -0.2018  0.0966  0.7309
 4219TIP3    H134148   3.285   3.009  10.080 -0.1106 -1.7930  1.9581
 4219TIP3    H234149   3.435   2.986  10.076 -0.0004 -0.9827  0.6100
 4220TIP3   OH234150   0.760   1.809  36.566  0.3454  0.4514 -0.5288
 4220TIP3    H134151   0.674   1.829  36.602  0.4933  0.0854  0.0318
 4220TIP3    H234152   0.818   1.803  36.642  0.9747  1.1926 -0.9296
 4221TIP3   OH234153   0.608   4.027   8.405 -0.0210  0.4170 -0.1629
 4221TIP3    H134154   0.588   4.004   8.496 -0.8770  1.6101 -0.0279
 4221TIP3    H234155   0.538   3.985   8.354 -0.5391  1.1698 -0.0893
 4222TIP3   OH234156   2.057   1.858  31.483 -0.2086 -0.1140 -0.2306
 4222TIP3    H134157   1.986   1.912  31.449 -1.0211  0.7390  2.5374
 4222TIP3    H234158   2.021   1.769  31.483 -1.9885  0.4836  2.4889
 4223TIP3   OH234159   3.885   0.955   6.167  0.1991  0.1493  0.4353
 4223TIP3    H134160   3.865   1.047   6.184 -0.0394  0.5808 -1.8775
 4223TIP3    H234161   3.800   0.911   6.166  0.2042  0.1410  0.3271
 4224TIP3   OH234162   2.961   0.615  44.459  0.5912 -0.4580 -0.2205
 4224TIP3    H134163   2.947   0.605  44.365 -0.6048 -2.0067  0.0773
 4224TIP3    H234164   3.050   0.648  44.466 -0.1772  2.2744 -1.9718
 4225TIP3   OH234165   0.367   2.732   0.454  0.0067 -0.0504 -0.3049
 4225TIP3    H134166   0.401   2.783   0.381  0.6726  0.6923  0.4923
 4225TIP3    H234167   0.419   2.651   0.453 -0.5457 -0.4050 -1.1250
 4226TIP3   OH234168   1.907   4.009  36.784 -0.5472  0.3459 -0.2185
 4226TIP3    H134169   1.907   3.914  36.797  0.4325  0.1850 -1.1499
 4226TIP3    H234170   1.819   4.037  36.808 -0.6313 -0.6948  0.7586
 4227TIP3   OH234171   1.604   3.493  43.837 -0.1499  0.7908  0.5226
 4227TIP3    H134172   1.683   3.505  43.890  1.0097 -0.0436 -0.9500
 4227TIP3    H234173   1.611   3.561  43.770 -0.5576  0.5448  0.2329
 4228TIP3   OH234174   1.008   1.936   9.379  0.2171  0.3117  0.6728
 4228TIP3    H134175   0.958   1.932   9.460  0.9534 -1.1165  1.0947
 4228TIP3    H234176   0.942   1.949   9.311 -0.7169 -1.2246  1.2379
 4229TIP3   OH234177   3.580   0.146  44.758 -0.1679  0.1828  0.1396
 4229TIP3    H134178   3.668   0.182  44.765  0.5187 -1.2648 -0.6235
 4229TIP3    H234179   3.572   0.120  44.666 -1.4080  0.3497  0.1850
 4230TIP3   OH234180   3.274   0.783   7.007 -0.0242 -0.0802  0.5526
 4230TIP3    H134181   3.247   0.766   6.917  1.9480  1.2927 -0.3854
 4230TIP3    H234182   3.348   0.843   6.998  0.8974 -0.7302  3.0492
 4231TIP3   OH234183   1.598   1.103   0.543  0.3393 -0.1657 -0.4280
 4231TIP3    H134184   1.556   1.177   0.585  1.0939  0.2878 -0.4425
 4231TIP3    H234185   1.551   1.091   0.461 -1.5186 -1.4204  0.7544
 4232TIP3   OH234186   1.993   1.998  13.707 -0.2669 -0.1835 -0.1042
 4232TIP3    H134187   1.976   1.967  13.796  1.3240 -0.3898  0.1539
 4232TIP3    H234188   2.074   2.048  13.715 -0.8966  1.0532 -1.1769
 4233TIP3   OH234189   1.318   2.538   9.470 -0.7010  0.1202 -0.0252
 4233TIP3    H134190   1.231   2.552   9.432  0.1134  0.8146 -1.7476
 4233TIP3    H234191   1.366   2.618   9.450 -0.1189  0.4429  2.3684
 4234TIP3   OH234192   1.601   1.854  37.388  0.3127  0.1071 -0.0291
 4234TIP3    H134193   1.606   1.783  37.324 -1.9887 -0.1295 -0.0240
 4234TIP3    H234194   1.639   1.817  37.468 -0.1971 -0.8697 -0.2252
 4235TIP3   OH234195   1.206   1.865  33.478  0.2313  0.5589 -0.0350
 4235TIP3    H134196   1.248   1.842  33.396  0.2024 -0.5245  0.2440
 4235TIP3    H234197   1.245   1.949  33.502 -1.4971  2.1603 -2.3551
 4236TIP3   OH234198   2.242   1.401  11.238  0.3040 -0.0970 -0.0771
 4236TIP3    H134199   2.297   1.426  11.312 -0.3174  1.2046 -0.0413
 4236TIP3    H234200   2.287   1.436  11.161 -0.3610  0.8121 -0.0647
 4237TIP3   OH234201   1.530   1.615  34.586 -0.3528  0.0252  0.4293
 4237TIP3    H134202   1.518   1.547  34.520 -2.1114 -2.1871  2.8035
 4237TIP3    H234203   1.594   1.579  34.647  2.0861  2.4742 -0.4550
 4238TIP3   OH234204   1.537   0.487   9.038 -0.4281 -0.7168 -0.0789
 4238TIP3    H134205   1.562   0.450   8.953 -2.5207 -2.8760  0.1299
 4238TIP3    H234206   1.513   0.411   9.091 -2.0311  0.7432  1.4303
 4239TIP3   OH234207   2.665   2.221  46.826  0.5430 -0.4609  0.3783
 4239TIP3    H134208   2.707   2.229  46.911  1.7816  1.0951 -0.3263
 4239TIP3    H234209   2.738   2.214  46.764 -0.3228 -1.2462 -0.6052
 4240TIP3   OH234210   0.124   0.382   8.770 -0.3627 -0.2514  0.1862
 4240TIP3    H134211   0.215   0.358   8.757 -0.2638  0.1178  0.1822
 4240TIP3    H234212   0.119   0.474   8.742 -0.8328 -0.4019 -0.2517
 4241TIP3   OH234213   3.118   1.644  11.415 -0.4457  1.0250  0.2091
 4241TIP3    H134214   3.059   1.596  11.357  0.3934  0.5905 -0.2993
 4241TIP3    H234215   3.116   1.596  11.497  0.2452  0.2126 -0.2391
 4242TIP3   OH234216   1.169   3.585  14.808 -0.3209 -0.1105 -0.1016
 4242TIP3    H134217   1.150   3.679  14.810 -2.5778 -0.4144 -2.0401
 4242TIP3    H234218   1.259   3.579  14.775 -0.2896  1.3711 -0.3611
 4243TIP3   OH234219   2.320   2.286   9.072 -0.1336  0.1080  0.2142
 4243TIP3    H134220   2.360   2.294   9.159 -0.1146 -0.1845  0.2330
 4243TIP3    H234221   2.321   2.192   9.054  2.2041  0.3322 -1.2072
 4244TIP3   OH234222   2.820   2.917  31.469 -0.3864  0.4476 -0.4066
 4244TIP3    H134223   2.765   2.972  31.524 -0.9784  0.0885 -0.6259
 4244TIP3    H234224   2.884   2.879  31.530  0.3654  1.7656 -0.3386
 4245TIP3   OH234225   2.921   2.101  36.704  0.0220  0.0656 -0.1248
 4245TIP3    H134226   2.841   2.086  36.653 -0.5781  0.9957  0.4966
 4245TIP3    H234227   2.891   2.149  36.782  1.0872 -0.2187  0.4834
 4246TIP3   OH234228   2.310   0.197   6.461  0.7466  0.4709  0.0019
 4246TIP3    H134229   2.390   0.208   6.512  0.8339  1.1040 -0.2580
 4246TIP3    H234230   2.340   0.175   6.373  0.5710 -2.2779  0.5486
 4247TIP3   OH234231   3.789   0.825  13.289  0.1477 -0.9293 -0.0847
 4247TIP3    H134232   3.860   0.773  13.251 -0.6009 -1.2255 -1.1094
 4247TIP3    H234233   3.710   0.792  13.247 -0.5915 -0.5174  0.9583
 4248TIP3   OH234234   3.939   3.469  41.055  0.1795  0.5131  0.4373
 4248TIP3    H134235   3.913   3.421  40.976 -0.8722  0.3049  0.9112
 4248TIP3    H234236   3.946   3.402  41.123  1.4203  0.6428  0.4654
 4249TIP3   OH234237   3.854   3.141  11.077 -1.1316  0.3084  0.2858
 4249TIP3    H134238   3.892   3.066  11.032 -3.0279 -0.0330 -0.8481
 4249TIP3    H234239   3.826   3.106  11.162  1.7272  0.7726  1.5347
 4250TIP3   OH234240   3.745   3.030   3.205  0.7539 -0.1250  0.1492
 4250TIP3    H134241   3.761   2.983   3.123 -0.5363  0.6120 -0.5571
 4250TIP3    H234242   3.770   3.120   3.187 -1.5108  0.5037 -0.1614
 4251TIP3   OH234243   1.468   3.879   6.670 -0.7524 -0.3715 -0.5091
 4251TIP3    H134244   1.504   3.968   6.674 -1.2841 -0.1822  0.7760
 4251TIP3    H234245   1.373   3.892   6.664 -1.0446 -0.7763  1.9453
 4252TIP3   OH234246   1.672   0.172  31.743  0.3522  0.0291  0.2274
 4252TIP3    H134247   1.609   0.111  31.782 -0.2525  0.9874  0.7840
 4252TIP3    H234248   1.626   0.208  31.667 -0.8850  2.7237  2.1207
 4253TIP3   OH234249   0.928   1.186  17.080 -0.2095  0.0928  0.8673
 4253TIP3    H134250   0.861   1.251  17.060  0.9745  0.4829 -2.5752
 4253TIP3    H234251   1.008   1.237  17.091  0.0752 -0.5727  2.0304
 4254TIP3   OH234252   1.338   0.705   6.198 -0.2634 -0.4862 -0.1787
 4254TIP3    H134253   1.342   0.755   6.280 -1.1065  0.1317 -0.5024
 4254TIP3    H234254   1.428   0.706   6.165 -0.1734  0.4266  0.0641
 4255TIP3   OH234255   1.963   3.083  35.301  0.2029 -0.6894 -0.0227
 4255TIP3    H134256   2.024   3.020  35.264  0.8501 -0.5419  0.7601
 4255TIP3    H234257   2.019   3.153  35.335 -0.4431 -0.2253  0.1093
 4256TIP3   OH234258   1.143   1.740  36.112 -0.3951  0.1132 -0.3196
 4256TIP3    H134259   1.053   1.749  36.144 -0.0950 -0.1269  0.6293
 4256TIP3    H234260   1.166   1.828  36.081 -0.5956  0.4487  0.4411
 4257TIP3   OH234261   1.505   0.742  32.468  0.2771 -0.6109  0.2092
 4257TIP3    H134262   1.500   0.742  32.564 -1.5684 -0.3348  0.1471
 4257TIP3    H234263   1.447   0.813  32.441  2.7009  1.0059 -1.0881
 4258TIP3   OH234264   0.937   0.151   6.325 -0.2075 -0.0581 -1.2330
 4258TIP3    H134265   0.994   0.076   6.341 -1.8609 -1.2186 -0.4683
 4258TIP3    H234266   0.860   0.113   6.282 -1.9678  0.8040  0.9569
 4259TIP3   OH234267   2.294   3.466  26.909  0.1329 -0.5108  0.0183
 4259TIP3    H134268   2.370   3.413  26.935 -0.2564 -1.1146 -0.0522
 4259TIP3    H234269   2.300   3.545  26.963 -1.5772 -2.4154  3.3476
 4260TIP3   OH234270   0.078   0.097  11.456 -0.1201  0.1419 -0.2119
 4260TIP3    H134271  -0.011   0.063  11.465  0.8725 -2.0983  2.2065
 4260TIP3    H234272   0.133   0.037  11.506  2.2910  3.5207  1.6605
 4261TIP3   OH234273   1.539   2.287  13.307 -0.0769 -0.5555  0.1676
 4261TIP3    H134274   1.572   2.305  13.395  1.0052  0.3786 -0.4021
 4261TIP3    H234275   1.600   2.221  13.272 -0.7163 -1.1969  0.2319
 4262TIP3   OH234276   2.417   1.281   8.107  0.4395 -0.1536 -0.3331
 4262TIP3    H134277   2.512   1.281   8.102  0.5646  0.2592  1.3704
 4262TIP3    H234278   2.392   1.374   8.103  0.2502 -0.1382  0.7406
 4263TIP3   OH234279   0.588   0.028  14.829 -0.0737 -0.2035  0.4272
 4263TIP3    H134280   0.520   0.007  14.893 -1.0807  0.9702 -0.2224
 4263TIP3    H234281   0.628  -0.057  14.809  0.2449 -0.6085  2.5496
 4264TIP3   OH234282   2.997   0.461  42.408 -0.3661  0.1964  0.3753
 4264TIP3    H134283   2.949   0.422  42.482  1.0997 -1.6538  0.4327
 4264TIP3    H234284   2.965   0.413  42.332  2.4868 -2.3838  0.6065
 4265TIP3   OH234285   3.445   1.111  42.250  0.4078 -0.0860  0.2355
 4265TIP3    H134286   3.379   1.180  42.241 -0.3136 -0.8178 -0.2803
 4265TIP3    H234287   3.506   1.144  42.316  0.4422  1.3063 -0.4700
 4266TIP3   OH234288   1.075   2.270  42.833 -0.1840 -0.2638 -0.3219
 4266TIP3    H134289   1.152   2.273  42.890 -0.2176  0.3165 -0.3093
 4266TIP3    H234290   1.058   2.176  42.822 -0.4981 -0.3774  1.0418
 4267TIP3   OH234291   2.377   1.905  20.427  0.1007 -0.3158 -0.5518
 4267TIP3    H134292   2.323   1.967  20.378 -0.5453  0.2048  0.7633
 4267TIP3    H234293   2.369   1.823  20.379  1.0169  0.6095 -2.3544
 4268TIP3   OH234294   0.828   2.978  41.197  0.6338 -0.3455 -0.3224
 4268TIP3    H134295   0.849   3.067  41.169 -0.6955  0.3813  0.8501
 4268TIP3    H234296   0.796   2.988  41.287  3.4253 -2.4012  1.0254
 4269TIP3   OH234297   2.113   3.757  27.669 -0.1518 -0.2577 -0.6223
 4269TIP3    H134298   2.032   3.716  27.639 -1.5477  0.6384  1.6620
 4269TIP3    H234299   2.111   3.845  27.631  0.2454 -0.5362 -1.3107
 4270TIP3   OH234300   3.898   1.775  42.717 -0.3784 -0.1526 -0.1042
 4270TIP3    H134301   3.850   1.732  42.788 -0.4509 -1.2818 -0.8095
 4270TIP3    H234302   3.830   1.804  42.656 -0.2598 -0.0630 -0.1963
 4271TIP3   OH234303   3.004   2.288  15.210  0.0299  0.6141 -0.1833
 4271TIP3    H134304   2.932   2.226  15.220  1.2471 -0.9947 -0.9394
 4271TIP3    H234305   3.014   2.328  15.296  0.9002 -2.2165  1.1244
 4272TIP3   OH234306   3.304   2.017   4.940 -0.2827  0.2180  0.2390
 4272TIP3    H134307   3.250   2.073   4.996 -0.0314  0.2037  0.5005
 4272TIP3    H234308   3.270   1.929   4.954 -0.1946  0.2096  0.3996
 4273TIP3   OH234309   2.579   3.863  15.136 -0.0650 -0.2863  0.1646
 4273TIP3    H134310   2.497   3.822  15.111 -0.2560  0.2682 -0.1073
 4273TIP3    H234311   2.604   3.917  15.062 -0.5194  1.1847  1.0437
 4274TIP3   OH234312   0.027   1.123  45.606 -0.4792  0.2129  0.6851
 4274TIP3    H134313   0.046   1.158  45.518 -3.0397  0.7980  0.2641
 4274TIP3    H234314   0.101   1.066  45.626 -0.0952 -0.4392 -2.1388
 4275TIP3   OH234315   3.964   3.582  37.709 -0.2533  0.0376 -0.1800
 4275TIP3    H134316   4.056   3.556  37.705  0.3779  1.8113  1.4819
 4275TIP3    H234317   3.948   3.626  37.625 -0.1653 -1.8746 -1.2500
 4276TIP3   OH234318   3.121   1.442  18.633 -0.2977 -0.6202 -0.0378
 4276TIP3    H134319   3.172   1.362  18.620 -0.4633 -0.7044 -0.1640
 4276TIP3    H234320   3.186   1.508  18.660 -0.2449 -0.9489  0.6561
 4277TIP3   OH234321   0.172   0.996  33.006 -0.2238 -0.1168  0.1569
 4277TIP3    H134322   0.206   0.912  32.975 -0.2320  0.9132 -2.8768
 4277TIP3    H234323   0.126   0.974  33.087  1.4400 -2.6964  0.5240
 4278TIP3   OH234324   3.643   3.388  13.823 -0.6478  0.6602 -0.1524
 4278TIP3    H134325   3.580   3.393  13.751  0.9639  2.0029 -1.5356
 4278TIP3    H234326   3.728   3.377  13.780  0.2996  0.8415  1.5866
 4279TIP3   OH234327   1.044   2.456  10.955 -0.3095  0.3771  0.6996
 4279TIP3    H134328   1.044   2.482  11.048 -0.1676  0.3204  0.7162
 4279TIP3    H234329   1.098   2.377  10.953 -0.4505  0.2836  0.5945
 4280TIP3   OH234330   2.266   0.976  45.471 -0.3993  0.6761 -0.1374
 4280TIP3    H134331   2.284   1.006  45.381 -0.2477 -0.3011 -0.4417
 4280TIP3    H234332   2.262   0.881  45.464 -0.1836  0.5791  0.9383
 4281TIP3   OH234333   0.206   3.580  44.386 -0.1074 -0.2190 -0.0303
 4281TIP3    H134334   0.114   3.607  44.378  0.0468  0.6297  0.8648
 4281TIP3    H234335   0.206   3.519  44.459  0.0364 -0.2064 -0.0212
 4282TIP3   OH234336   0.560   1.938  34.734 -0.0152 -0.1286  0.2716
 4282TIP3    H134337   0.572   1.913  34.826 -0.6849 -1.3232  0.0574
 4282TIP3    H234338   0.602   2.024  34.727  0.0245 -0.0015  1.7018
 4283TIP3   OH234339   1.914   0.530  10.524  0.1527 -0.4184  0.5392
 4283TIP3    H134340   1.982   0.493  10.581  1.7300 -2.2545 -2.3355
 4283TIP3    H234341   1.835   0.482  10.547  0.9820 -1.8540  0.5153
 4284TIP3   OH234342   3.208   3.149   5.958  0.2922 -0.0672  0.7058
 4284TIP3    H134343   3.253   3.233   5.965 -0.2608  0.3842 -0.8472
 4284TIP3    H234344   3.152   3.158   5.881 -1.2563 -1.1762  1.6388
 4285TIP3   OH234345   0.292   0.280  30.919  0.2345 -0.7530 -0.1873
 4285TIP3    H134346   0.312   0.208  30.859 -0.5200 -0.2645 -1.0532
 4285TIP3    H234347   0.278   0.237  31.003 -1.0705 -1.7449 -0.8656
 4286TIP3   OH234348   2.540   1.180  13.680 -0.1590 -0.6230  0.1309
 4286TIP3    H134349   2.599   1.173  13.605 -2.1226  1.2758 -1.7169
 4286TIP3    H234350   2.453   1.167  13.644 -1.1382 -0.0579  2.1524
 4287TIP3   OH234351   3.639   1.589  34.913 -0.1077  0.6063  0.0844
 4287TIP3    H134352   3.720   1.575  34.962  0.3837 -3.1784 -1.3678
 4287TIP3    H234353   3.667   1.634  34.833  0.4661  0.0396 -0.0434
 4288TIP3   OH234354   3.889   1.691  13.857  0.1654  0.5009 -0.2148
 4288TIP3    H134355   3.844   1.618  13.901  0.8969 -0.0798 -0.4095
 4288TIP3    H234356   3.868   1.680  13.765  2.0760 -0.8321 -0.5647
 4289TIP3   OH234357   3.022   4.020   9.036 -0.4302  0.1192 -0.2882
 4289TIP3    H134358   3.081   4.000   8.963 -0.1361 -0.6481  0.1470
 4289TIP3    H234359   2.945   4.059   8.995 -0.3249 -0.4292 -1.0187
 4290TIP3   OH234360   0.407   3.599  34.827 -0.9676 -0.0982 -0.1163
 4290TIP3    H134361   0.457   3.521  34.850  0.8530  0.1877 -2.6863
 4290TIP3    H234362   0.425   3.661  34.898  0.7526 -0.6914 -0.0056
 4291TIP3   OH234363   2.255   0.872  16.530  0.0097  0.0735 -0.0613
 4291TIP3    H134364   2.339   0.905  16.561 -1.0663  1.2812  1.7041
 4291TIP3    H234365   2.202   0.950  16.517 -1.5066 -0.7477  0.9016
 4292TIP3   OH234366   2.262   1.374  17.749  0.2359  0.0635  0.2569
 4292TIP3    H134367   2.311   1.454  17.765  0.0782 -0.1967  2.3143
 4292TIP3    H234368   2.297   1.311  17.812 -1.3683 -0.7147  0.4391
 4293TIP3   OH234369   2.737   1.119  43.159 -0.4456  0.1583  0.5392
 4293TIP3    H134370   2.716   1.032  43.194  0.0302  0.0796  0.6428
 4293TIP3    H234371   2.655   1.150  43.120 -0.2527 -0.9584 -0.8345
 4294TIP3   OH234372   2.707   3.478  37.721 -0.2863  0.5253 -0.4324
 4294TIP3    H134373   2.729   3.394  37.681 -0.0056  0.5794 -0.3970
 4294TIP3    H234374   2.711   3.461  37.815 -0.1246  0.6051 -0.4259
 4295TIP3   OH234375   3.987   0.240  32.110 -0.1353 -0.0214 -0.5956
 4295TIP3    H134376   3.926   0.231  32.183 -1.1901 -0.7489 -1.5387
 4295TIP3    H234377   4.073   0.223  32.149 -0.7871 -1.5628  0.2741
 4296TIP3   OH234378   1.605   0.199   8.685  0.0761  0.5170 -0.3129
 4296TIP3    H134379   1.694   0.176   8.711  0.3502  0.7131 -1.0672
 4296TIP3    H234380   1.594   0.164   8.597  0.0201  1.9787 -0.9244
 4297TIP3   OH234381   2.192   2.588  45.714 -0.5616 -0.2905 -0.1924
 4297TIP3    H134382   2.244   2.621  45.788 -2.6569 -1.0654  1.7664
 4297TIP3    H234383   2.247   2.521  45.673  1.3676  1.3842 -0.5271
 4298TIP3   OH234384   0.362   2.203  45.616  0.0051 -0.4496 -0.1757
 4298TIP3    H134385   0.319   2.128  45.657 -2.1873 -0.6622 -2.5996
 4298TIP3    H234386   0.342   2.277  45.673 -2.8044 -0.7521 -0.6398
 4299TIP3   OH234387   1.682   1.816  18.781  0.4266 -0.0670 -0.6832
 4299TIP3    H134388   1.598   1.812  18.827  0.3726  0.7002 -0.6914
 4299TIP3    H234389   1.682   1.739  18.725 -0.7296  0.4225 -1.4119
 4300TIP3   OH234390   3.786   0.525  11.353 -0.4721 -0.0221  0.5115
 4300TIP3    H134391   3.839   0.605  11.346 -1.0129  0.3391  0.3939
 4300TIP3    H234392   3.836   0.468  11.411  1.2911 -0.7286 -1.5761
 4301TIP3   OH234393   0.481   2.363  35.928  0.2480  0.0254 -0.3056
 4301TIP3    H134394   0.523   2.286  35.965 -3.6954 -2.1150  0.3181
 4301TIP3    H234395   0.518   2.369  35.839  1.9117 -1.5066  0.2089
 4302TIP3   OH234396   3.268   3.701  43.063  0.1561 -0.6461  0.0644
 4302TIP3    H134397   3.297   3.654  42.985  1.4654 -1.0592  0.7769
 4302TIP3    H234398   3.294   3.792  43.047 -1.7836 -0.2310 -1.0259
 4303TIP3   OH234399   2.344   3.170  46.636 -0.1080  0.2161  0.2684
 4303TIP3    H134400   2.404   3.244  46.652 -1.1272  0.8574  1.2605
 4303TIP3    H234401   2.340   3.124  46.720 -1.2881  0.4022  0.3249
 4304TIP3   OH234402   0.459   3.889  44.440 -0.6918 -0.2424  0.5131
 4304TIP3    H134403   0.441   3.830  44.367 -1.3936 -0.6993  1.0470
 4304TIP3    H234404   0.519   3.840  44.496 -1.8615 -0.7817  1.3410
 4305TIP3   OH234405   1.110   2.043  11.334 -0.1849  0.5519  0.7120
 4305TIP3    H134406   1.065   2.030  11.251 -0.7795 -0.9566  1.2394
 4305TIP3    H234407   1.057   2.107  11.381 -0.1475  0.9865  0.1804
 4306TIP3   OH234408   2.191   1.139  15.204  0.6665  0.1163 -0.7273
 4306TIP3    H134409   2.180   1.074  15.135  0.2513  0.1676 -0.7096
 4306TIP3    H234410   2.103   1.170  15.222  0.8952  0.9583 -1.0055
 4307TIP3   OH234411   3.636   1.365  44.891 -0.4611  0.6123 -0.1314
 4307TIP3    H134412   3.723   1.332  44.915 -0.8360  0.0015  0.4360
 4307TIP3    H234413   3.619   1.434  44.955 -0.5775  0.4184  0.0518
 4308TIP3   OH234414   2.545   2.862   3.189 -0.4835  0.1591  0.1203
 4308TIP3    H134415   2.634   2.855   3.224  0.3138  1.1835 -1.5890
 4308TIP3    H234416   2.555   2.908   3.106 -2.5401 -0.3428 -0.4712
 4309TIP3   OH234417   3.614   3.556   7.832 -0.4746  0.0574  0.0687
 4309TIP3    H134418   3.540   3.589   7.882  0.0011 -0.3232  1.0454
 4309TIP3    H234419   3.618   3.613   7.754 -0.8482  1.0570  0.7640
 4310TIP3   OH234420   0.235   2.299   7.870 -0.0160 -0.0035 -0.2943
 4310TIP3    H134421   0.248   2.263   7.958 -0.6894 -0.4139 -0.3518
 4310TIP3    H234422   0.270   2.388   7.875  0.9198 -0.3843  0.0849
 4311TIP3   OH234423   3.580   3.693   2.577 -0.0126  0.2831 -0.1662
 4311TIP3    H134424   3.591   3.724   2.487  2.3685 -0.8373 -0.3206
 4311TIP3    H234425   3.628   3.756   2.631 -1.9154  1.2831  0.4614
 4312TIP3   OH234426   2.920   1.426  17.680  0.0280 -0.6423 -0.2158
 4312TIP3    H134427   2.957   1.339  17.695 -0.6987 -0.8614  0.3911
 4312TIP3    H234428   2.828   1.410  17.658 -0.0602 -0.0374 -0.3185
 4313TIP3   OH234429   0.015   0.410  34.116 -0.0376 -0.3769 -0.2355
 4313TIP3    H134430   0.106   0.428  34.091  0.1626 -0.2788  0.5466
 4313TIP3    H234431   0.020   0.376  34.205 -0.9620  2.1818  0.8744
 4314TIP3   OH234432   0.372   1.203   7.100 -0.4417  0.4272 -0.4095
 4314TIP3    H134433   0.411   1.286   7.071  2.2540 -0.4948  0.2746
 4314TIP3    H234434   0.355   1.217   7.193  0.5173  0.0849 -0.1684
 4315TIP3   OH234435   2.354   1.165   2.581  0.2197 -0.4360  0.1787
 4315TIP3    H134436   2.446   1.190   2.580 -0.2705  1.4795  0.0563
 4315TIP3    H234437   2.333   1.156   2.674  0.3664 -0.1997  0.2369
 4316TIP3   OH234438   1.716   1.410  38.170  0.5449 -0.4177 -0.2344
 4316TIP3    H134439   1.763   1.327  38.164  2.4554  0.6587 -1.2794
 4316TIP3    H234440   1.674   1.408  38.256  1.4823 -1.9996  0.2283
 4317TIP3   OH234441   3.292   3.170   9.185 -0.0193  0.2605 -0.1944
 4317TIP3    H134442   3.230   3.137   9.120  0.4473  1.1680 -1.1239
 4317TIP3    H234443   3.277   3.115   9.262 -1.0878 -0.3628 -0.8194
 4318TIP3   OH234444   1.083   2.278  32.269 -0.0086 -0.0912  0.0453
 4318TIP3    H134445   1.058   2.306  32.181 -1.0184  0.7704  0.5835
 4318TIP3    H234446   1.043   2.192  32.280 -0.9914  0.3537  0.1077
 4319TIP3   OH234447   2.838   0.953  32.576 -0.3251 -0.5214 -0.5152
 4319TIP3    H134448   2.875   1.035  32.544 -1.0993  0.2414  0.4987
 4319TIP3    H234449   2.802   0.911  32.498 -0.5444  0.4240 -0.9379
 4320TIP3   OH234450   0.841   1.907   5.472 -0.2665  0.2858 -0.3282
 4320TIP3    H134451   0.860   1.813   5.471 -1.0229  0.0969  0.8249
 4320TIP3    H234452   0.793   1.922   5.391  2.6725  0.3596 -2.1783
 4321TIP3   OH234453   2.753   1.597  18.973  0.0276  0.6682 -0.1450
 4321TIP3    H134454   2.688   1.647  19.021 -0.9608  1.5260 -2.2660
 4321TIP3    H234455   2.827   1.657  18.962  0.0656  0.6302 -0.0987
 4322TIP3   OH234456   3.140   2.117   5.167  0.4277  0.3059 -0.3532
 4322TIP3    H134457   3.120   2.134   5.259 -0.6461  1.9950 -0.8423
 4322TIP3    H234458   3.146   2.205   5.128 -1.6194 -0.3522 -2.3539
 4323TIP3   OH234459   2.019   2.302   0.443  0.0429  0.1320  0.2502
 4323TIP3    H134460   2.052   2.389   0.462 -2.3227  0.9944  0.6976
 4323TIP3    H234461   1.993   2.267   0.528 -1.1661 -0.0468 -0.1638
 4324TIP3   OH234462   1.899   3.382  29.447 -0.1472 -0.3036 -0.6502
 4324TIP3    H134463   1.875   3.366  29.356 -2.8241 -2.7884  0.3458
 4324TIP3    H234464   1.945   3.302  29.474 -1.8217 -0.8247  0.8549
 4325TIP3   OH234465   4.083   2.932   0.598  0.4055 -0.7433 -0.6679
 4325TIP3    H134466   4.110   3.016   0.559 -0.4859  0.4058  1.0604
 4325TIP3    H234467   4.159   2.901   0.646  0.4753 -0.4791 -0.6078
 4326TIP3   OH234468   4.068   3.564  25.259 -0.6792 -0.0819  0.2297
 4326TIP3    H134469   4.003   3.495  25.246 -1.7951  1.2955 -2.0380
 4326TIP3    H234470   4.134   3.548  25.192  0.3887 -0.3567  1.3064
 4327TIP3   OH234471   1.068   0.403  29.959  0.5358 -0.6477  0.3428
 4327TIP3    H134472   1.159   0.381  29.938  0.9060  0.5184  0.6578
 4327TIP3    H234473   1.018   0.373  29.882  1.4365  0.4448 -0.7108
 4328TIP3   OH234474   1.392   0.545  11.605  0.0010 -0.3781  0.5543
 4328TIP3    H134475   1.336   0.528  11.530 -0.2286  0.6813  0.4803
 4328TIP3    H234476   1.429   0.459  11.627  0.6219 -0.5998 -1.1980
 4329TIP3   OH234477   0.756   0.397  47.178 -0.6225  0.6245  0.7085
 4329TIP3    H134478   0.784   0.359  47.095  2.0801 -0.8139  2.1142
 4329TIP3    H234479   0.675   0.443  47.158 -2.0984 -2.7208 -1.9553
 4330TIP3   OH234480   0.556   0.134   5.277  0.4217 -0.4579 -0.3430
 4330TIP3    H134481   0.497   0.209   5.280 -0.2348 -0.9951  1.0442
 4330TIP3    H234482   0.635   0.163   5.322  0.7782 -0.1238 -1.1591
 4331TIP3   OH234483   1.444   2.792  14.381  0.1565  0.5649  0.8508
 4331TIP3    H134484   1.413   2.850  14.311 -0.6883 -0.2074  0.5701
 4331TIP3    H234485   1.538   2.787  14.368  0.1828  1.4650  0.5693
 4332TIP3   OH234486   3.700   0.356  12.357 -0.0803  0.3106 -0.1545
 4332TIP3    H134487   3.706   0.310  12.274 -0.3327 -1.2762  0.6569
 4332TIP3    H234488   3.790   0.358  12.390 -0.0324  0.6245 -0.3027
 4333TIP3   OH234489   0.650   2.736   1.415 -0.0451 -0.7023  0.6071
 4333TIP3    H134490   0.561   2.703   1.405 -0.7521  0.3534  2.7313
 4333TIP3    H234491   0.644   2.828   1.389  0.2113 -0.4337  1.4503
 4334TIP3   OH234492   0.149   2.940  44.009 -0.0091  0.0949 -0.1308
 4334TIP3    H134493   0.133   3.021  43.962 -1.2909  0.0381  0.1759
 4334TIP3    H234494   0.161   2.874  43.940 -0.5003  0.2605 -0.3739
 4335TIP3   OH234495   2.509   3.861  37.850  0.7877 -0.3080 -0.4400
 4335TIP3    H134496   2.587   3.809  37.869  0.9481  0.1984  0.3457
 4335TIP3    H234497   2.526   3.945  37.892 -0.0459 -0.0901 -0.5272
 4336TIP3   OH234498   0.784   0.417  28.895  0.0232  0.0535  0.0254
 4336TIP3    H134499   0.848   0.368  28.946 -2.3149 -3.6428 -0.2575
 4336TIP3    H234500   0.701   0.371  28.909 -2.0869  2.9293 -1.7883
 4337TIP3   OH234501   0.478   3.328   4.289  0.5958 -0.0636 -0.5000
 4337TIP3    H134502   0.470   3.372   4.204  2.8190  1.6227  0.0638
 4337TIP3    H234503   0.531   3.250   4.271 -0.1559 -0.4997 -0.8734
 4338TIP3   OH234504   2.422   2.176   5.842  0.1955  0.1810  0.1551
 4338TIP3    H134505   2.385   2.204   5.759  0.2763  0.1388  0.1042
 4338TIP3    H234506   2.367   2.102   5.869  0.4754 -0.1280 -0.1096
 4339TIP3   OH234507   3.444   1.986  13.256 -0.1778 -0.2060  1.0434
 4339TIP3    H134508   3.440   1.912  13.317  1.9287 -0.7648  0.5913
 4339TIP3    H234509   3.536   1.989  13.228 -0.1792  2.6005  1.0560
 4340TIP3   OH234510   2.185   1.377   0.113 -0.0589  0.0251  0.0986
 4340TIP3    H134511   2.117   1.363   0.179  0.3551 -0.5384  0.4191
 4340TIP3    H234512   2.241   1.299   0.120  1.2436  0.9731  0.5922
 4341TIP3   OH234513   2.182   1.106   4.076  0.1464  0.2776  0.0320
 4341TIP3    H134514   2.213   1.068   3.994 -0.6295  1.6655 -0.9574
 4341TIP3    H234515   2.096   1.142   4.055  0.3682  1.5717  1.1740
 4342TIP3   OH234516   0.664   3.324  27.917 -0.6598 -0.6579  0.0903
 4342TIP3    H134517   0.679   3.390  27.849  0.0106 -1.2395 -0.3469
 4342TIP3    H234518   0.590   3.272  27.883  0.6402 -1.9132 -0.9951
 4343TIP3   OH234519   1.293   1.934  36.793  0.0412 -0.1689 -0.2391
 4343TIP3    H134520   1.217   1.889  36.757  0.2807  0.7142 -2.0061
 4343TIP3    H234521   1.341   1.964  36.715  2.1373 -0.5939  0.8218
 4344TIP3   OH234522   3.494   0.546  38.984 -0.0850  0.0234 -0.8286
 4344TIP3    H134523   3.458   0.519  38.899 -0.3291  0.9067 -1.0178
 4344TIP3    H234524   3.424   0.525  39.047 -0.4587  0.6208 -1.0352
 4345TIP3   OH234525   2.297   0.422  46.169  0.8543 -0.0941 -0.0467
 4345TIP3    H134526   2.320   0.496  46.114  0.5767  0.8271  1.0396
 4345TIP3    H234527   2.345   0.348  46.132  1.2385  0.6531 -1.0661
 4346TIP3   OH234528   1.837   1.730  37.876 -0.0300 -0.1344 -0.4797
 4346TIP3    H134529   1.843   1.825  37.862  1.5345 -0.1246  0.0697
 4346TIP3    H234530   1.923   1.705  37.910 -0.6409 -1.6533  0.0381
 4347TIP3   OH234531   0.367   0.789  44.411 -0.3724 -0.7687 -0.4907
 4347TIP3    H134532   0.305   0.728  44.452  0.4323 -0.9186  0.5455
 4347TIP3    H234533   0.313   0.862  44.381 -1.0568 -0.8927  0.3940
 4348TIP3   OH234534   3.755   3.958   5.781  0.4876 -0.0632 -0.2119
 4348TIP3    H134535   3.822   4.011   5.740 -0.8170  0.1814 -2.1414
 4348TIP3    H234536   3.680   4.017   5.791  0.2214 -0.5700  1.0674
 4349TIP3   OH234537   3.310   3.944   5.979 -0.1428  0.4581  0.1052
 4349TIP3    H134538   3.266   3.901   5.906 -0.0734 -0.2458  0.4751
 4349TIP3    H234539   3.238   3.979   6.033 -0.2001  0.7151 -0.1320
 4350TIP3   OH234540   3.309   3.519  28.042 -0.7850 -0.2884 -0.0268
 4350TIP3    H134541   3.305   3.468  27.961 -2.5093 -2.0241  1.0591
 4350TIP3    H234542   3.376   3.476  28.094  0.1080  0.6424 -0.3729
 4351TIP3   OH234543   3.789   0.118  46.070  0.3411  0.1721 -0.0125
 4351TIP3    H134544   3.743   0.149  46.148  1.6879  1.0956  0.4633
 4351TIP3    H234545   3.865   0.176  46.062  1.2085 -1.0167 -0.9793
 4352TIP3   OH234546   2.313   1.773  45.522  0.4115 -0.1729  0.5891
 4352TIP3    H134547   2.220   1.764  45.543 -0.2173  1.6561 -1.0331
 4352TIP3    H234548   2.325   1.720  45.443  0.7126 -0.2590  0.6909
 4353TIP3   OH234549   0.427   3.554  27.124  0.6540  0.3482  0.1399
 4353TIP3    H134550   0.498   3.557  27.060  1.3597  0.5449  0.9217
 4353TIP3    H234551   0.470   3.532  27.207 -0.4976 -2.0254  0.2024
 4354TIP3   OH234552   1.855   1.910  35.812 -0.3081 -0.0464 -0.0564
 4354TIP3    H134553   1.826   1.901  35.722  1.0446 -1.5873 -0.3791
 4354TIP3    H234554   1.939   1.955  35.806  0.7626 -1.9080  0.2085
 4355TIP3   OH234555   2.675   3.993   1.864 -0.7684  0.0125  0.0407
 4355TIP3    H134556   2.762   4.014   1.831 -0.3457 -1.0119  0.4706
 4355TIP3    H234557   2.628   4.077   1.863  0.0966  0.5031 -0.5386
 4356TIP3   OH234558   0.438   3.391  10.263  1.0236  0.3197  0.3128
 4356TIP3    H134559   0.443   3.431  10.176 -0.6669 -1.2665 -0.6055
 4356TIP3    H234560   0.443   3.464  10.324  1.5883  1.5448 -1.1404
 4357TIP3   OH234561   3.869   3.415  33.190  0.0728 -0.3635  0.0485
 4357TIP3    H134562   3.810   3.348  33.225 -2.3849 -0.0647 -3.1251
 4357TIP3    H234563   3.834   3.498  33.225 -0.3194 -0.3227 -0.4336
 4358TIP3   OH234564   0.825   0.037   8.135 -0.0994  0.0585 -0.0630
 4358TIP3    H134565   0.759   0.035   8.204 -0.7406  1.3028 -0.5986
 4358TIP3    H234566   0.871   0.120   8.148 -0.1244  0.2396 -1.0147
 4359TIP3   OH234567   2.569   3.596   0.390 -0.2488 -0.7418 -0.7441
 4359TIP3    H134568   2.612   3.595   0.304  1.1742  0.3650 -0.0947
 4359TIP3    H234569   2.486   3.551   0.376 -0.2985 -0.1174 -2.8281
 4360TIP3   OH234570   0.137   0.681   4.140 -0.3659  0.0534  0.4236
 4360TIP3    H134571   0.054   0.721   4.112 -0.8003 -1.1008 -0.0244
 4360TIP3    H234572   0.175   0.646   4.059  0.0961 -0.2624  0.7732
 4361TIP3   OH234573   0.966   3.362   2.634 -0.2038 -0.1326  0.1572
 4361TIP3    H134574   0.988   3.390   2.722  1.2791  3.0431 -1.0641
 4361TIP3    H234575   0.871   3.350   2.636 -0.7045  3.0137  1.5080
 4362TIP3   OH234576   3.415   1.566  39.028  0.4391 -0.3110  0.1578
 4362TIP3    H134577   3.474   1.614  39.086  0.7018  1.7251 -1.6759
 4362TIP3    H234578   3.345   1.535  39.086  1.2537  0.6675  1.7344
 4363TIP3   OH234579   3.482   1.543  42.910 -0.4248  0.3344 -0.2253
 4363TIP3    H134580   3.468   1.450  42.926  0.8775  0.0930 -0.4261
 4363TIP3    H234581   3.430   1.587  42.978  1.5901 -0.5886  2.0651
 4364TIP3   OH234582   2.811   1.338  33.306  0.0872 -0.3877  0.2658
 4364TIP3    H134583   2.840   1.280  33.235  0.1163  0.2356 -0.2444
 4364TIP3    H234584   2.804   1.281  33.382 -2.1791 -1.5927 -0.7396
 4365TIP3   OH234585   0.712   2.152  43.765  0.5393 -0.1629  0.1164
 4365TIP3    H134586   0.626   2.128  43.799  0.5521 -0.4406 -0.0414
 4365TIP3    H234587   0.698   2.166  43.672  0.6489 -0.1248  0.1083
 4366TIP3   OH234588   1.430   1.154  13.122 -0.1756  0.1586 -0.3031
 4366TIP3    H134589   1.381   1.212  13.181  0.8541  1.6414 -0.8533
 4366TIP3    H234590   1.366   1.125  13.058 -0.5035  1.5257 -0.6210
 4367TIP3   OH234591   2.553   3.667  47.297  0.0938  0.3547 -0.0110
 4367TIP3    H134592   2.564   3.652  47.203  1.2637 -0.9590  0.3043
 4367TIP3    H234593   2.459   3.677  47.309 -0.2985 -1.6669 -1.0322
 4368TIP3   OH234594   3.720   3.632  45.302  0.1107  0.0324  0.1633
 4368TIP3    H134595   3.706   3.591  45.387 -0.8403 -2.0617 -0.9395
 4368TIP3    H234596   3.795   3.586  45.264  0.3584  0.7656 -0.2786
 4369TIP3   OH234597   2.536   3.605  44.747  0.4544 -0.1260  0.2521
 4369TIP3    H134598   2.560   3.540  44.681 -0.8006 -1.3581  0.9308
 4369TIP3    H234599   2.493   3.675  44.698  0.6503 -0.4426 -0.3702
 4370TIP3   OH234600   3.052   3.710  43.515 -0.0351 -0.2040 -0.0683
 4370TIP3    H134601   3.099   3.733  43.435  1.8457 -1.6173  0.5518
 4370TIP3    H234602   3.121   3.689  43.578 -1.5019 -1.1427  1.2885
 4371TIP3   OH234603   0.013   2.930  37.356 -0.2674  0.1664 -0.3755
 4371TIP3    H134604  -0.050   2.858  37.352 -0.6876  0.4770  0.3691
 4371TIP3    H234605  -0.023   2.989  37.423 -0.0970  1.2259 -1.1937
 4372TIP3   OH234606   3.478   0.056  27.905  0.7805 -0.0854 -0.2945
 4372TIP3    H134607   3.548   0.083  27.846  0.6593 -0.0296 -0.4097
 4372TIP3    H234608   3.450  -0.029  27.871  1.4884 -0.5876  0.3454
 4373TIP3   OH234609   1.750   3.223  35.182 -0.1739 -0.3829  0.9178
 4373TIP3    H134610   1.819   3.201  35.244 -0.5505 -0.7086  1.2283
 4373TIP3    H234611   1.775   3.308  35.147 -1.0577  0.8771  3.1514
 4374TIP3   OH234612   2.506   2.352  39.184 -0.0301 -0.3134  0.6383
 4374TIP3    H134613   2.546   2.429  39.143  0.4438 -1.0816 -0.3975
 4374TIP3    H234614   2.412   2.361  39.166 -0.0603  0.3215  1.0674
 4375TIP3   OH234615   0.999   2.065  47.040 -0.2662  0.6032 -0.8322
 4375TIP3    H134616   0.935   1.994  47.051  2.2972 -2.0807 -1.9478
 4375TIP3    H234617   0.987   2.119  47.117 -2.4363 -0.9672  0.0542
 4376TIP3   OH234618   0.296   2.056  37.297 -0.1870 -0.1808 -0.3077
 4376TIP3    H134619   0.243   2.135  37.292 -2.3729 -1.6294 -2.1745
 4376TIP3    H234620   0.285   2.024  37.386  1.4356  1.9749  0.7565
 4377TIP3   OH234621   1.071   0.301  36.160 -0.3722  0.3920  0.1122
 4377TIP3    H134622   1.014   0.278  36.234 -1.1086  0.4341 -0.4233
 4377TIP3    H234623   1.017   0.360  36.107  1.5631  4.0089  1.7361
 4378TIP3   OH234624   1.545   0.543   8.566  0.2559  0.4068 -0.8811
 4378TIP3    H134625   1.580   0.632   8.565 -2.1749  1.4575 -0.2106
 4378TIP3    H234626   1.473   0.545   8.503 -0.4473 -0.8134 -0.1456
 4379TIP3   OH234627   1.647   0.016  12.312 -0.4595  0.0126 -0.1715
 4379TIP3    H134628   1.687   0.008  12.399 -1.8223 -2.2095  0.3263
 4379TIP3    H234629   1.600   0.099  12.315  0.4596  0.5341  0.7709
 4380TIP3   OH234630   3.400   1.008  37.120  0.1835  0.3543  0.2712
 4380TIP3    H134631   3.416   1.102  37.107  2.4313 -0.0433 -0.2375
 4380TIP3    H234632   3.405   0.997  37.215  0.6142  0.6409  0.2850
 4381TIP3   OH234633   3.776   4.009  36.721  0.4767  0.5642  0.0794
 4381TIP3    H134634   3.744   3.990  36.810  1.3473  1.6341  0.6327
 4381TIP3    H234635   3.697   4.036  36.673  0.4161  2.9097  1.3568
 4382TIP3   OH234636   0.661   3.449  43.052  0.1312 -0.0026 -0.2820
 4382TIP3    H134637   0.685   3.356  43.053 -3.6811 -1.1952 -0.8804
 4382TIP3    H234638   0.600   3.458  43.126 -0.4710  1.6998 -0.9471
 4383TIP3   OH234639   3.810   1.649  45.232  0.1788  0.2557  0.1471
 4383TIP3    H134640   3.728   1.695  45.212  0.7070  1.7839  1.2892
 4383TIP3    H234641   3.789   1.597  45.310 -0.3995 -1.5062 -1.1036
 4384TIP3   OH234642   2.302   3.868   6.061  0.2476 -0.3465  0.2112
 4384TIP3    H134643   2.292   3.958   6.029 -1.7200 -0.5432  0.2058
 4384TIP3    H234644   2.345   3.822   5.988  1.1600  0.5303  0.1663
 4385TIP3   OH234645   3.544   1.750  45.309 -0.2639 -0.4838 -0.0695
 4385TIP3    H134646   3.610   1.776  45.373  0.3323  1.0605 -1.2726
 4385TIP3    H234647   3.462   1.789  45.343  0.3157  1.6650 -0.9607
 4386TIP3   OH234648   2.759   1.564  41.984  0.1164 -0.2392  0.4352
 4386TIP3    H134649   2.743   1.486  41.930  0.0627  1.5769 -2.4253
 4386TIP3    H234650   2.673   1.587  42.019 -0.0844 -0.7917  0.3143
 4387TIP3   OH234651   2.206   2.095  44.090 -1.0168  0.3348 -0.2636
 4387TIP3    H134652   2.154   2.043  44.028 -0.4427  0.1699 -0.6195
 4387TIP3    H234653   2.150   2.105  44.166 -2.0516  1.2132 -1.1089
 4388TIP3   OH234654   3.595   3.761  10.325 -0.2888 -0.3809  0.1050
 4388TIP3    H134655   3.513   3.781  10.369 -0.6482  0.7692 -1.0197
 4388TIP3    H234656   3.573   3.691  10.264  0.3366 -2.3882  2.0519
 4389TIP3   OH234657   1.383   3.084  37.279  0.3160 -0.1469 -0.2136
 4389TIP3    H134658   1.306   3.107  37.227 -0.3821  1.9207  1.6211
 4389TIP3    H234659   1.348   3.043  37.358  1.2506 -1.1732 -0.3024
 4390TIP3   OH234660   2.237   0.589  13.992  0.3210 -0.0325  0.6418
 4390TIP3    H134661   2.324   0.624  14.013 -0.1939  1.0806  1.0322
 4390TIP3    H234662   2.247   0.494  13.998  2.1688 -0.0916 -1.9647
 4391TIP3   OH234663   0.615   3.365   3.324 -0.3784 -0.4558 -0.1996
 4391TIP3    H134664   0.614   3.459   3.302 -0.7195 -0.5625 -0.6623
 4391TIP3    H234665   0.561   3.358   3.402 -0.2082 -0.2435 -0.0607
 4392TIP3   OH234666   0.895   0.192  44.154  0.3255 -0.2844 -0.4567
 4392TIP3    H134667   0.814   0.188  44.104  0.8643  1.4011 -1.5726
 4392TIP3    H234668   0.929   0.102  44.152 -0.8546 -0.7398 -1.0676
 4393TIP3   OH234669   1.227   4.079  33.393  0.4690  0.4922  0.3131
 4393TIP3    H134670   1.150   4.063  33.338  0.5896 -0.3191  0.3673
 4393TIP3    H234671   1.192   4.100  33.479  0.3075  0.1618  0.3280
 4394TIP3   OH234672   1.925   0.087  14.338 -0.3425  0.3426  0.0958
 4394TIP3    H134673   1.882   0.049  14.262 -1.4589  0.8893  0.4234
 4394TIP3    H234674   1.928   0.016  14.402 -1.1069  0.3820  0.1913
 4395TIP3   OH234675   3.088   2.153  43.385  0.3228  0.4038 -0.2885
 4395TIP3    H134676   3.013   2.101  43.356 -1.4812  2.4682  0.3041
 4395TIP3    H234677   3.048   2.225  43.434  2.8417  0.6947  1.5025
 4396TIP3   OH234678   0.517   3.109   8.099 -0.4913 -0.4258 -0.0630
 4396TIP3    H134679   0.522   3.130   8.006  0.0763 -0.2191  0.0134
 4396TIP3    H234680   0.520   3.014   8.102  0.7245 -0.3951 -0.1859
 4397TIP3   OH234681   3.420   2.287   4.063  0.0271 -0.4662 -0.0590
 4397TIP3    H134682   3.409   2.306   3.970 -0.3456  1.8793  0.3967
 4397TIP3    H234683   3.331   2.274   4.096 -0.1789  1.9217  0.5105
 4398TIP3   OH234684   0.038   3.907   5.714  0.1981  0.7721 -0.2808
 4398TIP3    H134685   0.093   3.960   5.657  0.2230  2.5065  1.2561
 4398TIP3    H234686  -0.026   3.867   5.655 -0.6961  3.6413 -1.4103
 4399TIP3   OH234687   1.105   2.003  14.515 -0.2189 -0.5525 -0.2782
 4399TIP3    H134688   1.105   2.083  14.462  0.0351  0.2218  0.8472
 4399TIP3    H234689   1.194   1.969  14.508 -0.2531 -0.5944 -0.5342
 4400TIP3   OH234690   3.106   1.214  11.302 -0.2749 -0.4672 -0.3170
 4400TIP3    H134691   3.077   1.136  11.255 -1.3760  0.3350 -1.0403
 4400TIP3    H234692   3.094   1.193  11.394 -0.1644 -1.2909 -0.4855
 4401TIP3   OH234693   4.057   0.953  15.221 -0.7875 -0.5541 -0.2754
 4401TIP3    H134694   3.979   0.901  15.201  0.1363 -0.9174 -3.4298
 4401TIP3    H234695   4.050   1.029  15.163  0.0379  0.7117  1.1912
 4402TIP3   OH234696   0.112   0.951  14.403 -0.0925 -0.6157  0.2728
 4402TIP3    H134697   0.027   0.943  14.360  0.9997 -2.7838 -1.6901
 4402TIP3    H234698   0.111   0.883  14.470 -0.6981  0.8514  1.8068
 4403TIP3   OH234699   2.817   4.104   9.749  0.5026 -0.0496  0.0885
 4403TIP3    H134700   2.763   4.040   9.793  1.2270 -0.2839  0.6500
 4403TIP3    H234701   2.838   4.064   9.664  0.7411 -0.4436  0.3332
 4404TIP3   OH234702   1.882   0.941   3.566  0.0881  0.7576 -0.0524
 4404TIP3    H134703   1.856   0.887   3.640 -1.0034  0.9384 -0.2911
 4404TIP3    H234704   1.962   0.900   3.534  0.6586  0.7567  1.2976
 4405TIP3   OH234705   0.267   0.027   8.995 -0.1410  0.5585  0.6308
 4405TIP3    H134706   0.293   0.118   8.998 -1.1477  0.8360  2.3065
 4405TIP3    H234707   0.182   0.027   8.951  0.3121  0.2915 -0.2636
 4406TIP3   OH234708   3.094   3.767  33.114  0.0128 -0.7092  0.1714
 4406TIP3    H134709   3.093   3.672  33.105  0.8639 -0.8211  1.0309
 4406TIP3    H234710   3.005   3.790  33.140 -1.0725 -0.9052 -2.9490
 4407TIP3   OH234711   3.362   1.572  35.246 -0.3652  0.3084 -0.1217
 4407TIP3    H134712   3.386   1.481  35.263  0.4533  0.5840  0.2624
 4407TIP3    H234713   3.365   1.615  35.332 -2.9941  0.2292  0.0999
 4408TIP3   OH234714   3.803   1.501   8.506 -0.2284  0.4351 -0.3695
 4408TIP3    H134715   3.745   1.573   8.532  0.1896  1.1832 -1.4106
 4408TIP3    H234716   3.814   1.448   8.585 -2.2079  0.3443 -0.0993
 4409TIP3   OH234717   1.618   2.363  11.332 -0.2965 -0.1364 -0.0044
 4409TIP3    H134718   1.526   2.350  11.307 -0.1273  1.3984 -1.6406
 4409TIP3    H234719   1.661   2.280  11.312 -1.2820 -0.8348  0.6691
 4410TIP3   OH234720   3.993   3.967  39.742 -0.1184 -0.5540  0.0145
 4410TIP3    H134721   4.058   3.918  39.794  0.5843 -0.1206 -0.4344
 4410TIP3    H234722   4.014   4.059  39.759 -0.4566 -0.4095 -0.3406
 4411TIP3   OH234723   0.688   3.301   9.999 -0.2742  0.4494 -0.3974
 4411TIP3    H134724   0.773   3.297   9.955 -0.0183 -0.4622  0.1505
 4411TIP3    H234725   0.709   3.295  10.092 -0.8302  2.0981 -0.1408
 4412TIP3   OH234726   0.757   3.085   7.876  0.1151  0.0203  0.2341
 4412TIP3    H134727   0.801   3.056   7.956  0.2578  0.9984  0.5174
 4412TIP3    H234728   0.764   3.180   7.877  0.1120  0.0531 -0.9432
 4413TIP3   OH234729   1.594   0.596  36.982  0.4743 -0.7622  0.7410
 4413TIP3    H134730   1.631   0.674  37.023  1.2136 -1.1549  0.8208
 4413TIP3    H234731   1.615   0.524  37.041  1.4375 -1.3153 -0.2408
 4414TIP3   OH234732   0.417   2.942  33.217  0.2696  0.1199  0.3627
 4414TIP3    H134733   0.403   3.027  33.259 -1.1894 -1.0418  2.3979
 4414TIP3    H234734   0.340   2.930  33.161  0.1464 -0.1204  0.5826
 4415TIP3   OH234735   2.575   2.076  19.868  0.2867  0.6249  0.7478
 4415TIP3    H134736   2.546   2.074  19.959 -0.5318  1.1994  0.5075
 4415TIP3    H234737   2.631   2.154  19.863  1.8490 -0.4040  1.1789
 4416TIP3   OH234738   0.792   0.769  35.061  0.4009 -0.9583 -0.3360
 4416TIP3    H134739   0.712   0.718  35.070 -0.6808  0.9177  1.2142
 4416TIP3    H234740   0.763   0.859  35.048  2.2493 -0.2635 -0.0556
 4417TIP3   OH234741   0.745   2.734  40.086  0.0558 -0.6898 -0.0966
 4417TIP3    H134742   0.798   2.750  40.164  0.2622  0.4705 -0.4527
 4417TIP3    H234743   0.809   2.712  40.018 -0.1352 -1.8416  0.0923
 4418TIP3   OH234744   0.069   3.096  41.772 -0.3789 -0.6221 -0.3215
 4418TIP3    H134745   0.113   3.168  41.726 -0.0975 -0.8511 -0.4198
 4418TIP3    H234746  -0.018   3.130  41.793 -1.1394 -1.0474 -2.4858
 4419TIP3   OH234747   0.785   1.169   2.503  0.0937 -0.5012 -0.0112
 4419TIP3    H134748   0.720   1.171   2.574  0.3995 -0.9503  0.2829
 4419TIP3    H234749   0.869   1.161   2.548  0.2966 -0.6724 -0.4229
 4420TIP3   OH234750   1.197   3.148  37.094 -0.0486  0.0053  0.1433
 4420TIP3    H134751   1.106   3.173  37.084  0.3979  2.2490  1.1500
 4420TIP3    H234752   1.233   3.150  37.005  0.0157  3.5582  0.1196
 4421TIP3   OH234753   1.192   1.036   5.997  0.2274 -1.2428  0.3354
 4421TIP3    H134754   1.196   1.028   6.092 -0.8771  0.1437  0.5294
 4421TIP3    H234755   1.100   1.016   5.975  0.4977 -1.6568 -0.4611
 4422TIP3   OH234756   1.117   1.170   3.236 -0.0623  0.3253 -0.7366
 4422TIP3    H134757   1.093   1.092   3.187 -0.6909  1.0428 -1.6085
 4422TIP3    H234758   1.069   1.162   3.319 -2.0367  0.8890 -1.7590
 4423TIP3   OH234759   0.459   1.882  16.104 -0.9769  0.3548 -0.1741
 4423TIP3    H134760   0.441   1.864  16.196  1.5865  0.5647  0.4365
 4423TIP3    H234761   0.459   1.978  16.098 -2.3141  0.3440 -0.6916
 4424TIP3   OH234762   3.625   0.028  43.401  0.6293  0.0969  0.0130
 4424TIP3    H134763   3.630   0.066  43.489  1.0804  0.1456 -0.0315
 4424TIP3    H234764   3.603  -0.064  43.415 -0.4795  0.3649  0.1234
 4425TIP3   OH234765   0.863   2.487  13.851  0.2610 -0.2837  0.7064
 4425TIP3    H134766   0.795   2.485  13.918  0.8187  0.3155  1.3169
 4425TIP3    H234767   0.873   2.580  13.829 -1.1412 -0.6021 -1.5313
 4426TIP3   OH234768   1.659   3.912  44.257 -0.0221 -0.7317  0.4620
 4426TIP3    H134769   1.754   3.896  44.263  0.1714  0.4284  0.7499
 4426TIP3    H234770   1.652   4.005  44.235 -1.0762 -1.1303 -1.0053
 4427TIP3   OH234771   3.097   0.889  38.302 -0.0318  0.4663  0.2403
 4427TIP3    H134772   3.012   0.869  38.342 -0.1513 -2.4758 -1.1874
 4427TIP3    H234773   3.161   0.844  38.358  0.4748  1.6237  0.6074
 4428TIP3   OH234774   2.587   0.239  34.312  0.2145 -0.6430  0.0288
 4428TIP3    H134775   2.560   0.150  34.334  0.2561 -0.5922  0.2834
 4428TIP3    H234776   2.561   0.291  34.387  0.5214 -0.5001  0.0335
 4429TIP3   OH234777   0.133   0.590  11.778 -0.5480  0.2619 -0.0410
 4429TIP3    H134778   0.186   0.511  11.765  2.3496  2.3468 -2.0456
 4429TIP3    H234779   0.066   0.585  11.710  0.2238 -0.0122 -0.7948
 4430TIP3   OH234780   3.435   1.183  43.282  0.1972  0.0203  0.0492
 4430TIP3    H134781   3.494   1.107  43.281  0.9687  0.4921  2.4144
 4430TIP3    H234782   3.398   1.184  43.370  1.3244  3.1546  0.6325
 4431TIP3   OH234783   0.015   2.781  14.974  0.1089 -0.2244 -0.2751
 4431TIP3    H134784   0.054   2.776  14.887 -0.2564  2.1745 -0.6578
 4431TIP3    H234785  -0.058   2.719  14.971  0.2692 -0.3894 -1.5770
 4432TIP3   OH234786   2.081   0.563   9.665 -0.2223  0.1871  0.4109
 4432TIP3    H134787   2.041   0.528   9.744 -2.0331 -1.2357 -1.0484
 4432TIP3    H234788   2.125   0.488   9.625 -0.1597  0.6612 -0.4294
 4433TIP3   OH234789   0.606   1.768   7.065  0.0467  0.1974 -0.3356
 4433TIP3    H134790   0.518   1.796   7.087  0.5326  1.0661  0.5897
 4433TIP3    H234791   0.646   1.844   7.023  0.5568  0.0296 -0.1697
 4434TIP3   OH234792   0.154   2.604  42.561 -0.3305  0.7227  0.1757
 4434TIP3    H134793   0.160   2.511  42.583 -0.9111  1.0375  1.8780
 4434TIP3    H234794   0.240   2.626  42.525 -0.7012 -0.7931 -1.8135
 4435TIP3   OH234795   1.857   1.253  44.660 -0.0005  0.3284 -0.4973
 4435TIP3    H134796   1.931   1.271  44.602  1.0519 -1.4651  0.2170
 4435TIP3    H234797   1.880   1.297  44.742  1.0803 -1.4612  0.2284
 4436TIP3   OH234798   1.142   3.140  15.319 -0.0479 -0.1950  0.3801
 4436TIP3    H134799   1.142   3.077  15.247 -1.6713  0.1517  0.0360
 4436TIP3    H234800   1.177   3.220  15.281  0.0632 -0.3016  0.2551
 4437TIP3   OH234801   1.254   4.064  33.122 -0.0766  0.1775 -0.0605
 4437TIP3    H134802   1.293   3.999  33.180  0.8965  0.9747  0.1964
 4437TIP3    H234803   1.163   4.070  33.150 -0.0958 -0.8174  0.1324
 4438TIP3   OH234804   0.261   3.593  14.856 -0.1066 -0.7803  0.4155
 4438TIP3    H134805   0.328   3.527  14.872 -0.1803 -1.0752 -0.4643
 4438TIP3    H234806   0.188   3.545  14.816 -0.6281 -0.3697  0.8489
 4439TIP3   OH234807   2.500   0.970   9.578 -0.1181 -0.6675 -0.1517
 4439TIP3    H134808   2.526   0.928   9.496  0.7249 -1.4584  0.4999
 4439TIP3    H234809   2.404   0.974   9.574 -0.0492  0.0833 -1.5380
 4440TIP3   OH234810   0.614   0.004  40.623  0.0031 -0.0345  0.0081
 4440TIP3    H134811   0.562  -0.064  40.579  1.3808  0.2243 -2.1612
 4440TIP3    H234812   0.690  -0.043  40.657  0.3514  0.1999 -0.4298
 4441TIP3   OH234813   3.980   3.690  34.548  0.2643  0.1705  0.4969
 4441TIP3    H134814   3.895   3.663  34.581  0.0411  1.2285  0.8339
 4441TIP3    H234815   3.974   3.786  34.541  1.6242  0.3231  1.0995
 4442TIP3   OH234816   2.014   2.868   4.241 -0.0524  0.8033 -0.2697
 4442TIP3    H134817   1.973   2.946   4.278 -1.8983  0.4775 -1.4785
 4442TIP3    H234818   1.956   2.796   4.265  2.2579 -0.4867  1.8895
 4443TIP3   OH234819   1.601   1.483  12.396  0.5025 -0.2040  0.4070
 4443TIP3    H134820   1.524   1.536  12.374  0.7341 -0.4486 -1.1180
 4443TIP3    H234821   1.668   1.512  12.334 -0.1735 -4.1655 -2.5444
 4444TIP3   OH234822   0.104   3.581  31.062  0.2319  0.2840  0.0870
 4444TIP3    H134823   0.163   3.569  30.988  1.7481  1.0733  1.1249
 4444TIP3    H234824   0.091   3.675  31.067 -0.2397  0.1999  0.5498
 4445TIP3   OH234825   0.064   1.265   3.262  0.1350  0.5752 -0.1645
 4445TIP3    H134826   0.137   1.222   3.218 -2.3119 -1.5198 -2.5234
 4445TIP3    H234827   0.024   1.196   3.315 -0.7673  1.3725  0.2289
 4446TIP3   OH234828   2.267   1.310  16.048  0.3496  0.2952 -0.1871
 4446TIP3    H134829   2.337   1.285  15.987  1.8532  0.5610  1.3490
 4446TIP3    H234830   2.217   1.377  16.001  1.7826  0.8795 -0.9560
 4447TIP3   OH234831   3.590   0.458  12.787  0.1717  0.4724  0.1687
 4447TIP3    H134832   3.673   0.413  12.797  0.5284  0.8179 -1.0176
 4447TIP3    H234833   3.528   0.390  12.763 -0.1893  0.0157  2.2486
 4448TIP3   OH234834   1.471   2.478  36.129 -0.2412  0.2421  0.2421
 4448TIP3    H134835   1.504   2.395  36.095  0.6681 -0.1330  1.9396
 4448TIP3    H234836   1.392   2.453  36.178 -0.4657  0.5118  0.0185
 4449TIP3   OH234837   1.158   2.203  19.161  0.2032  0.3320  0.5382
 4449TIP3    H134838   1.140   2.241  19.075  1.0785 -1.4631 -0.4896
 4449TIP3    H234839   1.240   2.244  19.189 -0.3963  1.3694  0.8181
 4450TIP3   OH234840   3.690   4.025  26.134  0.6011  0.3288 -0.8452
 4450TIP3    H134841   3.597   4.007  26.120  0.4826  1.4083 -1.6380
 4450TIP3    H234842   3.715   3.968  26.206 -0.3469 -0.9691 -1.4884
 4451TIP3   OH234843   3.077   1.597  14.466 -0.4058  0.2111  0.2307
 4451TIP3    H134844   3.144   1.554  14.519 -0.1354  0.7874  0.3611
 4451TIP3    H234845   3.013   1.528  14.449  0.5698 -0.5578 -0.5020
 4452TIP3   OH234846   2.692   0.612   0.935 -0.0841 -0.0639  0.0270
 4452TIP3    H134847   2.753   0.568   0.876 -0.1972 -2.2793  1.4765
 4452TIP3    H234848   2.624   0.547   0.953 -3.3809  2.4729 -2.0181
 4453TIP3   OH234849   4.069   1.637   8.436  0.2725 -0.5707 -0.1476
 4453TIP3    H134850   4.067   1.572   8.506 -1.2279  2.7899  3.2895
 4453TIP3    H234851   3.982   1.634   8.397  0.8617 -1.9164 -1.4334
 4454TIP3   OH234852   3.750   2.491   4.856  0.2966  0.4240  0.3545
 4454TIP3    H134853   3.803   2.546   4.798  0.1732  0.7346  0.5302
 4454TIP3    H234854   3.717   2.421   4.800  1.9181 -0.4982  0.4971
 4455TIP3   OH234855   1.206   2.190  18.721  0.6582 -0.3161  0.5507
 4455TIP3    H134856   1.158   2.111  18.746 -0.1873 -0.1188 -0.3876
 4455TIP3    H234857   1.298   2.166  18.732  0.4658 -1.7724 -0.6473
 4456TIP3   OH234858   1.983   1.658  38.769 -0.0524 -0.0496  0.3207
 4456TIP3    H134859   2.038   1.673  38.846  0.4067  0.0788 -0.0267
 4456TIP3    H234860   2.038   1.684  38.695 -0.1820 -0.9738 -0.1140
 4457TIP3   OH234861   1.046   1.252  14.754 -0.3074  0.2660  0.4849
 4457TIP3    H134862   1.005   1.175  14.792  2.0840 -1.9372 -1.0751
 4457TIP3    H234863   1.008   1.326  14.801 -0.0871 -2.0096  4.6255
 4458TIP3   OH234864   0.741   0.828  41.078 -0.4824 -0.5161 -0.1946
 4458TIP3    H134865   0.685   0.838  41.155  0.1220  0.8080  0.0996
 4458TIP3    H234866   0.685   0.783  41.014 -1.4191 -0.4778  0.5678
 4459TIP3   OH234867   1.171   1.390   9.907 -0.3335 -0.4117  0.0458
 4459TIP3    H134868   1.158   1.304   9.948 -0.5480 -0.8766 -0.9849
 4459TIP3    H234869   1.174   1.372   9.813 -1.3464  0.8189 -0.2527
 4460TIP3   OH234870   3.700   3.263  33.354  0.4165 -0.1648 -0.8679
 4460TIP3    H134871   3.745   3.285  33.435 -0.6144 -0.9696 -0.0475
 4460TIP3    H234872   3.638   3.335  33.340  2.1481  1.1771 -2.2368
 4461TIP3   OH234873   1.096   1.728  17.129  0.2560 -0.0620  0.0772
 4461TIP3    H134874   1.077   1.790  17.059 -1.2061  1.0987  1.4260
 4461TIP3    H234875   1.181   1.691  17.106  0.1883  0.8669 -1.8672
 4462TIP3   OH234876   3.958   0.627  38.391  0.2068  0.6568  0.1094
 4462TIP3    H134877   3.986   0.561  38.454 -0.5253  0.1803 -0.0468
 4462TIP3    H234878   3.896   0.581  38.334  0.6563  1.1440 -0.8041
 4463TIP3   OH234879   2.372   1.000   6.784  0.3930  0.4555 -0.8712
 4463TIP3    H134880   2.331   0.983   6.699  0.6456  1.0903 -1.1261
 4463TIP3    H234881   2.319   0.951   6.847  0.5422 -0.4914 -1.4614
 4464TIP3   OH234882   3.623   3.927   8.888  0.8914 -0.6743  0.3360
 4464TIP3    H134883   3.563   3.997   8.913  0.9044 -0.1077 -1.1529
 4464TIP3    H234884   3.677   3.913   8.966 -0.6736 -0.7024  1.4674
 4465TIP3   OH234885   1.543   0.625  38.676  0.0336 -0.3016  0.2662
 4465TIP3    H134886   1.596   0.549  38.652 -0.4648 -0.9641  1.1850
 4465TIP3    H234887   1.463   0.587  38.713 -1.3523  0.6639 -1.5724
 4466TIP3   OH234888   2.481   2.342  32.696  0.7222 -0.3532 -0.1465
 4466TIP3    H134889   2.488   2.279  32.768  0.9427 -0.4212 -0.2266
 4466TIP3    H234890   2.435   2.416  32.734 -2.1648 -1.6823 -0.8160
 4467TIP3   OH234891   2.608   1.812  32.830  0.3165 -0.0394 -0.0953
 4467TIP3    H134892   2.597   1.860  32.748 -2.9569  0.7841  0.6992
 4467TIP3    H234893   2.579   1.872  32.898  2.1657 -0.9966  1.6482
 4468TIP3   OH234894   3.717   3.525  44.642 -0.1271  0.4228  0.6573
 4468TIP3    H134895   3.683   3.437  44.657  0.3739 -0.0421 -0.7490
 4468TIP3    H234896   3.688   3.575  44.718  0.7032 -1.2627  2.1575
 4469TIP3   OH234897   0.337   2.623   3.499  0.2755  0.1799  0.3246
 4469TIP3    H134898   0.253   2.645   3.460  0.4138 -1.9665 -1.3779
 4469TIP3    H234899   0.396   2.692   3.468 -0.5244  0.8546  0.2713
 4470TIP3   OH234900   2.955   2.727   3.997 -0.3452  0.4767 -0.4529
 4470TIP3    H134901   3.023   2.670   4.034 -3.6133 -2.6540  1.3269
 4470TIP3    H234902   2.968   2.811   4.041  1.5631 -0.3897  0.7790
 4471TIP3   OH234903   4.027   1.070  12.893  0.8277 -0.2124  0.1824
 4471TIP3    H134904   4.043   0.983  12.857  1.4470  0.4528 -1.2189
 4471TIP3    H234905   4.088   1.077  12.966 -1.7258 -2.2872  2.7406
 4472TIP3   OH234906   1.548   3.372  44.183 -0.1644  0.3080 -0.2796
 4472TIP3    H134907   1.459   3.338  44.183 -0.4881  1.1066 -1.0958
 4472TIP3    H234908   1.540   3.461  44.215  0.6134 -0.1996  1.4293
 4473TIP3   OH234909   3.781   3.040  34.724 -0.0723  0.2288 -0.1012
 4473TIP3    H134910   3.812   3.089  34.647 -0.7101 -1.8290 -1.7800
 4473TIP3    H234911   3.860   3.010  34.768  0.3034  1.4774  0.1056
 4474TIP3   OH234912   1.413   1.269  34.965 -0.3339  0.2024 -0.2213
 4474TIP3    H134913   1.332   1.219  34.966 -2.5048  3.4291  0.6252
 4474TIP3    H234914   1.414   1.316  35.048  2.5928  0.1210 -0.0782
 4475TIP3   OH234915   0.831   1.415   0.038 -0.1731 -0.5587  0.1689
 4475TIP3    H134916   0.922   1.445   0.046  0.7670 -3.2082  0.2357
 4475TIP3    H234917   0.814   1.415  -0.056 -0.2895  0.3664  0.1796
 4476TIP3   OH234918   1.232   2.021  15.831  0.3202  0.2210  0.0399
 4476TIP3    H134919   1.197   2.076  15.901 -0.5502 -2.1483  1.5703
 4476TIP3    H234920   1.315   1.988  15.866  0.4108 -0.1471 -0.5080
 4477TIP3   OH234921   2.449   0.059   3.447  0.7924  0.3212  0.4211
 4477TIP3    H134922   2.449   0.012   3.364 -0.2716  0.4775  0.3144
 4477TIP3    H234923   2.515   0.015   3.500 -0.6072 -1.7509  0.5488
 4478TIP3   OH234924   0.418   4.019  38.497  0.1191 -0.5268 -0.0402
 4478TIP3    H134925   0.433   3.933  38.457  2.3090 -0.0202 -0.4462
 4478TIP3    H234926   0.436   4.082  38.427 -3.1939  0.3360 -0.2899
 4479TIP3   OH234927   3.169   1.218  16.931 -0.5057  0.0446  0.3062
 4479TIP3    H134928   3.206   1.302  16.905 -1.4425  0.0703 -1.0251
 4479TIP3    H234929   3.226   1.153  16.889  0.5285 -0.0335  1.7555
 4480TIP3   OH234930   2.303   3.943   6.634 -0.3158  0.2219  0.1285
 4480TIP3    H134931   2.384   3.910   6.674 -0.6461 -0.4128  0.2906
 4480TIP3    H234932   2.322   3.947   6.540 -0.0708  0.1389  0.1741
 4481TIP3   OH234933   0.500   0.140  11.564 -0.4079  0.3139 -0.1128
 4481TIP3    H134934   0.514   0.152  11.658 -2.3123  1.0285  0.1132
 4481TIP3    H234935   0.423   0.193  11.544 -0.6470 -0.6338 -1.8963
 4482TIP3   OH234936   1.927   1.919  41.096 -0.2448  0.5764 -0.5055
 4482TIP3    H134937   1.963   1.862  41.164 -1.0639  0.3524 -0.2464
 4482TIP3    H234938   1.866   1.863  41.047 -0.4795  1.0219 -0.7254
 4483TIP3   OH234939   1.900   2.298  13.767 -0.2193 -0.2306  0.4757
 4483TIP3    H134940   1.928   2.271  13.679 -3.2150 -0.8076 -0.3968
 4483TIP3    H234941   1.886   2.215  13.814  1.0265  0.0740  1.4513
 4484TIP3   OH234942   0.696   0.150  34.795 -0.0458  0.4250  0.0512
 4484TIP3    H134943   0.780   0.107  34.781 -0.5057 -0.2911 -0.6184
 4484TIP3    H234944   0.636   0.105  34.736 -0.7154  1.5030 -0.1321
 4485TIP3   OH234945   1.574   2.727  41.443  0.3138  0.3466 -0.3307
 4485TIP3    H134946   1.548   2.814  41.475 -1.0005  0.3030 -1.2354
 4485TIP3    H234947   1.668   2.736  41.426  0.8149  0.7627  2.1732
 4486TIP3   OH234948   1.990   0.291  11.502 -0.2755  0.3678 -0.3930
 4486TIP3    H134949   1.902   0.254  11.495 -0.5845  1.2260 -1.2234
 4486TIP3    H234950   2.031   0.273  11.418  0.1035  0.5630 -0.2535
 4487TIP3   OH234951   3.877   3.883  35.653  0.7869 -0.2888  0.3205
 4487TIP3    H134952   3.952   3.842  35.610  1.3191  0.5517  0.4352
 4487TIP3    H234953   3.869   3.969  35.612 -0.5444 -0.6112 -0.1760
 4488TIP3   OH234954   1.896   3.468  35.228  0.0411  0.6342  0.4332
 4488TIP3    H134955   1.977   3.504  35.262 -0.0489  0.9815  0.2884
 4488TIP3    H234956   1.906   3.470  35.133  0.3130 -0.3786  0.4230
 4489TIP3   OH234957   2.964   0.778  10.813  0.4838  0.5062  0.4176
 4489TIP3    H134958   2.987   0.869  10.799 -0.0526  0.5371 -0.2908
 4489TIP3    H234959   2.885   0.764  10.760  1.5593 -0.8370 -0.8998
 4490TIP3   OH234960   1.099   1.955  35.134 -0.0256  0.3377 -0.4256
 4490TIP3    H134961   1.140   1.936  35.218 -0.0539  1.5272 -0.1208
 4490TIP3    H234962   1.170   1.947  35.070  0.3140  0.7621 -0.1100
 4491TIP3   OH234963   2.335   0.096  37.219 -0.2997 -0.5950 -0.0178
 4491TIP3    H134964   2.394   0.136  37.283  2.3664 -1.1089 -1.9776
 4491TIP3    H234965   2.340   0.002  37.237 -2.2991 -0.5382  1.1391
 4492TIP3   OH234966   0.189   3.135   5.957 -0.0997  0.4276  0.5603
 4492TIP3    H134967   0.116   3.100   6.009  0.7294 -0.6965  1.0194
 4492TIP3    H234968   0.245   3.178   6.021 -0.5772  1.7144  0.1390
 4493TIP3   OH234969   3.695   0.976   0.290 -0.1976 -0.2642  0.4330
 4493TIP3    H134970   3.619   0.942   0.243  0.2432 -0.0335 -0.4853
 4493TIP3    H234971   3.723   0.904   0.346  0.1049 -1.0739 -0.7168
 4494TIP3   OH234972   2.326   1.946   3.955  0.7533  0.6020 -0.5879
 4494TIP3    H134973   2.379   1.868   3.934  0.7298  0.5134 -0.3197
 4494TIP3    H234974   2.372   2.018   3.911  3.0222  1.1026  2.2554
 4495TIP3   OH234975   1.085   0.112   0.495 -0.3221  0.0525  0.3670
 4495TIP3    H134976   1.038   0.139   0.573  1.3368  1.3419  0.9994
 4495TIP3    H234977   1.177   0.105   0.524  0.3916  0.9397 -1.5136
 4496TIP3   OH234978   3.134   3.327  15.361 -0.4202  0.2342  0.8538
 4496TIP3    H134979   3.066   3.298  15.422  0.9433 -1.2990  1.7074
 4496TIP3    H234980   3.088   3.386  15.301 -2.7985 -1.6257  0.6819
 4497TIP3   OH234981   1.189   2.713   2.665 -0.2072  0.0930  0.2326
 4497TIP3    H134982   1.171   2.655   2.738 -0.0039  1.4659  1.4137
 4497TIP3    H234983   1.119   2.694   2.602 -0.6292 -0.8117  0.9479
 4498TIP3   OH234984   2.319   1.752  12.605  0.3700  0.5722  0.1649
 4498TIP3    H134985   2.353   1.840  12.623  1.0707  0.4081 -0.3079
 4498TIP3    H234986   2.273   1.727  12.685 -0.2337  1.5471  0.1429
 4499TIP3   OH234987   0.598   1.826  35.005 -0.1843  0.7724  0.2268
 4499TIP3    H134988   0.562   1.791  35.087  1.3389 -1.9583 -0.1531
 4499TIP3    H234989   0.689   1.849  35.027 -0.3519  2.0011 -0.2543
 4500TIP3   OH234990   3.556   3.209   3.751 -0.0680 -0.0169 -0.6537
 4500TIP3    H134991   3.603   3.172   3.677  1.1337  0.8033 -0.3199
 4500TIP3    H234992   3.605   3.288   3.774 -0.6134 -0.0706  0.7925
 4501TIP3   OH234993   3.536   1.442  34.547 -0.6836  0.2503  0.6904
 4501TIP3    H134994   3.519   1.349  34.536 -0.7333  0.4341 -0.9759
 4501TIP3    H234995   3.628   1.446  34.573 -0.7647 -0.2695  1.0727
 4502TIP3   OH234996   3.417   1.663  47.014  0.6432  0.1657 -0.0856
 4502TIP3    H134997   3.478   1.699  47.078  0.4021  0.8673 -0.2387
 4502TIP3    H234998   3.331   1.668  47.057  0.7464 -1.4201  0.3912
 4503TIP3   OH234999   2.304   3.069   9.082  0.1625  0.2479 -0.2094
 4503TIP3    H135000   2.392   3.083   9.116  0.6250 -2.4513 -0.0304
 4503TIP3    H235001   2.299   3.124   9.004  2.3961 -0.2235 -0.7644
 4504TIP3   OH235002   2.991   1.748  39.024  0.0597 -0.9395  0.2639
 4504TIP3    H135003   3.024   1.798  39.098  1.8386  0.8893 -1.6161
 4504TIP3    H235004   3.051   1.674  39.016  0.9424 -0.1824 -0.3402
 4505TIP3   OH235005   0.763   0.852  31.362  0.1107 -0.3720 -0.1160
 4505TIP3    H135006   0.728   0.913  31.297 -0.1844  1.0963  1.3603
 4505TIP3    H235007   0.691   0.791  31.378 -0.1570 -0.1453 -0.4311
 4506TIP3   OH235008   0.601   1.892  40.777 -0.8615 -0.3589 -0.3535
 4506TIP3    H135009   0.543   1.818  40.761 -0.0746 -0.9876 -0.3820
 4506TIP3    H235010   0.546   1.969  40.765 -1.3586 -0.8961 -1.7613
 4507TIP3   OH235011   2.809   1.773  15.804  0.7975  0.1300 -0.2256
 4507TIP3    H135012   2.744   1.710  15.834  1.0751  0.3417  0.8668
 4507TIP3    H235013   2.841   1.737  15.722  0.9100 -1.1322  0.3434
 4508TIP3   OH235014   2.057   0.026  47.303 -0.0183 -0.6352 -0.2536
 4508TIP3    H135015   2.001   0.014  47.381 -0.1645 -0.2858 -0.3031
 4508TIP3    H235016   2.102  -0.058  47.294  0.9680 -0.2695  0.9634
 4509TIP3   OH235017   2.566   4.093  44.573 -0.3479 -0.5385  0.0610
 4509TIP3    H135018   2.627   4.165  44.558 -1.3132  0.6649  1.6250
 4509TIP3    H235019   2.597   4.052  44.654 -0.3693 -1.2873 -0.3054
 4510TIP3   OH235020   1.509   2.324  45.867 -0.3268 -0.1751  0.0208
 4510TIP3    H135021   1.568   2.314  45.791 -1.8476 -0.4420 -1.1756
 4510TIP3    H235022   1.426   2.289  45.837 -1.1664  0.3534  1.6222
 4511TIP3   OH235023   3.062   1.686  44.578 -0.4334 -0.1381 -0.0088
 4511TIP3    H135024   3.126   1.628  44.620 -0.4877  0.4882  0.9730
 4511TIP3    H235025   3.084   1.682  44.485  1.2480  0.3132  0.3427
 4512TIP3   OH235026   3.064   1.283  15.229  0.2362 -0.5333  0.4681
 4512TIP3    H135027   3.047   1.282  15.135 -0.1325 -0.1608  0.5258
 4512TIP3    H235028   3.092   1.193  15.249 -0.4800 -0.8414  0.1437
 4513TIP3   OH235029   3.190   1.756  37.326 -0.3748  0.6813 -0.1304
 4513TIP3    H135030   3.146   1.714  37.253 -2.4913  2.5616 -0.0731
 4513TIP3    H235031   3.245   1.688  37.365 -1.6880 -1.2410 -1.4993
 4514TIP3   OH235032   0.414   4.022  26.677 -0.3970  0.5112  0.8599
 4514TIP3    H135033   0.444   3.936  26.705 -1.2890  0.6099  2.1987
 4514TIP3    H235034   0.321   4.023  26.698 -0.9547  0.9560 -1.3090
 4515TIP3   OH235035   3.502   2.512  38.560 -0.1244 -0.2357  0.4397
 4515TIP3    H135036   3.474   2.460  38.635 -1.7105 -0.2277 -0.0999
 4515TIP3    H235037   3.456   2.595  38.570 -0.4403 -0.2770 -0.5903
 4516TIP3   OH235038   2.597   3.673  13.708 -0.6572 -0.5251 -0.1595
 4516TIP3    H135039   2.552   3.727  13.773 -0.1936  0.4271 -0.5996
 4516TIP3    H235040   2.603   3.729  13.630 -0.5635 -1.3836 -0.7863
 4517TIP3   OH235041   3.755   1.703   3.845 -0.1804 -0.2116  0.2608
 4517TIP3    H135042   3.751   1.609   3.864  2.4582 -0.5195 -0.2536
 4517TIP3    H235043   3.730   1.710   3.753 -1.2939 -0.2644  0.5484
 4518TIP3   OH235044   1.014   3.276  13.083  0.0260 -0.0295  0.1225
 4518TIP3    H135045   1.061   3.351  13.046 -0.0006 -1.0210 -2.1297
 4518TIP3    H235046   0.922   3.299  13.074 -0.0246 -0.7694 -1.7674
 4519TIP3   OH235047   1.005   2.758  37.831  0.2729 -0.3514 -0.4221
 4519TIP3    H135048   1.003   2.800  37.917  0.8195 -1.3439  0.0809
 4519TIP3    H235049   0.937   2.804  37.781  0.9728  1.2641  0.0429
 4520TIP3   OH235050   2.320   0.356  31.684 -0.2054 -0.1611 -0.1673
 4520TIP3    H135051   2.386   0.389  31.744  1.6858 -3.2816 -0.3093
 4520TIP3    H235052   2.240   0.350  31.736  0.6074  0.0751  1.1407
 4521TIP3   OH235053   0.655   0.941   6.574 -0.3498 -0.0162 -0.3437
 4521TIP3    H135054   0.701   0.874   6.525  1.9484 -0.5094  2.2330
 4521TIP3    H235055   0.719   1.012   6.585 -1.4156  0.8931  0.3055
 4522TIP3   OH235056   3.391   2.221  11.636  0.1649  0.3171 -0.1992
 4522TIP3    H135057   3.393   2.126  11.649  1.7746  0.4168  0.5681
 4522TIP3    H235058   3.480   2.243  11.607  0.1163  1.7093  0.6312
 4523TIP3   OH235059   1.607   1.860   4.259  0.0217  0.1316  0.1241
 4523TIP3    H135060   1.599   1.776   4.214 -0.6878 -0.6777  1.6926
 4523TIP3    H235061   1.519   1.898   4.258 -0.1930 -0.2738  1.4794
 4524TIP3   OH235062   0.955   3.045  43.834 -0.4219 -0.2964  0.0549
 4524TIP3    H135063   1.003   3.127  43.825  1.3249 -1.0623  1.7060
 4524TIP3    H235064   0.991   3.005  43.913 -2.0894 -2.0884 -0.0342
 4525TIP3   OH235065   3.664   0.029  31.656 -0.1386  0.2456 -1.0496
 4525TIP3    H135066   3.722   0.058  31.726 -0.5281 -0.2455 -0.5092
 4525TIP3    H235067   3.699  -0.057  31.631 -0.6196 -0.0439 -0.7339
 4526TIP3   OH235068   2.819   1.306   1.197  0.1316 -0.4209  0.3328
 4526TIP3    H135069   2.843   1.334   1.108 -1.1789  1.0374  0.3950
 4526TIP3    H235070   2.771   1.380   1.233 -0.2031 -1.3730  1.9236
 4527TIP3   OH235071   1.769   2.402  33.397 -0.0611  0.2910  0.7541
 4527TIP3    H135072   1.691   2.452  33.373 -0.0272  0.0440  0.1100
 4527TIP3    H235073   1.836   2.468  33.413  0.9702  0.5260 -3.3469
 4528TIP3   OH235074   3.296   3.789   7.398  0.8076  0.1614 -0.5391
 4528TIP3    H135075   3.200   3.797   7.403  0.8997  0.7943  0.2873
 4528TIP3    H235076   3.317   3.821   7.310  0.2547 -0.0305 -0.7479
 4529TIP3   OH235077   1.339   3.005   4.873  0.0985 -0.0343  0.0774
 4529TIP3    H135078   1.394   2.954   4.931 -0.2957  1.1355  1.5337
 4529TIP3    H235079   1.395   3.024   4.798  0.6185 -1.5549  0.0385
 4530TIP3   OH235080   1.308   2.843   8.566 -0.2953 -0.1635 -0.5112
 4530TIP3    H135081   1.228   2.795   8.547 -1.5661  2.7654 -3.5647
 4530TIP3    H235082   1.279   2.920   8.616  0.4301  1.1911 -2.0699
 4531TIP3   OH235083   2.063   3.971   3.801 -0.0849  0.2152 -0.1476
 4531TIP3    H135084   2.115   4.027   3.743 -1.3549  0.6989 -0.8630
 4531TIP3    H235085   2.049   4.024   3.880 -0.4415  0.5377 -0.4206
 4532TIP3   OH235086   3.773   0.059  39.461  0.0944 -0.9311  0.3983
 4532TIP3    H135087   3.804  -0.031  39.458  0.2502 -0.8510 -1.9191
 4532TIP3    H235088   3.698   0.061  39.401 -1.5485 -0.0458  2.3209
 4533TIP3   OH235089   1.649   1.804   6.620 -0.5457 -0.1563  0.0234
 4533TIP3    H135090   1.738   1.797   6.654 -0.2563 -1.2753 -0.9219
 4533TIP3    H235091   1.645   1.891   6.580  0.1671 -0.1587 -0.0506
 4534TIP3   OH235092   0.420   2.141  15.988 -0.2571  0.3858  0.2766
 4534TIP3    H135093   0.404   2.235  16.001  0.4364  0.5659 -0.0937
 4534TIP3    H235094   0.348   2.112  15.931 -1.8463  0.1430  2.2943
 4535TIP3   OH235095   2.193   1.612   2.217 -0.3065 -0.6973  0.2082
 4535TIP3    H135096   2.097   1.614   2.209 -0.5664 -0.0511  2.6808
 4535TIP3    H235097   2.223   1.682   2.160 -1.3818 -0.3707  0.0113
 4536TIP3   OH235098   2.424   0.798  34.013  0.0204  0.2749  0.3350
 4536TIP3    H135099   2.346   0.836  33.973  0.2410 -0.4871 -0.8752
 4536TIP3    H235100   2.491   0.867  34.003  0.8918 -0.8701 -3.3956
 4537TIP3   OH235101   1.889   2.495  17.367  0.1079 -0.0546 -0.4296
 4537TIP3    H135102   1.936   2.422  17.328  3.3523  2.3023 -1.3415
 4537TIP3    H235103   1.824   2.520  17.301  2.1912  0.7547 -2.2876
 4538TIP3   OH235104   2.643   2.321  45.889 -0.6677  0.6248  0.1809
 4538TIP3    H135105   2.657   2.284  45.802 -3.0282 -0.2003  0.0856
 4538TIP3    H235106   2.716   2.381  45.902  1.3791 -1.4260 -1.1386
 4539TIP3   OH235107   1.946   1.637  44.739 -0.7835 -0.1984 -0.0820
 4539TIP3    H135108   2.000   1.702  44.783  0.4500 -0.8928 -0.5037
 4539TIP3    H235109   2.009   1.572  44.708 -1.4859  0.4549 -3.2319
 4540TIP3   OH235110   2.145   1.160   4.859  0.6936 -0.1253  0.2926
 4540TIP3    H135111   2.169   1.245   4.895  1.4328  0.2656 -1.0348
 4540TIP3    H235112   2.198   1.152   4.779 -1.2321 -0.6725 -1.0119
 4541TIP3   OH235113   0.558   3.362  34.736 -0.1180 -0.2396  0.3797
 4541TIP3    H135114   0.520   3.276  34.721  1.4394 -1.0283  0.7590
 4541TIP3    H235115   0.604   3.354  34.819 -0.5616  1.1951  0.8026
 4542TIP3   OH235116   2.665   3.131   8.074 -0.2667 -0.3914 -0.5490
 4542TIP3    H135117   2.757   3.114   8.092  0.3600  0.7023 -2.5108
 4542TIP3    H235118   2.646   3.212   8.122 -0.0644 -0.3171 -0.5941
 4543TIP3   OH235119   2.959   0.062   3.476 -0.4917 -0.0116  0.0175
 4543TIP3    H135120   2.948  -0.007   3.541 -2.1688  1.1194  1.0078
 4543TIP3    H235121   2.982   0.140   3.527 -0.4289  0.5885 -0.8981
 4544TIP3   OH235122   1.056   2.947  34.667 -0.2329  0.3883  0.0695
 4544TIP3    H135123   1.066   2.939  34.572 -2.1210  0.3456 -0.1689
 4544TIP3    H235124   1.130   2.898  34.703 -0.1541 -0.6335 -1.3851
 4545TIP3   OH235125   1.915   2.473  12.082  0.5685 -0.5987  0.1666
 4545TIP3    H135126   1.865   2.531  12.025  0.3769 -0.4628  0.4678
 4545TIP3    H235127   1.996   2.456  12.034  0.2212 -0.8490 -0.3380
 4546TIP3   OH235128   0.059   0.260  24.560  0.3573 -0.4170  0.1263
 4546TIP3    H135129   0.139   0.219  24.527  1.2734  2.2199 -1.2023
 4546TIP3    H235130  -0.012   0.215  24.514  1.3087 -0.5464 -1.2662
 4547TIP3   OH235131   0.462   1.793   2.695 -0.2681 -0.1583 -0.0718
 4547TIP3    H135132   0.443   1.776   2.603 -0.1606 -0.0616 -0.1116
 4547TIP3    H235133   0.512   1.716   2.723 -0.9732 -0.5588  0.1153
 4548TIP3   OH235134   0.910   3.337   3.775 -0.3729 -0.3221 -0.3751
 4548TIP3    H135135   0.873   3.414   3.730  0.5946  0.3006 -0.1404
 4548TIP3    H235136   0.936   3.278   3.704 -0.6739 -0.2138 -0.5763
 4549TIP3   OH235137   0.570   1.120  15.873 -0.2185  0.7927 -0.1169
 4549TIP3    H135138   0.520   1.074  15.941 -1.2696  1.9247 -0.1019
 4549TIP3    H235139   0.506   1.141  15.806  0.9096 -0.8413 -1.8188
 4550TIP3   OH235140   1.769   2.929  44.078  0.2103  0.1107  0.2547
 4550TIP3    H135141   1.673   2.934  44.078  0.1368 -0.8837  1.3859
 4550TIP3    H235142   1.796   2.998  44.017 -1.2525 -0.4798 -1.1333
 4551TIP3   OH235143   1.282   2.125  32.165  0.1803 -0.3765 -0.1804
 4551TIP3    H135144   1.301   2.170  32.083 -0.1880 -1.3913 -0.8357
 4551TIP3    H235145   1.242   2.193  32.221 -0.9965 -0.0427 -1.3822
 4552TIP3   OH235146   1.609   3.429   7.288 -0.0256 -0.5051  0.4919
 4552TIP3    H135147   1.646   3.374   7.358  0.5164  0.1805  0.7481
 4552TIP3    H235148   1.536   3.474   7.330 -2.3906 -3.1411 -0.4287
 4553TIP3   OH235149   3.981   2.716  46.146 -0.4966 -0.0794 -0.2737
 4553TIP3    H135150   3.952   2.780  46.211 -1.1229 -1.6928  1.1311
 4553TIP3    H235151   4.073   2.736  46.132 -0.5527  0.8194  0.5194
 4554TIP3   OH235152   1.652   3.067   8.612 -0.2088  0.0254  0.4185
 4554TIP3    H135153   1.610   3.095   8.531 -0.4281 -0.8332  0.2208
 4554TIP3    H235154   1.585   3.078   8.679 -0.1916  0.2588  0.3979
 4555TIP3   OH235155   1.134   1.684   1.331  0.7446 -0.3822  0.0227
 4555TIP3    H135156   1.085   1.661   1.251 -0.5619 -0.2280  0.7516
 4555TIP3    H235157   1.164   1.774   1.315 -0.1168 -0.0911 -0.0216
 4556TIP3   OH235158   0.610   3.876  14.338  0.0049 -0.0608 -0.3039
 4556TIP3    H135159   0.669   3.847  14.407 -0.0114  0.2200 -0.1739
 4556TIP3    H235160   0.590   3.967  14.359  0.5861  0.2563 -1.0776
 4557TIP3   OH235161   1.661   1.295  37.158 -0.3497 -0.2895 -0.0955
 4557TIP3    H135162   1.719   1.269  37.228 -0.6300 -1.1158 -0.1618
 4557TIP3    H235163   1.616   1.215  37.132 -1.3525  0.2860 -0.1966
 4558TIP3   OH235164   3.000   2.905  37.055  0.0129  0.2387  0.2510
 4558TIP3    H135165   2.916   2.880  37.095 -0.1156  1.8202  1.0507
 4558TIP3    H235166   3.064   2.846  37.096 -0.2708  1.1415  2.1288
 4559TIP3   OH235167   0.231   3.472  25.481 -0.1521  1.0348 -0.2194
 4559TIP3    H135168   0.314   3.520  25.491  0.7964 -0.6616  0.3959
 4559TIP3    H235169   0.256   3.380  25.482 -2.1587  0.4344  1.0001
 4560TIP3   OH235170   2.697   2.340  44.589  0.0140 -0.3469  0.1025
 4560TIP3    H135171   2.783   2.303  44.610 -0.5533 -1.9136 -0.2442
 4560TIP3    H235172   2.653   2.272  44.538 -0.8576  1.0361 -1.0925
 4561TIP3   OH235173   2.818   1.699  15.145 -0.0166 -0.3037 -0.0512
 4561TIP3    H135174   2.840   1.610  15.174  2.7816  0.4982  0.5915
 4561TIP3    H235175   2.736   1.719  15.191  0.2048 -1.9125  1.1583
 4562TIP3   OH235176   3.524   0.731   4.002 -0.6711  0.1622 -0.0165
 4562TIP3    H135177   3.546   0.639   4.021  0.2520  0.3635 -0.1070
 4562TIP3    H235178   3.591   0.760   3.940 -1.1106  0.8277 -0.1900
 4563TIP3   OH235179   0.771   0.245  40.893 -0.4442 -0.2600  0.2385
 4563TIP3    H135180   0.829   0.221  40.965 -0.3099  1.3646  0.7045
 4563TIP3    H235181   0.683   0.224  40.926 -0.4056  0.6865  0.9933
 4564TIP3   OH235182   1.902   0.412   1.199 -0.1570 -0.4227 -0.1297
 4564TIP3    H135183   1.924   0.503   1.179 -3.3927  0.0642 -2.2439
 4564TIP3    H235184   1.931   0.362   1.122 -2.2140 -0.4136 -0.9715
 4565TIP3   OH235185   1.958   0.243  26.655  0.4208  0.2172 -0.6908
 4565TIP3    H135186   2.005   0.161  26.669 -0.2101 -0.2019 -0.9780
 4565TIP3    H235187   1.865   0.219  26.663  0.2374  0.9091 -0.7190
 4566TIP3   OH235188   1.396   1.649  36.629  0.5446  0.0983 -0.3758
 4566TIP3    H135189   1.324   1.712  36.632  0.3220 -0.1724 -0.0249
 4566TIP3    H235190   1.379   1.598  36.549  1.6821  1.5988 -1.6473
 4567TIP3   OH235191   3.303   3.226   3.058  0.9658  0.1119  0.2092
 4567TIP3    H135192   3.229   3.281   3.032  1.2889 -0.0812 -1.1815
 4567TIP3    H235193   3.298   3.222   3.154 -1.1165 -0.3402  0.1116
 4568TIP3   OH235194   0.644   0.884  14.557 -0.1281  0.4239 -0.4310
 4568TIP3    H135195   0.655   0.815  14.491 -0.8541 -0.9238  0.8121
 4568TIP3    H235196   0.557   0.920  14.539 -0.3882 -0.0447 -0.1344
 4569TIP3   OH235197   3.278   0.172  41.832  0.5353 -0.4588 -0.4426
 4569TIP3    H135198   3.324   0.257  41.831 -1.2676  0.5784  0.7582
 4569TIP3    H235199   3.335   0.115  41.883  0.4771  0.8498  1.1698
 4570TIP3   OH235200   2.998   0.123  36.937  0.1389 -0.6685  0.2011
 4570TIP3    H135201   2.998   0.107  37.032  0.3899 -0.5580  0.2200
 4570TIP3    H235202   2.926   0.185  36.924 -0.1377 -0.9705  0.2674
 4571TIP3   OH235203   2.525   0.082  11.963  0.0045  0.2790 -0.2926
 4571TIP3    H135204   2.523   0.002  12.016 -2.1608  1.5044  1.6414
 4571TIP3    H235205   2.449   0.132  11.992  1.2686  3.0627 -1.4308
 4572TIP3   OH235206   3.112   2.204  37.098  0.2123  0.3526  0.7467
 4572TIP3    H135207   3.074   2.252  37.171  2.2218 -1.5257  3.2140
 4572TIP3    H235208   3.109   2.112  37.125  0.7960 -0.4572 -1.6819
 4573TIP3   OH235209   3.607   0.957  45.300  0.3341 -0.0899 -0.0798
 4573TIP3    H135210   3.631   0.866  45.316 -1.3903 -0.3291  1.5544
 4573TIP3    H235211   3.663   1.008  45.358 -0.2193 -0.3148  0.6718
 4574TIP3   OH235212   2.231   3.326   8.977  0.0921  0.2883  0.2157
 4574TIP3    H135213   2.181   3.295   9.053  0.2430  1.2870  0.7372
 4574TIP3    H235214   2.282   3.399   9.011 -0.3429  1.1775 -0.9999
 4575TIP3   OH235215   3.262   3.155   5.324  0.4246 -0.1160  0.0579
 4575TIP3    H135216   3.231   3.167   5.234 -0.5400 -0.8382  0.2794
 4575TIP3    H235217   3.276   3.244   5.356  2.4642  0.1559 -1.3432
 4576TIP3   OH235218   0.252   0.913  33.811 -0.7088  0.1627 -0.3170
 4576TIP3    H135219   0.230   0.964  33.889 -1.2333 -0.5893  0.0388
 4576TIP3    H235220   0.321   0.964  33.768 -1.6361  1.4820 -0.3055
 4577TIP3   OH235221   1.473   3.873  31.490 -0.0149  0.1839 -0.3410
 4577TIP3    H135222   1.467   3.785  31.525  1.0855  0.4941  0.7177
 4577TIP3    H235223   1.517   3.863  31.405 -0.0682 -0.2944 -0.3121
 4578TIP3   OH235224   1.424   0.250  38.062  0.0351 -0.0671  0.4427
 4578TIP3    H135225   1.494   0.228  38.000  0.6992  0.2691  1.0680
 4578TIP3    H235226   1.400   0.166  38.101 -0.0729 -0.2167  0.0644
 4579TIP3   OH235227   1.850   2.779   5.162 -0.1166 -0.2832  0.1072
 4579TIP3    H135228   1.809   2.866   5.164  1.3971  0.5097 -1.0333
 4579TIP3    H235229   1.860   2.760   5.069  0.9084 -1.0114  0.3497
 4580TIP3   OH235230   3.631   3.475  13.029 -0.3163 -0.2660  0.5170
 4580TIP3    H135231   3.642   3.536  12.956 -0.4437 -1.5722 -0.6576
 4580TIP3    H235232   3.536   3.469  13.041 -0.2761  0.4682  1.2734
 4581TIP3   OH235233   2.048   1.418  41.666 -0.4282 -0.2932 -0.4787
 4581TIP3    H135234   1.961   1.386  41.691 -0.0674 -0.2786  0.8832
 4581TIP3    H235235   2.036   1.454  41.578 -1.4261 -1.7806 -0.9988
 4582TIP3   OH235236   3.779   0.140  33.729 -0.6053  0.2126  0.3728
 4582TIP3    H135237   3.850   0.151  33.792 -0.4707  0.8039  0.1287
 4582TIP3    H235238   3.812   0.078  33.665  0.3872  1.8130 -0.7242
 4583TIP3   OH235239   2.324   3.849  25.178  0.1052  0.1204 -0.1410
 4583TIP3    H135240   2.404   3.884  25.218  0.6552  1.5747 -2.3261
 4583TIP3    H235241   2.354   3.809  25.096 -1.3964  0.9600 -1.1525
 4584TIP3   OH235242   3.462   0.230   5.827  0.3026 -0.4178  0.2833
 4584TIP3    H135243   3.493   0.321   5.826  1.6983 -0.8604 -0.5584
 4584TIP3    H235244   3.415   0.222   5.910 -1.5621  1.5857 -0.4855
 4585TIP3   OH235245   3.940   0.933  38.041  0.9146 -0.3374  0.2619
 4585TIP3    H135246   3.886   1.000  38.084  0.9320 -1.0201  1.4064
 4585TIP3    H235247   4.026   0.942  38.083  1.0601 -0.7233  0.0466
 4586TIP3   OH235248   1.467   0.280   7.588 -0.3610 -0.1282  0.1656
 4586TIP3    H135249   1.544   0.276   7.646 -0.3078 -0.9941  0.0493
 4586TIP3    H235250   1.487   0.352   7.528  1.2817 -1.5426 -1.1057
 4587TIP3   OH235251   2.100   2.164   3.728  0.2563 -0.0574  0.0604
 4587TIP3    H135252   2.184   2.190   3.690 -0.1608 -0.6223 -1.3109
 4587TIP3    H235253   2.106   2.190   3.820  1.4840  0.9388 -0.2770
 4588TIP3   OH235254   1.328   1.911   2.854  0.0493  0.3268 -0.4603
 4588TIP3    H135255   1.336   1.890   2.761 -1.3520 -0.4269 -0.4367
 4588TIP3    H235256   1.417   1.906   2.888  0.3191 -1.5452 -1.3263
 4589TIP3   OH235257   0.138   3.664  31.394  0.0070 -0.4081  0.1213
 4589TIP3    H135258   0.131   3.694  31.303  3.7681  1.0719  0.1345
 4589TIP3    H235259   0.133   3.744  31.446  1.5440 -0.7702  0.8739
 4590TIP3   OH235260   3.964   4.066   4.395 -0.3486  0.1064 -0.2422
 4590TIP3    H135261   3.955   4.152   4.435 -1.9047  0.3995 -1.1547
 4590TIP3    H235262   4.055   4.041   4.412  0.2531  2.0924 -0.3217
 4591TIP3   OH235263   3.437   2.081  36.840 -0.1855  0.1124 -0.5486
 4591TIP3    H135264   3.510   2.044  36.790  0.2294  0.4288 -0.1899
 4591TIP3    H235265   3.442   2.037  36.925 -1.3068 -0.9316 -0.9964
 4592TIP3   OH235266   0.360   3.489  33.091 -0.2038 -0.0080  1.0403
 4592TIP3    H135267   0.366   3.528  33.178 -1.3305 -1.4337  1.7952
 4592TIP3    H235268   0.267   3.488  33.071  0.0865  1.1710 -0.6369
 4593TIP3   OH235269   0.588   4.020   6.384 -0.2624  0.2148  0.9695
 4593TIP3    H135270   0.587   4.087   6.452 -1.9297 -0.3920  1.6041
 4593TIP3    H235271   0.565   4.066   6.304  3.1298  1.2212  0.4054
 4594TIP3   OH235272   2.286   1.127  15.466  0.5350  0.1206  0.0963
 4594TIP3    H135273   2.255   1.120  15.376 -1.3434 -1.7383  0.7940
 4594TIP3    H235274   2.209   1.153  15.516  1.2207 -0.1534  1.3394
 4595TIP3   OH235275   1.883   1.657  37.147  0.3027 -1.0165 -0.4099
 4595TIP3    H135276   1.861   1.744  37.181 -0.6192 -1.3339 -0.1763
 4595TIP3    H235277   1.799   1.617  37.125  0.7702 -1.5261 -1.3426
 4596TIP3   OH235278   2.187   1.769   7.801 -0.0604 -0.1083  0.8042
 4596TIP3    H135279   2.159   1.816   7.880  0.7135  0.5444  0.7015
 4596TIP3    H235280   2.192   1.836   7.733 -1.9735 -0.8705 -0.1600
 4597TIP3   OH235281   3.719   3.244  25.416  0.1797 -0.2166  0.0316
 4597TIP3    H135282   3.644   3.185  25.426  0.7063 -0.7797  0.7136
 4597TIP3    H235283   3.734   3.248  25.322  0.2403 -1.2998 -0.0099
 4598TIP3   OH235284   1.722   3.889  12.546  0.6139 -0.3006 -0.4637
 4598TIP3    H135285   1.724   3.883  12.641 -0.4761  0.2920 -0.3961
 4598TIP3    H235286   1.715   3.798  12.516 -0.7239 -0.3952  0.0756
 4599TIP3   OH235287   1.364   2.130  40.921  0.4903  0.7895  0.4826
 4599TIP3    H135288   1.368   2.095  41.010  0.6158  1.6249  0.8068
 4599TIP3    H235289   1.434   2.195  40.918  2.1156 -0.9099 -0.9693
 4600TIP3   OH235290   0.534   2.581  39.835  1.0043  0.0754 -0.1286
 4600TIP3    H135291   0.453   2.630  39.822  0.2157 -0.7710  1.3244
 4600TIP3    H235292   0.574   2.578  39.748 -0.0477  1.2957 -0.7008
 4601TIP3   OH235293   0.755   1.398  36.194  0.0053  0.2514  0.5042
 4601TIP3    H135294   0.755   1.401  36.289 -3.2249 -1.3315  0.6847
 4601TIP3    H235295   0.835   1.444  36.168  1.7264 -0.4903  3.9592
 4602TIP3   OH235296   2.611   3.673  44.017  0.1170 -0.0001  0.8275
 4602TIP3    H135297   2.528   3.625  44.022  0.0600  0.1027  0.8823
 4602TIP3    H235298   2.584   3.764  44.003  0.2349 -0.2091 -1.1106
 4603TIP3   OH235299   1.830   0.672   5.685 -0.3301 -0.0493  0.5333
 4603TIP3    H135300   1.736   0.661   5.677 -0.2790 -0.0264 -0.1797
 4603TIP3    H235301   1.864   0.660   5.596  0.4765 -1.3394  0.9896
 4604TIP3   OH235302   3.286   1.544   0.440 -0.0011  0.1147 -0.3072
 4604TIP3    H135303   3.374   1.574   0.460  0.3585 -0.8550 -0.4073
 4604TIP3    H235304   3.273   1.566   0.348 -0.6815  2.1883  0.2179
 4605TIP3   OH235305   3.703   1.847  11.700  0.2185  0.1357 -0.0976
 4605TIP3    H135306   3.681   1.890  11.782  0.0173  0.2930 -0.2315
 4605TIP3    H235307   3.798   1.834  11.703  0.3612  1.0714 -0.2892
 4606TIP3   OH235308   0.011   3.895  38.282  0.1453  0.2652 -0.4278
 4606TIP3    H135309  -0.077   3.857  38.285  0.3465 -0.3014 -1.4337
 4606TIP3    H235310   0.008   3.960  38.213  0.6627 -0.1423 -0.8417
 4607TIP3   OH235311   1.135   3.020   3.703 -0.1708  0.0141  0.2749
 4607TIP3    H135312   1.098   2.934   3.718  1.2891 -0.5765  0.6602
 4607TIP3    H235313   1.228   3.010   3.720 -0.0989  1.9125  1.3808
 4608TIP3   OH235314   1.120   2.971  40.956  1.0981 -0.2197 -0.2069
 4608TIP3    H135315   1.097   2.944  40.867 -0.9123 -2.3241  0.8283
 4608TIP3    H235316   1.065   3.047  40.974 -0.8560 -1.6299  0.1855
 4609TIP3   OH235317   1.012   1.667  10.030  0.0796 -0.5282  0.3947
 4609TIP3    H135318   1.085   1.615  10.065  0.0542 -1.0847 -0.3518
 4609TIP3    H235319   0.935   1.630  10.072 -0.1127 -2.1926 -1.2869
 4610TIP3   OH235320   4.052   3.365  26.359  0.6466 -0.6407  0.0287
 4610TIP3    H135321   4.126   3.351  26.301  0.0930  1.8433 -1.4361
 4610TIP3    H235322   4.091   3.380  26.445  1.8652  0.4993 -0.6940
 4611TIP3   OH235323   3.612   2.156  32.572 -0.0398  0.2420 -0.3195
 4611TIP3    H135324   3.621   2.062  32.591  0.5815  0.0247 -1.5543
 4611TIP3    H235325   3.523   2.178  32.599 -0.0240 -0.5914  0.4416
 4612TIP3   OH235326   2.185   0.028  43.777 -0.0468 -0.3922  0.7375
 4612TIP3    H135327   2.156  -0.011  43.860 -0.0759 -0.0735  0.8808
 4612TIP3    H235328   2.112   0.084  43.750 -0.2438 -0.8831  0.2346
 4613TIP3   OH235329   0.101   1.557  36.727  0.0011  0.2485 -0.6018
 4613TIP3    H135330   0.162   1.492  36.693 -1.6242 -1.0308 -1.1983
 4613TIP3    H235331   0.026   1.553  36.668 -1.0518  1.1121  0.6175
 4614TIP3   OH235332   1.317   4.062  36.934 -0.0099  0.3123  0.0784
 4614TIP3    H135333   1.348   4.047  36.844 -1.5632  2.2431 -0.8458
 4614TIP3    H235334   1.397   4.057  36.987  1.5954  2.5054 -1.8729
 4615TIP3   OH235335   2.633   2.371   4.749  0.2631  0.4195 -0.0543
 4615TIP3    H135336   2.697   2.300   4.763  0.0282  0.1778 -0.1921
 4615TIP3    H235337   2.680   2.435   4.695  0.1308 -0.1392 -0.8608
 4616TIP3   OH235338   0.084   2.443  40.960  0.4017 -0.3773  0.1860
 4616TIP3    H135339   0.021   2.431  40.888  0.1053 -0.9866  0.5360
 4616TIP3    H235340   0.087   2.538  40.974  1.4746 -0.1247 -1.5138
 4617TIP3   OH235341   2.884   3.532  33.103  0.0183 -0.1256 -0.0133
 4617TIP3    H135342   2.911   3.452  33.057  2.0136 -1.1676  2.6733
 4617TIP3    H235343   2.859   3.501  33.190  0.8493  2.1493  1.1045
 4618TIP3   OH235344   0.526   0.386  15.706  0.4624  0.3635 -0.3647
 4618TIP3    H135345   0.485   0.404  15.791  0.5035  0.3186 -0.3350
 4618TIP3    H235346   0.575   0.465  15.686  2.3564 -0.4331  0.7493
 4619TIP3   OH235347   3.151   0.099   9.722 -0.0937 -0.0375  0.2456
 4619TIP3    H135348   3.207   0.046   9.779 -1.9688 -1.5601  0.7655
 4619TIP3    H235349   3.071   0.114   9.773 -1.4956 -0.7465 -1.6191
 4620TIP3   OH235350   2.474   3.671  32.714  0.2890  0.2766 -0.5734
 4620TIP3    H135351   2.427   3.609  32.769 -0.1820  1.4783  0.4400
 4620TIP3    H235352   2.406   3.732  32.684  0.8864  0.8689 -0.7402
 4621TIP3   OH235353   2.888   0.855   9.785 -0.2173  0.3340 -0.8536
 4621TIP3    H135354   2.909   0.796   9.858 -1.2188 -0.3696 -1.1115
 4621TIP3    H235355   2.963   0.847   9.726  1.1079  1.6929  0.5277
 4622TIP3   OH235356   2.847   2.731   1.426  0.5643  0.0833 -0.5398
 4622TIP3    H135357   2.912   2.674   1.467 -0.1658 -0.2030  0.2681
 4622TIP3    H235358   2.822   2.792   1.496  1.0102  1.1191 -1.2634
 4623TIP3   OH235359   2.627   3.774  33.812 -0.4143 -0.6373 -0.0349
 4623TIP3    H135360   2.642   3.715  33.738  0.3812 -0.9865  0.3879
 4623TIP3    H235361   2.715   3.795  33.844 -0.7605 -1.6372  1.6860
 4624TIP3   OH235362   2.956   1.168   4.671  0.1454  0.1721 -0.1402
 4624TIP3    H135363   2.872   1.191   4.711 -1.0897 -0.6317 -2.1070
 4624TIP3    H235364   3.008   1.248   4.677 -1.0754  0.9499  0.3896
 4625TIP3   OH235365   3.289   3.239   9.869 -0.1807 -0.2007 -0.0263
 4625TIP3    H135366   3.312   3.321   9.913 -0.3730 -0.1745  0.0258
 4625TIP3    H235367   3.369   3.188   9.870  0.2164  0.3676 -0.9056
 4626TIP3   OH235368   0.165   2.046   0.823  0.1353  0.2120  0.2932
 4626TIP3    H135369   0.249   2.086   0.800 -0.5745  1.5301 -0.1142
 4626TIP3    H235370   0.100   2.105   0.786 -1.0146  0.5245  2.6802
 4627TIP3   OH235371   0.851   2.452   1.913 -0.0158 -0.6244  0.4640
 4627TIP3    H135372   0.878   2.360   1.914 -0.9306 -0.9237 -0.5070
 4627TIP3    H235373   0.761   2.450   1.880  0.3062  0.7063 -0.5677
 4628TIP3   OH235374   2.234   3.736  43.689 -0.7850 -0.1801  0.1495
 4628TIP3    H135375   2.313   3.774  43.728 -1.9740  2.1274  0.5163
 4628TIP3    H235376   2.244   3.750  43.595 -0.2880 -0.9110  0.0843
 4629TIP3   OH235377   0.228   3.576  31.815 -0.6277 -0.2304  0.6512
 4629TIP3    H135378   0.202   3.578  31.907 -0.0481  1.0520  0.8035
 4629TIP3    H235379   0.298   3.510  31.812 -0.9269 -0.5738  1.0413
 4630TIP3   OH235380   1.580   1.083  34.147 -0.0777 -0.2294  0.1977
 4630TIP3    H135381   1.645   1.016  34.127  0.6552  0.2727  0.8172
 4630TIP3    H235382   1.498   1.035  34.155  0.4648 -1.0991  0.8063
 4631TIP3   OH235383   2.744   3.701   1.778 -0.6068  0.5030  0.3852
 4631TIP3    H135384   2.673   3.725   1.718  1.8116  2.0665 -2.1213
 4631TIP3    H235385   2.758   3.779   1.832  0.9336  1.3159 -1.0869
 4632TIP3   OH235386   0.421   1.716   9.672  0.1895 -0.0921 -0.2965
 4632TIP3    H135387   0.449   1.625   9.669  0.0478 -0.2688  2.1343
 4632TIP3    H235388   0.333   1.715   9.635  0.3402 -0.8720 -0.6483
 4633TIP3   OH235389   2.100   1.678  32.725 -0.5584  0.0089 -0.2471
 4633TIP3    H135390   2.153   1.628  32.788 -1.0298  0.3647  0.4358
 4633TIP3    H235391   2.120   1.770  32.745 -1.4323  0.1468  0.0218
 4634TIP3   OH235392   0.720   1.033  43.896  0.2734 -0.1149 -0.3379
 4634TIP3    H135393   0.700   1.098  43.964 -1.2624 -0.6317 -0.2708
 4634TIP3    H235394   0.663   1.057  43.822 -0.6769 -1.6375 -0.1393
 4635TIP3   OH235395   1.687   0.078  40.987  0.1929  0.2163  0.2521
 4635TIP3    H135396   1.702   0.003  41.044 -0.9984  0.5218  0.9957
 4635TIP3    H235397   1.645   0.042  40.909  2.4645 -0.3092 -0.8293
 4636TIP3   OH235398   1.761   3.167  36.587  0.3186 -0.3015 -0.5214
 4636TIP3    H135399   1.812   3.248  36.594  0.8438 -0.6930  0.4245
 4636TIP3    H235400   1.810   3.112  36.527 -0.5211  0.4161 -1.9064
 4637TIP3   OH235401   0.053   1.814   9.730  0.1612  0.7399 -0.7540
 4637TIP3    H135402   0.098   1.894   9.705  3.2590  0.2963  2.5334
 4637TIP3    H235403  -0.028   1.844   9.771  1.6658  2.3968  1.2214
 4638TIP3   OH235404   2.432   0.080  29.074 -0.7323 -0.0618  0.0795
 4638TIP3    H135405   2.456   0.076  28.982 -1.1773 -1.3868 -0.0129
 4638TIP3    H235406   2.440  -0.011  29.104 -2.7921 -0.0566  0.7569
 4639TIP3   OH235407   2.158   3.175  47.021  0.4714 -0.0124  0.4787
 4639TIP3    H135408   2.158   3.262  46.981 -0.5621 -0.1746  0.0773
 4639TIP3    H235409   2.224   3.126  46.972 -0.1124  0.0709 -0.4210
 4640TIP3   OH235410   1.765   2.112   4.335 -0.4866  0.0112  0.4093
 4640TIP3    H135411   1.722   2.034   4.300  2.0667 -1.4474  0.2708
 4640TIP3    H235412   1.826   2.138   4.266  2.1126 -0.8179  2.2317
 4641TIP3   OH235413   0.001   1.959   5.509  0.0501  0.1482 -0.3936
 4641TIP3    H135414  -0.022   2.006   5.429 -0.9306  1.1204  0.4268
 4641TIP3    H235415   0.091   1.986   5.528  0.2682 -0.0466 -1.1270
 4642TIP3   OH235416   3.092   1.013  10.785  0.6131 -0.1219 -0.7247
 4642TIP3    H135417   3.080   1.097  10.828 -0.2116 -0.0331 -1.1046
 4642TIP3    H235418   3.145   1.032  10.708  1.5565 -0.1798 -0.1112
 4643TIP3   OH235419   0.063   2.377   5.721 -0.1945  0.4805 -0.0676
 4643TIP3    H135420  -0.017   2.423   5.747 -0.0595  0.6603  0.0314
 4643TIP3    H235421   0.058   2.374   5.625 -0.2034  0.7030 -0.0755
 4644TIP3   OH235422   1.325   3.767   6.278  0.1067 -0.4803 -0.1909
 4644TIP3    H135423   1.377   3.840   6.246  0.0670 -0.5273 -0.3695
 4644TIP3    H235424   1.341   3.764   6.372  0.1204 -0.2531 -0.1859
 4645TIP3   OH235425   3.709   2.779  11.772 -0.2034  0.6721 -0.1392
 4645TIP3    H135426   3.631   2.817  11.812 -0.6925  0.4564 -0.8719
 4645TIP3    H235427   3.685   2.764  11.680  1.1845  2.0321 -0.7866
 4646TIP3   OH235428   1.157   3.991  35.035 -0.5850  0.3252 -0.3770
 4646TIP3    H135429   1.250   4.001  35.016 -0.5397 -0.0431 -0.3554
 4646TIP3    H235430   1.122   3.944  34.959 -0.1681 -2.2696  0.9488
 4647TIP3   OH235431   0.707   2.357  15.809 -0.0485  0.0015  0.1115
 4647TIP3    H135432   0.613   2.342  15.794 -0.1155 -1.4319  1.5692
 4647TIP3    H235433   0.747   2.349  15.723 -1.0388 -1.6147 -0.2486
 4648TIP3   OH235434   2.519   2.138   3.903  0.5165 -0.0244 -0.2225
 4648TIP3    H135435   2.493   2.183   3.984  1.5133 -2.1158  1.3338
 4648TIP3    H235436   2.609   2.167   3.887  0.7685 -0.5992  0.1484
 4649TIP3   OH235437   2.548   2.931   9.634  0.1763 -0.5114  0.1659
 4649TIP3    H135438   2.461   2.921   9.673  0.5201  2.5370  2.0554
 4649TIP3    H235439   2.532   2.974   9.550 -0.1575 -0.5796  0.1916
 4650TIP3   OH235440   3.143   1.670   5.896 -0.6204 -0.3724 -0.0521
 4650TIP3    H135441   3.139   1.656   5.991  1.5340  0.2422  0.1806
 4650TIP3    H235442   3.087   1.601   5.860  0.6561 -2.3856  1.5463
 4651TIP3   OH235443   2.943   3.543  13.263 -0.2555 -0.8319 -0.0700
 4651TIP3    H135444   2.897   3.487  13.201  1.1623 -2.9750  0.6790
 4651TIP3    H235445   3.015   3.580  13.213  0.8891 -2.5593  0.2065
 4652TIP3   OH235446   3.946   1.160  20.102 -0.5585 -0.0917  0.2239
 4652TIP3    H135447   3.994   1.088  20.143  0.4774  0.6189  0.2973
 4652TIP3    H235448   4.002   1.237  20.115  0.0340  0.1372 -2.7928
 4653TIP3   OH235449   2.510   1.605  46.046  0.1116 -0.0942  0.5543
 4653TIP3    H135450   2.509   1.695  46.013 -1.5118 -0.3480 -0.2227
 4653TIP3    H235451   2.602   1.583  46.055  0.5489  1.2745 -0.3071
 4654TIP3   OH235452   3.671   3.638  24.637  0.0723  0.0095  0.5123
 4654TIP3    H135453   3.759   3.630  24.673  0.1307 -1.0306  0.1724
 4654TIP3    H235454   3.682   3.689  24.557  0.5801 -1.1755 -0.2052
 4655TIP3   OH235455   0.070   1.548  35.056 -0.5450  0.2920  0.4820
 4655TIP3    H135456   0.071   1.580  35.146 -1.6282 -0.0264  0.6260
 4655TIP3    H235457   0.138   1.480  35.054 -0.9264 -0.1357  1.2417
 4656TIP3   OH235458   0.058   1.603  17.497 -0.1853 -0.1165  0.1366
 4656TIP3    H135459   0.102   1.628  17.416  0.9040  0.7068  0.9597
 4656TIP3    H235460   0.035   1.511  17.484 -1.4125  0.3815 -1.6924
 4657TIP3   OH235461   1.479   0.313  25.838 -0.2861 -0.2694 -0.1765
 4657TIP3    H135462   1.561   0.272  25.863 -0.8120 -1.1798  0.0857
 4657TIP3    H235463   1.498   0.356  25.754  0.8182  0.7195  0.5421
 4658TIP3   OH235464   0.855   1.931  36.781 -0.5059  0.2619  0.0708
 4658TIP3    H135465   0.925   1.943  36.845 -1.0009  0.0918  0.6469
 4658TIP3    H235466   0.803   2.011  36.787  0.7654  1.2987 -1.8060
 4659TIP3   OH235467   3.051   2.085  41.981  0.0706  0.3070 -0.2168
 4659TIP3    H135468   3.015   2.062  42.066 -0.7843  2.0408 -0.0817
 4659TIP3    H235469   3.146   2.091  41.996 -0.0383  0.2454  0.5088
 4660TIP3   OH235470   2.992   2.097  47.365 -0.2141  0.0028  0.3669
 4660TIP3    H135471   3.050   2.132  47.297 -0.0799  0.8718  0.8990
 4660TIP3    H235472   3.003   2.158  47.438 -0.9333 -0.4827  0.8898
 4661TIP3   OH235473   2.949   2.263   7.178  0.0299  0.2491 -0.2700
 4661TIP3    H135474   3.008   2.338   7.187  0.2176 -0.0005  0.6704
 4661TIP3    H235475   3.007   2.189   7.162 -0.0629  0.0988  0.0816
 4662TIP3   OH235476   2.399   2.845  37.358 -0.3115 -0.2950 -0.2302
 4662TIP3    H135477   2.340   2.909  37.398  0.4411 -0.0533  0.5379
 4662TIP3    H235478   2.484   2.865  37.397  0.2888 -0.5915 -1.3584
 4663TIP3   OH235479   2.059   1.687  11.943  0.2090 -0.2164  0.7145
 4663TIP3    H135480   2.018   1.742  12.009 -0.0787 -1.6886  1.8221
 4663TIP3    H235481   2.028   1.598  11.964  0.1551 -0.7359 -1.3692
 4664TIP3   OH235482   0.855   1.038  42.255  0.2900 -0.8602 -0.3014
 4664TIP3    H135483   0.926   1.095  42.224 -0.8505 -0.1991 -1.8510
 4664TIP3    H235484   0.861   0.960  42.200  0.0981 -0.9946 -0.1330
 4665TIP3   OH235485   3.891   3.040  44.506 -0.1359 -0.2712  0.1428
 4665TIP3    H135486   3.952   3.091  44.453 -0.2291  0.3800  0.6504
 4665TIP3    H235487   3.929   2.953  44.509  0.8592  0.1629  0.5714
 4666TIP3   OH235488   0.585   0.247  12.581  0.2106  0.2478  0.2252
 4666TIP3    H135489   0.648   0.319  12.581 -0.3150  0.7228  0.9949
 4666TIP3    H235490   0.633   0.173  12.617  0.5606  0.4031  0.0752
 4667TIP3   OH235491   1.413   0.212   4.183  0.4293 -0.4626 -0.1009
 4667TIP3    H135492   1.385   0.244   4.269 -3.6451 -1.8418 -0.7159
 4667TIP3    H235493   1.407   0.289   4.126  2.5457  0.3052  0.5919
 4668TIP3   OH235494   0.718   2.595  38.278 -0.0608  0.1879  0.2494
 4668TIP3    H135495   0.649   2.661  38.267  0.2346  0.7499  1.5634
 4668TIP3    H235496   0.696   2.527  38.214 -0.0023  1.8288 -1.5939
 4669TIP3   OH235497   2.752   0.161  39.646  0.7220 -0.0220  0.0707
 4669TIP3    H135498   2.800   0.128  39.722 -0.3732 -1.1787  0.2934
 4669TIP3    H235499   2.818   0.203  39.592  1.6734  0.0209  1.2231
 4670TIP3   OH235500   1.061   2.694   0.336 -0.0539 -0.0313  0.3830
 4670TIP3    H135501   1.116   2.632   0.287 -0.0027 -0.0071  0.4095
 4670TIP3    H235502   1.054   2.656   0.423  0.9746  0.5956  0.7547
 4671TIP3   OH235503   1.854   1.755   0.648  0.5069 -0.3039  0.8427
 4671TIP3    H135504   1.858   1.756   0.553 -0.4520 -1.0216  0.7794
 4671TIP3    H235505   1.772   1.800   0.670  1.4328  1.1770  1.4071
 4672TIP3   OH235506   0.107   2.433   0.205  0.3734  0.0296  0.2177
 4672TIP3    H135507   0.082   2.406   0.116  1.8513  0.1989 -0.2675
 4672TIP3    H235508   0.098   2.353   0.257 -1.0444  0.0595  0.0526
 4673TIP3   OH235509   3.915   3.647   3.808 -0.5638 -0.2658 -0.0965
 4673TIP3    H135510   3.833   3.695   3.817  0.9025  2.3766  0.0640
 4673TIP3    H235511   3.982   3.714   3.801  1.9296 -2.2590  2.2417
 4674TIP3   OH235512   3.154   3.379  26.002 -0.1654  0.1282  0.5769
 4674TIP3    H135513   3.134   3.359  26.093 -1.7371 -1.6154 -0.0763
 4674TIP3    H235514   3.075   3.422  25.969 -0.8974 -2.0235 -0.6979
 4675TIP3   OH235515   3.934   2.326   3.241  0.4012  0.1612 -0.4415
 4675TIP3    H135516   3.883   2.357   3.316 -0.2722 -0.5277 -0.6026
 4675TIP3    H235517   3.889   2.362   3.165 -0.3994 -1.1478 -0.6335
 4676TIP3   OH235518   1.881   2.959   8.115  0.3201 -0.3303 -0.5568
 4676TIP3    H135519   1.975   2.943   8.103  1.1628  1.1538  2.8949
 4676TIP3    H235520   1.873   3.054   8.123 -1.3545 -0.4822  0.0710
 4677TIP3   OH235521   2.490   0.737  11.474  0.0641  0.1271 -0.1588
 4677TIP3    H135522   2.503   0.643  11.464 -0.5394 -0.1093  1.0762
 4677TIP3    H235523   2.577   0.772  11.490  0.0479 -0.5729  1.7515
 4678TIP3   OH235524   2.802   0.074  35.957 -0.2564  0.1111  0.0378
 4678TIP3    H135525   2.808  -0.020  35.943 -0.3207  0.0315  0.5141
 4678TIP3    H235526   2.823   0.086  36.050 -0.7970  0.5101  0.1137
 4679TIP3   OH235527   1.533   1.438   4.244 -0.1500 -0.8749 -0.1228
 4679TIP3    H135528   1.519   1.435   4.149 -0.8467 -1.3662 -0.0111
 4679TIP3    H235529   1.616   1.391   4.257  0.3876 -0.0755 -0.5617
 4680TIP3   OH235530   0.792   0.505   0.323  0.2967  0.4478 -0.7690
 4680TIP3    H135531   0.707   0.498   0.280  1.3123  0.2682 -2.8829
 4680TIP3    H235532   0.810   0.599   0.328 -0.9436  0.6336  1.7520
 4681TIP3   OH235533   1.239   3.235   2.578  0.5436  0.0562  0.2942
 4681TIP3    H135534   1.149   3.235   2.611  0.6164 -1.8460  0.5686
 4681TIP3    H235535   1.293   3.239   2.656  0.7871  3.0582  0.1011
 4682TIP3   OH235536   1.903   1.896  12.048 -0.2779  0.1601  0.0030
 4682TIP3    H135537   1.845   1.888  12.124  0.6813 -0.4678  0.7047
 4682TIP3    H235538   1.953   1.976  12.065  2.0210 -1.4854  1.5997
 4683TIP3   OH235539   1.804   3.682   0.875  0.2679  0.5921  0.0159
 4683TIP3    H135540   1.774   3.616   0.812  2.4234 -0.2468 -0.1918
 4683TIP3    H235541   1.747   3.670   0.951  0.9127 -1.8595  0.1789
 4684TIP3   OH235542   0.625   2.267   2.878 -0.0434 -0.0089 -0.6058
 4684TIP3    H135543   0.570   2.191   2.858 -0.8638  0.4379 -0.1360
 4684TIP3    H235544   0.702   2.231   2.922 -0.7776 -0.5230  0.3009
 4685TIP3   OH235545   2.240   2.596   5.309  0.7003 -0.4445 -0.0901
 4685TIP3    H135546   2.152   2.584   5.274  0.5905 -0.8052  0.2966
 4685TIP3    H235547   2.232   2.670   5.369  0.1049 -1.9231  1.7424
 4686TIP3   OH235548   1.451   1.452  34.363 -0.3559  0.2954 -0.3189
 4686TIP3    H135549   1.409   1.538  34.372 -1.3674 -0.3633  2.4310
 4686TIP3    H235550   1.386   1.398  34.317 -0.2870  0.6389 -0.8246
 4687TIP3   OH235551   1.942   3.981   4.941  0.6120  0.3880  0.3567
 4687TIP3    H135552   1.886   3.984   5.019  0.0505 -0.3301 -0.0089
 4687TIP3    H235553   1.983   3.894   4.944 -0.4954 -0.2093 -0.8706
 4688TIP3   OH235554   3.771   3.936  46.061  0.0140  0.2508  0.4490
 4688TIP3    H135555   3.858   3.915  46.096  0.4285  0.7311 -0.2661
 4688TIP3    H235556   3.758   4.028  46.084  0.9008  1.0028 -1.8242
 4689TIP3   OH235557   3.304   3.264   8.408 -0.4886  0.5392 -0.3098
 4689TIP3    H135558   3.245   3.301   8.474 -0.3985 -0.8477  0.6014
 4689TIP3    H235559   3.252   3.196   8.366  0.2813 -0.3457  0.1420
 4690TIP3   OH235560   3.121   3.021  41.308  0.0793  0.2986 -0.4956
 4690TIP3    H135561   3.187   2.962  41.270 -0.1078 -0.6123  0.5305
 4690TIP3    H235562   3.038   2.978  41.290  0.0344 -0.8109  1.8709
 4691TIP3   OH235563   3.116   0.216  37.387 -0.2785 -0.1478  0.1240
 4691TIP3    H135564   3.184   0.165  37.430  1.0066  1.6446  0.3153
 4691TIP3    H235565   3.164   0.281  37.335 -1.8399  0.3770 -0.7206
 4692TIP3   OH235566   3.722   2.321  12.650 -0.0462  0.1614 -0.2167
 4692TIP3    H135567   3.638   2.278  12.658  0.4150 -1.4738 -2.8401
 4692TIP3    H235568   3.732   2.336  12.555  1.9801  1.6220  0.1611
 4693TIP3   OH235569   2.111   1.231  35.425  0.1714 -0.7062 -0.1066
 4693TIP3    H135570   2.165   1.309  35.417 -0.7577 -0.2335 -3.1227
 4693TIP3    H235571   2.144   1.187  35.503 -0.0411  3.2162  2.4591
 4694TIP3   OH235572   1.842   2.353  43.724  0.0931  0.2945  0.3383
 4694TIP3    H135573   1.877   2.312  43.803 -0.7253 -1.1492 -0.0079
 4694TIP3    H235574   1.750   2.371  43.746 -0.3736 -0.8949 -0.5396
 4695TIP3   OH235575   1.321   3.937  32.558 -0.6167  0.2373  0.2625
 4695TIP3    H135576   1.333   3.852  32.515 -0.4096  0.4653 -0.1340
 4695TIP3    H235577   1.362   4.000  32.499  2.8386  0.2077  2.3491
 4696TIP3   OH235578   3.601   2.041   7.659  0.1892  0.4071  0.7511
 4696TIP3    H135579   3.580   2.006   7.573 -0.0228  2.0989  0.0814
 4696TIP3    H235580   3.578   1.971   7.720 -0.7336 -0.3932 -0.4811
 4697TIP3   OH235581   3.681   3.119  37.638  0.4237 -0.4842  0.1094
 4697TIP3    H135582   3.647   3.111  37.549  0.7492 -0.9504  0.0248
 4697TIP3    H235583   3.725   3.204  37.639 -0.2354 -0.1368  0.0535
 4698TIP3   OH235584   1.924   0.272  40.499  0.2110 -0.0411  0.0145
 4698TIP3    H135585   1.831   0.261  40.484  0.3104 -0.5477 -0.2418
 4698TIP3    H235586   1.939   0.236  40.587 -0.0083  0.9925  0.4853
 4699TIP3   OH235587   0.790   3.888  36.645 -0.2752  0.1566  0.5374
 4699TIP3    H135588   0.770   3.838  36.724 -2.1174 -0.7222 -0.4359
 4699TIP3    H235589   0.871   3.851  36.612 -1.6378 -2.3726 -0.2152
 4700TIP3   OH235590   3.330   3.682   7.865  0.2093 -0.2455  0.4563
 4700TIP3    H135591   3.304   3.643   7.782  3.1511 -3.8355  0.9641
 4700TIP3    H235592   3.347   3.774   7.844 -1.3484 -0.4726 -2.2895
 4701TIP3   OH235593   0.732   2.334  47.456 -0.7082  0.1739 -0.4505
 4701TIP3    H135594   0.658   2.307  47.510 -0.7814 -0.0257 -0.6555
 4701TIP3    H235595   0.732   2.430  47.462  1.6964  0.1543  3.2742
 4702TIP3   OH235596   2.625   0.122   4.595 -0.1079  0.2113 -0.1785
 4702TIP3    H135597   2.704   0.174   4.612  0.2638 -0.2108 -0.5852
 4702TIP3    H235598   2.658   0.037   4.565 -0.7038 -0.2827  0.5231
 4703TIP3   OH235599   1.962   0.098   3.965  0.1850 -0.1559 -0.1225
 4703TIP3    H135600   1.997   0.155   3.897  0.8863  0.2424  0.5600
 4703TIP3    H235601   2.032   0.091   4.030  0.5958 -2.7737 -0.7463
 4704TIP3   OH235602   0.990   0.860   5.828  0.1457  0.1382  0.1642
 4704TIP3    H135603   1.021   0.828   5.743 -0.0427  0.2883  0.0368
 4704TIP3    H235604   1.044   0.814   5.893  2.0827  1.8770 -0.0846
 4705TIP3   OH235605   1.520   3.301  29.173 -0.6208  0.1160  0.2190
 4705TIP3    H135606   1.533   3.363  29.101 -1.4474  0.4260  0.3286
 4705TIP3    H235607   1.428   3.275  29.167  0.0629 -2.3379 -0.7846
 4706TIP3   OH235608   0.682   1.796   5.786 -0.4094  0.6457 -0.0717
 4706TIP3    H135609   0.697   1.742   5.707 -4.4187  0.9534 -1.2528
 4706TIP3    H235610   0.731   1.876   5.769  1.0720 -0.3692 -0.8900
 4707TIP3   OH235611   2.531   0.434  45.041 -0.3645 -1.0826  0.0021
 4707TIP3    H135612   2.538   0.514  45.092 -1.1773 -0.7577 -0.3896
 4707TIP3    H235613   2.463   0.383  45.086  0.4229 -1.7377  0.4823
 4708TIP3   OH235614   3.017   3.849   1.812  0.0589  0.6156  0.3943
 4708TIP3    H135615   3.026   3.756   1.832  0.5276  0.8759  1.4396
 4708TIP3    H235616   2.996   3.891   1.895  0.1079  1.4810 -0.0106
 4709TIP3   OH235617   2.303   2.932  31.513 -0.6367  0.1301  0.5294
 4709TIP3    H135618   2.212   2.911  31.491 -0.8564 -0.5708  1.9555
 4709TIP3    H235619   2.347   2.847  31.516 -0.0857  0.4124  0.4727
 4710TIP3   OH235620   0.347   4.086   3.185 -0.0190  0.1813  0.7381
 4710TIP3    H135621   0.370   4.075   3.093  0.0272 -2.0579  0.9723
 4710TIP3    H235622   0.423   4.129   3.224  0.5090 -0.0700 -0.0096
 4711TIP3   OH235623   1.053   2.435  36.767  0.4250  0.5579  0.2078
 4711TIP3    H135624   1.024   2.396  36.684  2.8219 -0.9192 -0.0370
 4711TIP3    H235625   1.082   2.360  36.819 -1.2248  1.4210  2.5506
 4712TIP3   OH235626   2.495   0.496   4.948  0.6368  0.1495 -0.1200
 4712TIP3    H135627   2.495   0.588   4.973 -2.1387 -0.2384  1.7018
 4712TIP3    H235628   2.574   0.460   4.990 -0.7109  0.8131  3.3069
 4713TIP3   OH235629   0.260   2.022  36.943  0.5721 -0.2461 -0.3542
 4713TIP3    H135630   0.316   2.065  36.878  0.9445  2.7905  1.7909
 4713TIP3    H235631   0.190   1.982  36.891  1.2578  1.3858 -2.6747
 4714TIP3   OH235632   0.909   1.777  34.099  0.0561  0.1364  0.3100
 4714TIP3    H135633   0.839   1.842  34.084  0.3112  0.0778 -1.3180
 4714TIP3    H235634   0.989   1.824  34.076  0.4720 -0.0983  1.2546
 4715TIP3   OH235635   0.630   1.905  13.847  0.4269  0.5445 -0.2009
 4715TIP3    H135636   0.724   1.894  13.835  0.4170 -1.7511  1.3120
 4715TIP3    H235637   0.619   1.917  13.941 -0.9231 -1.1664 -0.0980
 4716TIP3   OH235638   0.805   3.068   0.296 -0.2161  0.5839  0.1571
 4716TIP3    H135639   0.790   3.057   0.390 -2.8086 -2.4414 -0.4547
 4716TIP3    H235640   0.774   3.156   0.277  1.4740  1.7520  2.2112
 4717TIP3   OH235641   3.471   4.096  33.363  1.1704  0.4306  0.5440
 4717TIP3    H135642   3.455   4.183  33.399  0.0304  1.1001 -1.4206
 4717TIP3    H235643   3.398   4.042  33.393 -1.0215  1.5405 -2.2705
 4718TIP3   OH235644   0.073   0.777   2.770  0.1513 -0.0359 -0.2752
 4718TIP3    H135645   0.103   0.705   2.825  1.8963  0.4168 -0.5825
 4718TIP3    H235646   0.064   0.851   2.830 -0.5230 -0.1998 -0.1628
 4719TIP3   OH235647   0.420   3.335   7.052 -0.1193 -0.0195  0.3925
 4719TIP3    H135648   0.414   3.401   6.983 -0.1305 -0.1720  0.2456
 4719TIP3    H235649   0.501   3.289   7.034 -0.0230  0.0682  0.5985
 4720TIP3   OH235650   0.875   0.703   9.459  0.2530 -0.0383  0.2665
 4720TIP3    H135651   0.852   0.732   9.547  0.2939 -3.1157  1.4048
 4720TIP3    H235652   0.791   0.697   9.413 -0.2885 -2.0625  1.3877
 4721TIP3   OH235653   3.871   0.472  31.540  0.1335  0.3644  0.2987
 4721TIP3    H135654   3.934   0.511  31.601  0.1862  0.4623  0.1842
 4721TIP3    H235655   3.831   0.547  31.496 -0.9677  0.3568  1.2553
 4722TIP3   OH235656   3.883   2.669  41.952  0.1179  0.5485 -0.1444
 4722TIP3    H135657   3.811   2.635  42.005  0.8059  0.4838  0.7842
 4722TIP3    H235658   3.957   2.610  41.972  0.2774  0.2252 -1.5549
 4723TIP3   OH235659   3.582   2.625  39.529 -0.3192 -0.0995 -0.3230
 4723TIP3    H135660   3.569   2.689  39.458 -2.2107 -0.1954 -0.1322
 4723TIP3    H235661   3.559   2.673  39.608 -0.2004 -0.5790  0.0000
 4724TIP3   OH235662   0.309   0.351  27.069 -0.3355  0.2416  0.0508
 4724TIP3    H135663   0.361   0.284  27.113  1.0617  0.6238 -0.9501
 4724TIP3    H235664   0.257   0.390  27.139 -0.4014 -1.1643  0.8244
 4725TIP3   OH235665   2.394   0.940   3.376 -0.1612 -0.2516 -0.1509
 4725TIP3    H135666   2.381   1.003   3.447  0.0997 -1.4125  0.9509
 4725TIP3    H235667   2.472   0.891   3.400 -0.1882 -0.8210 -1.1403
 4726TIP3   OH235668   1.386   3.557  30.827  0.3007  0.1445  0.1436
 4726TIP3    H135669   1.347   3.577  30.912  0.7564  2.4023 -0.1131
 4726TIP3    H235670   1.473   3.595  30.831 -0.1439  1.5029 -1.7681
 4727TIP3   OH235671   2.884   0.759  41.020  0.1321 -0.0773  0.0741
 4727TIP3    H135672   2.904   0.795  40.933 -0.1803 -0.7629 -0.2859
 4727TIP3    H235673   2.879   0.664  41.006  0.8405 -0.2626  0.9923
 4728TIP3   OH235674   0.379   1.930   9.911 -0.0166  0.1927  0.2516
 4728TIP3    H135675   0.298   1.970   9.944 -0.2443 -0.1624  0.1301
 4728TIP3    H235676   0.351   1.879   9.835  0.1577 -0.7621  0.8141
 4729TIP3   OH235677   3.696   3.283  30.134 -0.0724 -0.1625  0.1196
 4729TIP3    H135678   3.680   3.372  30.102 -1.5929  0.0361  1.2806
 4729TIP3    H235679   3.656   3.227  30.068 -0.8066  0.1209  0.3058
 4730TIP3   OH235680   1.650   1.144   7.881 -0.3203 -0.5288 -0.8172
 4730TIP3    H135681   1.603   1.063   7.863 -1.7877  0.1846 -0.2908
 4730TIP3    H235682   1.590   1.196   7.934  1.0379  0.4424 -0.1776
 4731TIP3   OH235683   2.611   3.662  42.261 -0.1009  0.5353  0.0572
 4731TIP3    H135684   2.601   3.685  42.353  0.2235 -0.7673  0.4353
 4731TIP3    H235685   2.696   3.619  42.255  0.4756  1.7556 -1.1121
 4732TIP3   OH235686   1.124   3.672   7.910 -0.3310  0.0390  0.0544
 4732TIP3    H135687   1.060   3.607   7.940  0.8975 -1.1238  0.2187
 4732TIP3    H235688   1.070   3.743   7.876 -1.7430  0.1198  2.2738
 4733TIP3   OH235689   1.932   0.117   5.992 -0.0171  0.2412 -0.0737
 4733TIP3    H135690   1.974   0.157   5.915  0.0127  1.0543  0.3555
 4733TIP3    H235691   1.881   0.187   6.031 -0.2845 -0.2515  0.4811
 4734TIP3   OH235692   2.985   1.839  46.737  0.3344 -0.6026  0.5735
 4734TIP3    H135693   2.999   1.850  46.831  0.5897  0.5449  0.4117
 4734TIP3    H235694   2.890   1.834  46.727  0.3150 -0.9193  0.9125
 4735TIP3   OH235695   1.986   0.122   7.057  0.1390 -0.0123 -0.3274
 4735TIP3    H135696   1.917   0.178   7.020  1.1944  0.4184 -1.6816
 4735TIP3    H235697   2.054   0.184   7.085  0.5443 -0.5145 -0.2014
 4736TIP3   OH235698   3.197   3.869  15.304 -0.2043 -0.2881  0.1696
 4736TIP3    H135699   3.123   3.886  15.363  2.2800 -0.0403  3.5310
 4736TIP3    H235700   3.230   3.784  15.331  0.4699 -0.6280 -1.6134
 4737TIP3   OH235701   1.798   1.214  33.139  0.4468 -0.3283  0.2545
 4737TIP3    H135702   1.893   1.221  33.144  0.4523 -0.5881  0.5457
 4737TIP3    H235703   1.767   1.254  33.220  0.4303 -2.5768  1.4254
 4738TIP3   OH235704   3.493   3.385  29.279  0.5517  0.2787 -0.2727
 4738TIP3    H135705   3.451   3.300  29.271  0.8610  0.2038 -1.2940
 4738TIP3    H235706   3.543   3.395  29.198  0.1257  1.6424 -0.3975
 4739TIP3   OH235707   0.670   0.717  13.950  0.0571 -0.1034  0.0635
 4739TIP3    H135708   0.742   0.674  13.997  1.3887  0.2731 -1.5312
 4739TIP3    H235709   0.641   0.786  14.010  3.0098  1.6532 -0.3163
 4740TIP3   OH235710   0.759   0.644   5.179 -0.0792 -0.8038 -0.4085
 4740TIP3    H135711   0.808   0.570   5.142  1.1737  1.2713 -3.2645
 4740TIP3    H235712   0.790   0.720   5.131 -1.0499  1.7310  2.6358
 4741TIP3   OH235713   2.944   0.352  34.059 -0.0699 -0.2229  0.3853
 4741TIP3    H135714   2.897   0.299  33.995  0.9538 -0.7273  0.0355
 4741TIP3    H235715   2.906   0.327  34.143 -3.5473  2.5761 -0.1085
 4742TIP3   OH235716   0.004   1.273  46.983 -0.0615  0.3402 -1.3734
 4742TIP3    H135717  -0.063   1.340  46.983 -0.4586 -0.0527 -1.0050
 4742TIP3    H235718   0.011   1.245  47.074  1.9465  1.6910 -1.0434
 4743TIP3   OH235719   1.619   2.170   3.932  0.2327  0.4573 -0.5720
 4743TIP3    H135720   1.693   2.207   3.885  0.0921 -0.7938 -1.8284
 4743TIP3    H235721   1.595   2.091   3.883 -0.8820 -0.0794  0.7419
 4744TIP3   OH235722   0.296   0.641   1.349  0.3694  0.1133  0.1419
 4744TIP3    H135723   0.274   0.554   1.382  0.7149  0.0411  0.1789
 4744TIP3    H235724   0.222   0.696   1.376 -0.1322 -0.2856 -0.3822
 4745TIP3   OH235725   2.430   2.692  32.478  0.0438  0.1403  0.2282
 4745TIP3    H135726   2.456   2.613  32.432  0.1657  1.2143 -1.6575
 4745TIP3    H235727   2.503   2.712  32.536 -0.1716 -1.3278  1.0470
 4746TIP3   OH235728   1.077   1.349   0.351 -0.1835 -0.2172 -0.1163
 4746TIP3    H135729   1.121   1.415   0.298 -1.4703 -0.3759 -1.4554
 4746TIP3    H235730   1.054   1.279   0.289  1.2684 -2.0295  1.2891
 4747TIP3   OH235731   2.435   2.071  44.482 -0.5624 -0.6029  0.0780
 4747TIP3    H135732   2.459   2.019  44.559  0.7373 -2.7983 -1.6918
 4747TIP3    H235733   2.513   2.122  44.462 -1.2833  0.8637  0.8166
 4748TIP3   OH235734   0.813   2.365  40.957 -0.3601  0.4300 -0.2855
 4748TIP3    H135735   0.788   2.304  40.887 -3.1040 -2.0054  2.4920
 4748TIP3    H235736   0.734   2.417  40.971  0.1299  0.8438  0.9795
 4749TIP3   OH235737   1.651   2.496   1.049 -0.1136  0.0185 -0.2027
 4749TIP3    H135738   1.638   2.587   1.074  1.1638  0.9330 -2.5118
 4749TIP3    H235739   1.626   2.445   1.126  1.2669  2.4104  1.9570
 4750TIP3   OH235740   2.901   0.857   1.715  0.3522  0.5591 -0.3374
 4750TIP3    H135741   2.879   0.945   1.682  1.5986  0.8015 -0.6032
 4750TIP3    H235742   2.877   0.798   1.644  0.1268  0.7610 -0.4298
 4751TIP3   OH235743   1.340   1.118  43.196 -0.0437  0.6493 -0.4788
 4751TIP3    H135744   1.381   1.043  43.238 -1.3036  0.0518 -0.2617
 4751TIP3    H235745   1.320   1.178  43.268 -0.7939  0.3108 -0.3894
 4752TIP3   OH235746   3.430   3.092   0.474 -0.7771 -0.4694 -0.3944
 4752TIP3    H135747   3.345   3.109   0.433 -0.0199 -1.0259 -2.2735
 4752TIP3    H235748   3.412   3.019   0.535 -2.1130  1.0014  1.0861
 4753TIP3   OH235749   1.909   3.403   7.746  0.0688  0.1050 -0.0658
 4753TIP3    H135750   1.943   3.332   7.800 -0.2629  0.4766  0.6475
 4753TIP3    H235751   1.955   3.481   7.776 -1.4881  0.6457  1.0369
 4754TIP3   OH235752   0.864   1.810  39.015  0.0182  0.0578  0.3231
 4754TIP3    H135753   0.772   1.816  39.038 -0.1445 -0.1597 -0.2580
 4754TIP3    H235754   0.866   1.812  38.919  0.6206  0.1613  0.3283
 4755TIP3   OH235755   2.583   1.416  15.392 -0.2981  0.2732  0.1002
 4755TIP3    H135756   2.615   1.505  15.403  3.3868 -1.1063  2.2732
 4755TIP3    H235757   2.578   1.381  15.481 -1.5016 -1.7749 -0.6892
 4756TIP3   OH235758   2.955   2.961  34.242  0.5956 -0.4533 -0.8803
 4756TIP3    H135759   2.891   2.891  34.247  0.1863 -0.0863 -0.9031
 4756TIP3    H235760   2.926   3.016  34.169 -0.0863  0.7048  0.2120
 4757TIP3   OH235761   3.543   0.480  11.500 -0.0625  0.7935 -0.1772
 4757TIP3    H135762   3.555   0.474  11.595  0.9662  0.1286 -0.3369
 4757TIP3    H235763   3.614   0.537  11.471  0.2470  0.1687 -0.6627
 4758TIP3   OH235764   0.167   0.111  36.496  0.0309  0.0126  0.1739
 4758TIP3    H135765   0.167   0.015  36.487 -0.9820 -0.1572  1.5051
 4758TIP3    H235766   0.249   0.139  36.457  0.3775 -1.4126 -0.2003
 4759TIP3   OH235767   0.079   0.593  10.169  0.6488  0.3278 -0.0990
 4759TIP3    H135768   0.055   0.529  10.103  1.1509 -1.3858  1.2949
 4759TIP3    H235769   0.173   0.609  10.154  1.1879 -1.3625  1.1740
 4760TIP3   OH235770   2.050   2.056  20.976  0.1871  0.0341  0.4693
 4760TIP3    H135771   2.098   2.126  21.019  1.4933 -0.0425 -0.7963
 4760TIP3    H235772   2.106   1.979  20.986  0.6762  0.0749 -1.5560
 4761TIP3   OH235773   0.040   0.210   7.894  0.3924 -0.0957 -0.5724
 4761TIP3    H135774  -0.025   0.170   7.836 -2.0984  0.0995  1.8875
 4761TIP3    H235775   0.076   0.136   7.944  2.9877 -0.3490 -2.6014
 4762TIP3   OH235776   0.287   3.469   8.243 -0.4652  0.1120 -0.0179
 4762TIP3    H135777   0.243   3.393   8.281 -0.3505 -0.1308 -0.3636
 4762TIP3    H235778   0.251   3.477   8.155  1.2959 -1.0671 -0.9088
 4763TIP3   OH235779   2.976   1.461   9.824 -0.1744  0.6155  0.1084
 4763TIP3    H135780   2.996   1.424   9.910 -0.3858  0.8171  0.2448
 4763TIP3    H235781   2.886   1.491   9.831 -0.2598  0.4503 -0.2492
 4764TIP3   OH235782   2.546   2.202  12.442  0.1926 -0.4559 -0.0147
 4764TIP3    H135783   2.632   2.166  12.462  0.5812  0.6347  0.3144
 4764TIP3    H235784   2.564   2.282  12.392 -0.5188  1.1299  2.1275
 4765TIP3   OH235785   2.462   4.026  36.387 -0.2074  0.2169 -0.1442
 4765TIP3    H135786   2.511   3.944  36.379 -0.2012  0.3665 -2.1334
 4765TIP3    H235787   2.371   4.001  36.375 -0.0414  0.7068 -3.0160
 4766TIP3   OH235788   1.773   2.813  38.959 -0.2493 -0.2446 -0.2062
 4766TIP3    H135789   1.833   2.802  39.034  1.6432 -0.0804 -1.6246
 4766TIP3    H235790   1.806   2.753  38.893 -1.4885  0.0914 -1.1677
 4767TIP3   OH235791   0.425   2.245  43.092 -0.1137  0.5483 -0.1025
 4767TIP3    H135792   0.409   2.173  43.153  0.5679  1.6912  1.5020
 4767TIP3    H235793   0.498   2.215  43.037 -0.8795 -0.5809 -0.5238
 4768TIP3   OH235794   0.647   2.722   2.745  0.1875  0.0363  0.0118
 4768TIP3    H135795   0.609   2.709   2.832  0.5457  1.2474  0.3760
 4768TIP3    H235796   0.635   2.638   2.701  2.1459 -1.4539  2.0448
 4769TIP3   OH235797   1.022   0.048  44.617 -0.2788 -0.0355 -0.0472
 4769TIP3    H135798   1.000   0.139  44.597 -0.2149  0.5256  2.2055
 4769TIP3    H235799   0.939   0.010  44.647 -0.7739 -1.3393 -2.7061
 4770TIP3   OH235800   2.234   1.220  44.710 -0.4143 -0.0176 -0.1378
 4770TIP3    H135801   2.318   1.174  44.700 -1.0279 -0.9546 -1.1423
 4770TIP3    H235802   2.208   1.203  44.801  1.1036  1.4212  0.6277
 4771TIP3   OH235803   4.077   1.882  40.224  0.2942 -0.3703  0.0088
 4771TIP3    H135804   4.158   1.899  40.272  1.2708 -0.8620 -1.3907
 4771TIP3    H235805   4.013   1.942  40.263  0.9327 -0.9401  2.0874
 4772TIP3   OH235806   3.493   2.977  40.737  0.5163 -0.0108  0.4615
 4772TIP3    H135807   3.512   2.894  40.693  1.4133 -0.3069  1.3785
 4772TIP3    H235808   3.474   3.038  40.666  1.7895 -0.5170 -0.3369
 4773TIP3   OH235809   1.584   3.050  39.309  0.0476  0.2132 -0.0938
 4773TIP3    H135810   1.666   3.081  39.346  0.3072 -1.9268  1.2738
 4773TIP3    H235811   1.598   3.053  39.214  1.3442  0.7134  0.0959
 4774TIP3   OH235812   2.280   2.012   9.032 -0.3941 -0.1431 -0.4222
 4774TIP3    H135813   2.289   1.918   9.048 -0.2557 -0.0383  0.1304
 4774TIP3    H235814   2.243   2.018   8.944  1.7694 -0.6880 -1.4559
 4775TIP3   OH235815   0.915   1.627  47.572 -0.1228  0.4650 -0.1178
 4775TIP3    H135816   0.882   1.644  47.484  2.0085 -0.6045 -1.1965
 4775TIP3    H235817   0.966   1.546  47.564 -0.0530  0.2018  2.1603
 4776TIP3   OH235818   3.498   0.759  46.957  0.0228 -1.0645 -0.0289
 4776TIP3    H135819   3.466   0.795  46.875 -0.3010 -1.4004 -0.0555
 4776TIP3    H235820   3.588   0.791  46.965 -0.7762  1.1788  0.7983
 4777TIP3   OH235821   0.785   4.007  41.286  0.5986 -0.0137  0.5704
 4777TIP3    H135822   0.837   3.928  41.272  1.7383  0.6645  0.8685
 4777TIP3    H235823   0.781   4.018  41.381 -0.6608 -0.4033  0.5864
 4778TIP3   OH235824   2.247   1.003   9.505 -0.0667  0.4392  0.0551
 4778TIP3    H135825   2.212   0.917   9.485  0.2682  0.1616  0.6491
 4778TIP3    H235826   2.212   1.060   9.436 -1.0004  0.0141  0.1681
 4779TIP3   OH235827   1.146   0.958  13.197  0.0811 -0.0519 -0.0802
 4779TIP3    H135828   1.219   0.902  13.223  0.0510  0.3307  0.8520
 4779TIP3    H235829   1.104   0.910  13.126  0.3981 -0.9400  0.3135
 4780TIP3   OH235830   2.305   1.328  40.166 -0.5435  0.1972 -0.6901
 4780TIP3    H135831   2.345   1.286  40.090  0.7309  0.1850 -0.0520
 4780TIP3    H235832   2.237   1.384  40.129 -0.9203 -0.8876 -1.7092
 4781TIP3   OH235833   3.174   2.274  41.174  0.0601  0.0016  0.1439
 4781TIP3    H135834   3.110   2.343  41.158  1.0470  0.8958 -0.0986
 4781TIP3    H235835   3.135   2.195  41.137 -0.7543  0.5938 -0.2865
 4782TIP3   OH235836   2.113   0.224   0.066 -0.4956  0.2094 -0.0762
 4782TIP3    H135837   2.103   0.293   0.001 -0.3311  0.6485  0.3571
 4782TIP3    H235838   2.042   0.240   0.129  0.0351  0.4651  0.4564
 4783TIP3   OH235839   0.054   2.959  45.360 -0.0608  0.1274  0.0584
 4783TIP3    H135840   0.118   3.020  45.396 -0.0456  0.7100 -0.9379
 4783TIP3    H235841   0.020   2.912  45.437  0.6353  0.6907  0.7267
 4784TIP3   OH235842   0.193   1.907  12.973  0.2824 -0.0446 -0.1221
 4784TIP3    H135843   0.235   1.898  13.059 -0.8293  1.5388  0.6228
 4784TIP3    H235844   0.251   1.965  12.925  0.7095 -0.6300 -0.3286
 4785TIP3   OH235845   2.717   3.788  40.455  0.1051 -0.1404 -0.1919
 4785TIP3    H135846   2.800   3.833  40.440  0.1163 -0.0847  0.0290
 4785TIP3    H235847   2.669   3.846  40.515 -0.6376  0.4811 -1.3516
 4786TIP3   OH235848   2.017   4.005   9.259 -0.0417  0.0630  0.6472
 4786TIP3    H135849   1.940   3.995   9.203 -0.1954  0.0457  0.8603
 4786TIP3    H235850   2.055   3.917   9.265  0.3631  0.1892  0.0220
 4787TIP3   OH235851   1.225   3.816  35.766  0.3862 -0.4385 -0.1242
 4787TIP3    H135852   1.191   3.727  35.760  0.9498 -0.8482  1.8507
 4787TIP3    H235853   1.319   3.804  35.781  0.5154  0.4892 -0.1655
 4788TIP3   OH235854   2.719   1.685  19.276  0.3909 -0.4622  0.5020
 4788TIP3    H135855   2.797   1.737  19.258 -0.1690  0.1043 -0.3892
 4788TIP3    H235856   2.648   1.749  19.278 -0.0742 -0.9862  1.1918
 4789TIP3   OH235857   0.498   3.623  11.079  0.4110 -0.1087  0.1006
 4789TIP3    H135858   0.501   3.532  11.047  1.4434  0.0224 -0.2057
 4789TIP3    H235859   0.489   3.614  11.174 -0.7229 -0.5106 -0.0224
 4790TIP3   OH235860   1.255   2.058   9.342 -0.1183  0.2267 -0.0132
 4790TIP3    H135861   1.164   2.035   9.363  0.5211 -0.2629  2.4664
 4790TIP3    H235862   1.272   2.137   9.393  0.7256  0.6393 -0.8922
 4791TIP3   OH235863   2.397   1.533   8.344 -0.1335  0.3150  0.3296
 4791TIP3    H135864   2.424   1.557   8.432 -1.6734 -0.8525  1.1615
 4791TIP3    H235865   2.434   1.602   8.288  0.8062  1.1115  1.8676
 4792TIP3   OH235866   0.675   1.965  46.898  0.1876 -0.2961 -0.0091
 4792TIP3    H135867   0.618   2.015  46.955  2.2434  2.4239 -0.1549
 4792TIP3    H235868   0.715   1.900  46.955  0.3977  0.8034  1.1336
 4793TIP3   OH235869   1.735   0.614   4.946  0.1751  0.0586  0.1940
 4793TIP3    H135870   1.811   0.577   4.903 -0.5565 -1.1760 -0.0921
 4793TIP3    H235871   1.749   0.709   4.944  1.1282 -0.0922 -0.9054
 4794TIP3   OH235872   3.394   2.131  36.404 -0.3118  0.5754  0.1312
 4794TIP3    H135873   3.300   2.128  36.387 -0.4687 -3.4899  0.8175
 4794TIP3    H235874   3.403   2.188  36.481 -2.1480  1.1302 -0.0213
 4795TIP3   OH235875   0.007   0.142   7.024 -0.2692 -0.3548 -0.0985
 4795TIP3    H135876  -0.054   0.087   7.072 -0.4713  1.0007  1.2932
 4795TIP3    H235877   0.094   0.112   7.053 -0.3858  1.2225  2.1999
 4796TIP3   OH235878   1.702   2.922  35.082  0.1394  0.0145 -0.1247
 4796TIP3    H135879   1.616   2.904  35.119  1.0312 -1.7668  1.2198
 4796TIP3    H235880   1.761   2.922  35.158  1.1318  3.1087 -0.7297
 4797TIP3   OH235881   1.389   2.247  31.803 -0.6294 -0.3865  0.3294
 4797TIP3    H135882   1.376   2.307  31.876 -0.4013 -1.7486  1.5289
 4797TIP3    H235883   1.466   2.282  31.757  0.5850 -0.6686  2.0321
 4798TIP3   OH235884   1.838   2.072   7.267  0.0695  0.5421 -0.2900
 4798TIP3    H135885   1.767   2.122   7.307 -0.8324 -0.0067 -1.1591
 4798TIP3    H235886   1.795   1.995   7.231  1.4011 -0.8298  0.9106
 4799TIP3   OH235887   2.175   3.274  37.895  0.5165 -0.0841  0.4497
 4799TIP3    H135888   2.257   3.310  37.927  0.6645 -0.5844  0.6541
 4799TIP3    H235889   2.138   3.342  37.839  0.9118  0.2689  0.6152
 4800TIP3   OH235890   0.681   3.544  44.122 -0.7659 -0.4760  0.0506
 4800TIP3    H135891   0.776   3.531  44.130 -0.6722  0.9608  1.8524
 4800TIP3    H235892   0.647   3.523  44.208 -2.0593 -0.5494 -0.4573
 4801TIP3   OH235893   0.439   1.319   5.282  0.1680 -0.0787 -0.0531
 4801TIP3    H135894   0.487   1.390   5.239  0.3515  0.5979  1.2042
 4801TIP3    H235895   0.490   1.240   5.264  0.2939  0.2008 -0.9557
 4802TIP3   OH235896   1.296   3.246  38.197  0.1676  0.5968  0.1623
 4802TIP3    H135897   1.217   3.294  38.171 -1.4865 -2.1492 -0.2963
 4802TIP3    H235898   1.317   3.279  38.284 -1.5767  1.3088  0.3546
 4803TIP3   OH235899   0.184   1.819  34.392 -0.6184  0.6117  0.4866
 4803TIP3    H135900   0.254   1.764  34.427 -2.7883 -4.1231 -1.6515
 4803TIP3    H235901   0.114   1.813  34.456 -1.1071  0.2598 -0.0668
 4804TIP3   OH235902   2.110   2.374  34.838 -0.2532 -0.2680  0.0856
 4804TIP3    H135903   2.062   2.314  34.895 -1.4394 -0.9036 -1.4809
 4804TIP3    H235904   2.042   2.430  34.800  0.7203  1.4307  0.7402
 4805TIP3   OH235905   3.081   2.839  40.726 -0.1127 -0.2827  0.7100
 4805TIP3    H135906   3.116   2.895  40.656 -1.2808  0.6518  0.8423
 4805TIP3    H235907   3.158   2.799  40.766  0.5473 -2.2652 -2.2386
 4806TIP3   OH235908   3.874   2.823   7.897  0.4727 -0.0076  0.3344
 4806TIP3    H135909   3.924   2.830   7.816  1.1195 -0.7405  0.6564
 4806TIP3    H235910   3.885   2.908   7.940  1.0177  0.0170  0.1521
 4807TIP3   OH235911   0.099   1.873  40.601  0.1605  0.4537 -0.0631
 4807TIP3    H135912   0.122   1.826  40.521  1.0983  2.2479 -0.9192
 4807TIP3    H235913   0.177   1.925  40.622 -0.9723  2.0096  0.5185
 4808TIP3   OH235914   2.088   1.319  12.127  0.2659 -0.4223 -0.0116
 4808TIP3    H135915   2.037   1.270  12.190 -0.6090 -0.4462 -0.7222
 4808TIP3    H235916   2.165   1.348  12.176 -0.7665  0.2337  1.2836
 4809TIP3   OH235917   0.836   1.571  39.743  0.0806  0.0204 -0.4397
 4809TIP3    H135918   0.928   1.594  39.738  0.8039 -2.6045 -0.7956
 4809TIP3    H235919   0.816   1.531  39.658 -0.7874 -1.2828  0.3275
 4810TIP3   OH235920   0.987   3.962  43.486  0.1395 -0.5552  0.0410
 4810TIP3    H135921   0.927   3.906  43.535 -0.7743 -0.9147 -1.4523
 4810TIP3    H235922   1.070   3.913  43.488 -1.0833 -3.0873 -2.8840
 4811TIP3   OH235923   3.065   0.980   8.357 -0.0911  0.3373 -0.9507
 4811TIP3    H135924   3.156   0.956   8.337 -0.6440 -3.1924  0.1564
 4811TIP3    H235925   3.073   1.055   8.417  2.1758 -0.4821 -0.1095
 4812TIP3   OH235926   0.308   2.715  37.930  0.3624  0.0241 -0.6139
 4812TIP3    H135927   0.361   2.638  37.945 -0.4079 -1.1742 -3.3358
 4812TIP3    H235928   0.225   2.697  37.974  0.9092  0.2972  0.5626
 4813TIP3   OH235929   3.967   2.083  37.852 -0.5377 -0.1367  0.2331
 4813TIP3    H135930   4.047   2.073  37.801 -0.6227  0.9508 -0.1411
 4813TIP3    H235931   3.936   1.993  37.865  0.3840 -0.5327 -0.1814
 4814TIP3   OH235932   3.939   0.041  36.541 -0.4610 -0.3451  0.3713
 4814TIP3    H135933   3.983   0.124  36.559 -0.1966 -0.2352 -0.7425
 4814TIP3    H235934   3.885   0.025  36.619 -1.3283  1.3941  0.1818
 4815TIP3   OH235935   4.015   0.849  47.493  0.4556  0.5482  0.2996
 4815TIP3    H135936   4.021   0.796  47.572  0.7321 -2.3596 -1.4979
 4815TIP3    H235937   4.106   0.874  47.473  0.6035 -0.1665  0.0409
 4816TIP3   OH235938   2.346   3.283  41.380 -0.1394 -0.2476  0.2375
 4816TIP3    H135939   2.399   3.354  41.343  0.2759 -1.0145 -0.7082
 4816TIP3    H235940   2.392   3.203  41.354 -2.3580 -1.0247 -1.6926
 4817TIP3   OH235941   3.257   1.751  32.088 -0.2659 -0.7469 -0.1096
 4817TIP3    H135942   3.273   1.746  32.182 -0.7229  1.3042  0.1060
 4817TIP3    H235943   3.218   1.666  32.066 -0.3911 -1.1561  1.5711
 4818TIP3   OH235944   1.748   1.767  38.690  0.4271  0.1302 -0.1220
 4818TIP3    H135945   1.700   1.701  38.641  1.9197 -0.5547 -0.7198
 4818TIP3    H235946   1.825   1.721  38.724 -0.0792  0.7923  2.1351
 4819TIP3   OH235947   1.940   0.981  46.546  0.1578  0.0365  0.5930
 4819TIP3    H135948   1.998   1.031  46.488 -0.5763 -0.8047 -0.8974
 4819TIP3    H235949   1.997   0.913  46.583  0.7379  0.8583  1.2580
 4820TIP3   OH235950   0.888   2.224  40.579 -0.3708 -0.4483 -0.3843
 4820TIP3    H135951   0.802   2.210  40.620 -0.2096  1.3686  0.6883
 4820TIP3    H235952   0.868   2.237  40.486 -1.2036 -0.4717 -0.2200
 4821TIP3   OH235953   2.504   0.404  30.704 -0.1401  0.5629  0.2638
 4821TIP3    H135954   2.548   0.338  30.650  0.1370  0.8009  0.1939
 4821TIP3    H235955   2.553   0.485  30.687  1.2325  0.2430  2.4230
 4822TIP3   OH235956   0.027   2.066  45.226 -0.0822  0.1753  0.7464
 4822TIP3    H135957   0.083   2.133  45.265  1.3491 -0.5628  0.0487
 4822TIP3    H235958  -0.062   2.100  45.236  0.4423  1.1987  2.2647
 4823TIP3   OH235959   2.293   2.004  37.041 -0.1445 -0.0831  0.1179
 4823TIP3    H135960   2.281   2.058  37.118 -0.0088  1.1475 -0.6874
 4823TIP3    H235961   2.207   1.967  37.022 -0.1591 -0.4470  0.8860
 4824TIP3   OH235962   1.080   1.970  41.781 -0.1729  0.5543 -0.0911
 4824TIP3    H135963   1.104   2.060  41.756 -0.5239  1.0688  1.3630
 4824TIP3    H235964   0.990   1.977  41.813 -0.6521 -0.5493 -1.1135
 4825TIP3   OH235965   1.064   0.334  33.853 -0.1595 -0.1338 -0.3553
 4825TIP3    H135966   1.020   0.345  33.768 -2.6610 -0.4131  0.8138
 4825TIP3    H235967   1.036   0.409  33.904  1.4313  0.0949  0.2084
 4826TIP3   OH235968   2.977   0.317  44.564 -0.2413 -0.5469 -0.0450
 4826TIP3    H135969   2.950   0.405  44.591 -1.4659 -0.5573 -1.1422
 4826TIP3    H235970   3.039   0.289  44.631  2.3841  2.2485 -1.0928
 4827TIP3   OH235971   0.306   3.825  29.053 -0.0465 -0.6593 -0.3046
 4827TIP3    H135972   0.384   3.777  29.080  1.3221  1.3654 -0.4382
 4827TIP3    H235973   0.286   3.791  28.965  0.5534 -1.3219 -0.1907
 4828TIP3   OH235974   0.334   3.555   5.750 -0.2855  0.2347 -0.4678
 4828TIP3    H135975   0.279   3.477   5.745 -1.3072  0.8104  1.0000
 4828TIP3    H235976   0.423   3.523   5.732 -0.4550 -1.5630  1.4310
 4829TIP3   OH235977   0.584   2.954   4.996  0.5482  0.2931 -0.4631
 4829TIP3    H135978   0.499   2.928   4.961  0.5438  1.6465 -1.5341
 4829TIP3    H235979   0.647   2.901   4.948  0.3145 -1.1553  0.7589
 4830TIP3   OH235980   3.255   0.424  32.931  0.2014  0.1788  0.4619
 4830TIP3    H135981   3.244   0.396  32.840 -0.2260 -0.5237  0.7284
 4830TIP3    H235982   3.172   0.465  32.953 -0.9221 -2.4497  1.5133
 4831TIP3   OH235983   2.206   2.417  36.956  0.2906 -0.6650 -0.3495
 4831TIP3    H135984   2.241   2.345  36.904 -0.5782 -1.1388 -0.2938
 4831TIP3    H235985   2.226   2.394  37.047 -1.2531 -1.5881 -0.2039
 4832TIP3   OH235986   1.923   3.742   9.719 -0.0895 -0.2739 -0.4466
 4832TIP3    H135987   1.895   3.706   9.635 -1.6162 -0.9563  0.3274
 4832TIP3    H235988   1.869   3.820   9.731 -0.8535 -0.9332  0.5130
 4833TIP3   OH235989   0.616   1.286   4.546  0.6549  0.2300  0.2718
 4833TIP3    H135990   0.678   1.242   4.603  1.1872 -1.8260 -1.7374
 4833TIP3    H235991   0.661   1.293   4.462 -1.0536  0.6367 -0.6746
 4834TIP3   OH235992   0.170   1.806  43.245  0.4211 -0.3185  0.3765
 4834TIP3    H135993   0.187   1.768  43.332  0.0293  1.3621  1.2270
 4834TIP3    H235994   0.075   1.817  43.242  0.3734 -0.8627 -0.5118
 4835TIP3   OH235995   2.154   3.470   2.349  0.0032 -0.2864  0.0735
 4835TIP3    H135996   2.061   3.493   2.339 -0.1740 -1.2997 -0.6958
 4835TIP3    H235997   2.194   3.551   2.381 -1.0777  0.2771  0.0771
 4836TIP3   OH235998   3.795   3.107  41.674  0.8896 -0.1585 -0.2447
 4836TIP3    H135999   3.701   3.111  41.695  0.7549  1.6501 -1.0137
 4836TIP3    H236000   3.837   3.155  41.745  1.3761 -1.8216  0.6376
 4837TIP3   OH236001   3.672   1.629  18.787 -0.0398 -0.5312  0.1038
 4837TIP3    H136002   3.581   1.622  18.759 -0.0630 -0.7590  0.2298
 4837TIP3    H236003   3.722   1.643  18.706 -0.0152 -1.9943 -0.1575
 4838TIP3   OH236004   1.921   1.359  45.810 -0.4470 -0.1032  0.4056
 4838TIP3    H136005   1.942   1.279  45.859  0.8879  0.0780  0.1628
 4838TIP3    H236006   1.874   1.328  45.733 -1.2501 -0.5154  1.0294
 4839TIP3   OH236007   3.254   1.351   4.945 -0.4797  0.2137 -0.1449
 4839TIP3    H136008   3.197   1.281   4.976 -0.4131 -0.0428 -0.5997
 4839TIP3    H236009   3.330   1.347   5.004 -1.1962  0.9637  0.8638
 4840TIP3   OH236010   2.708   2.812   1.980  0.8173  0.6604 -0.0735
 4840TIP3    H136011   2.784   2.787   2.032  0.4845  2.5911  1.4800
 4840TIP3    H236012   2.639   2.753   2.008  1.3775 -0.2742 -0.5771
 4841TIP3   OH236013   2.378   0.351  32.253  0.5500 -0.2381  0.0379
 4841TIP3    H136014   2.330   0.357  32.336 -0.0790 -0.0135 -0.3324
 4841TIP3    H236015   2.414   0.438  32.239 -0.8307  0.2355 -0.7843
 4842TIP3   OH236016   2.975   0.995  21.010 -0.5937 -0.2065  0.1046
 4842TIP3    H136017   3.017   1.065  21.061 -0.5246  2.3631 -3.1225
 4842TIP3    H236018   2.888   0.986  21.048 -0.3417  1.1585  1.0657
 4843TIP3   OH236019   2.837   3.023  11.484  0.0715 -0.1637 -0.4322
 4843TIP3    H136020   2.774   3.090  11.512  1.3454  0.8758  0.0549
 4843TIP3    H236021   2.834   2.957  11.552  0.6814  0.7037  0.4712
 4844TIP3   OH236022   1.285   0.808  44.538  0.2722 -0.0810  0.2974
 4844TIP3    H136023   1.346   0.739  44.562 -0.3427 -1.3361 -1.5129
 4844TIP3    H236024   1.217   0.804  44.605  1.3323  0.2619  1.4253
 4845TIP3   OH236025   3.925   2.482   7.097  0.2366  0.1178 -0.7703
 4845TIP3    H136026   3.967   2.567   7.110  0.7079 -0.2480  0.3110
 4845TIP3    H236027   3.999   2.420   7.094 -0.0511 -0.1741 -2.3796
 4846TIP3   OH236028   2.833   1.509  10.865  0.0261  0.3441 -0.0341
 4846TIP3    H136029   2.853   1.602  10.877  2.4476  0.3462 -2.9169
 4846TIP3    H236030   2.913   1.463  10.893  0.6129 -0.4382 -2.6555
 4847TIP3   OH236031   2.285   3.154  46.235 -0.1993  0.2844  0.4238
 4847TIP3    H136032   2.250   3.068  46.258 -0.4845  0.9889  2.9179
 4847TIP3    H236033   2.377   3.150  46.262 -0.3962  0.9719  1.2414
 4848TIP3   OH236034   1.643   3.947  32.708  0.2208 -0.4487 -0.4082
 4848TIP3    H136035   1.566   3.897  32.733 -0.1180 -0.7942 -2.0470
 4848TIP3    H236036   1.716   3.899  32.748 -0.3492 -0.5067  0.5793
 4849TIP3   OH236037   2.768   2.747  40.729 -0.0689 -0.5540 -0.5035
 4849TIP3    H136038   2.853   2.789  40.741 -1.2689  1.4117  1.9361
 4849TIP3    H236039   2.706   2.820  40.724 -1.9950 -1.9210  1.5763
 4850TIP3   OH236040   1.365   0.405  36.551  0.1406 -0.7505 -0.3156
 4850TIP3    H136041   1.407   0.467  36.610  3.4410 -2.2215 -0.9291
 4850TIP3    H236042   1.344   0.329  36.606  1.0034 -1.1697 -0.5569
 4851TIP3   OH236043   2.693   2.251  13.459 -0.1180  0.5764  0.5735
 4851TIP3    H136044   2.740   2.170  13.438  1.3736  1.9060 -1.7545
 4851TIP3    H236045   2.746   2.292  13.527 -0.4305  0.0206  1.1706
 4852TIP3   OH236046   1.859   2.627  41.583  0.2268 -0.0944  0.1183
 4852TIP3    H136047   1.926   2.572  41.623 -1.4248 -1.9974  0.4075
 4852TIP3    H236048   1.864   2.606  41.490  0.5853  0.4048  0.0200
 4853TIP3   OH236049   0.163   2.093  11.235  0.3309  0.5882  0.0072
 4853TIP3    H136050   0.224   2.131  11.298  0.2211  2.3624 -0.9021
 4853TIP3    H236051   0.174   1.998  11.246  2.0691  0.8549  0.9968
 4854TIP3   OH236052   1.295   3.360  40.181  0.1480 -0.1802  0.3780
 4854TIP3    H136053   1.288   3.364  40.276 -3.4501  0.2383  0.2095
 4854TIP3    H236054   1.346   3.438  40.158 -0.3306  0.6075  1.8672
 4855TIP3   OH236055   0.919   1.078   9.386 -0.5316 -0.7185  0.2187
 4855TIP3    H136056   0.835   1.054   9.346 -1.7483  2.4813  0.5545
 4855TIP3    H236057   0.895   1.131   9.461  1.7205  2.2450 -0.9720
 4856TIP3   OH236058   2.645   2.205   6.017  0.6118 -0.8237  0.0126
 4856TIP3    H136059   2.564   2.181   5.972  0.7336 -0.4310 -0.4215
 4856TIP3    H236060   2.647   2.300   6.013 -0.2657 -0.6430  2.4208
 4857TIP3   OH236061   1.945   0.078   7.543  0.5616  0.1572 -0.1116
 4857TIP3    H136062   1.937  -0.013   7.517 -0.7848  0.6565 -1.6810
 4857TIP3    H236063   2.039   0.094   7.547  0.8487 -0.7769 -1.9063
 4858TIP3   OH236064   2.593   0.852   6.887 -0.0186 -0.3227 -0.4378
 4858TIP3    H136065   2.521   0.833   6.946  0.5310 -1.5643 -0.1315
 4858TIP3    H236066   2.671   0.824   6.935  0.4427 -1.3601 -1.7134
 4859TIP3   OH236067   3.855   0.751  35.517 -0.3912 -0.1527 -0.4922
 4859TIP3    H136068   3.883   0.693  35.588  1.0455  0.2607 -0.6880
 4859TIP3    H236069   3.789   0.808  35.557 -0.5276 -0.7541  0.1606
 4860TIP3   OH236070   3.074   3.189   1.514  0.1166  0.2023 -0.4024
 4860TIP3    H136071   2.992   3.186   1.465  0.7466 -0.1443 -1.4640
 4860TIP3    H236072   3.086   3.100   1.546  0.0776  0.2505 -0.2560
 4861TIP3   OH236073   3.099   1.084  32.514  0.3346 -0.1325 -0.3434
 4861TIP3    H136074   3.114   1.019  32.445  1.2052 -0.0945 -0.1882
 4861TIP3    H236075   3.183   1.092  32.559 -0.1300  0.1069  0.5009
 4862TIP3   OH236076   0.261   1.603   6.060  0.2703  0.0294 -0.3132
 4862TIP3    H136077   0.351   1.598   6.093  0.3975 -1.2901 -0.8249
 4862TIP3    H236078   0.207   1.577   6.135  0.4865 -1.7248 -0.7279
 4863TIP3   OH236079   3.742   0.988  45.003  0.0827  0.0670 -0.4557
 4863TIP3    H136080   3.698   0.997  44.919 -1.1137 -1.6119 -0.0850
 4863TIP3    H236081   3.792   1.069  45.014 -1.3301  1.1848 -1.8530
 4864TIP3   OH236082   1.296   1.316  31.022  0.1985  0.3618 -0.7537
 4864TIP3    H136083   1.271   1.246  30.962 -3.2309  1.8658 -1.3058
 4864TIP3    H236084   1.214   1.348  31.057  1.8176  2.4646  1.4366
 4865TIP3   OH236085   3.640   1.411   5.662 -0.0157 -0.0480  0.3013
 4865TIP3    H136086   3.669   1.409   5.753  0.5169  1.8969  0.2117
 4865TIP3    H236087   3.672   1.494   5.628  2.2249 -1.8787 -2.4940
 4866TIP3   OH236088   0.429   1.830  38.686 -0.5809  0.1247  0.1793
 4866TIP3    H136089   0.369   1.760  38.712 -1.7336  0.9547 -0.1975
 4866TIP3    H236090   0.441   1.817  38.592  0.1978 -0.2887  0.3180
 4867TIP3   OH236091   2.730   0.099   5.380  0.1263  0.3041  0.2325
 4867TIP3    H136092   2.744   0.143   5.464 -0.7438  0.8859  0.0857
 4867TIP3    H236093   2.808   0.119   5.329 -0.1677  1.5448  0.2401
 4868TIP3   OH236094   2.097   1.103  13.836  0.0777 -0.2713 -0.4595
 4868TIP3    H136095   2.073   1.113  13.928 -1.1701  1.3551 -0.9178
 4868TIP3    H236096   2.085   1.010  13.818  1.7367 -0.8999  1.3613
 4869TIP3   OH236097   3.160   0.739   1.664 -0.3701 -0.0043 -0.1712
 4869TIP3    H136098   3.085   0.785   1.702  0.0783 -0.1643  0.9582
 4869TIP3    H236099   3.185   0.675   1.731 -0.4043 -1.2694 -1.3258
 4870TIP3   OH236100   0.660   3.402  37.274 -0.1131  0.3332  0.1850
 4870TIP3    H136101   0.739   3.418  37.325 -0.1988  0.9725  0.1265
 4870TIP3    H236102   0.589   3.403  37.338 -0.4188  2.8002 -0.1115
 4871TIP3   OH236103   3.614   0.464  36.759  0.0599 -0.3744  0.4506
 4871TIP3    H136104   3.617   0.377  36.800 -0.7164 -0.8342 -0.4156
 4871TIP3    H236105   3.557   0.515  36.816  0.7135 -0.3504  1.0983
 4872TIP3   OH236106   0.720   1.373  17.009  0.1553  0.2088  0.4236
 4872TIP3    H136107   0.699   1.410  17.094  0.1039  0.4460  0.3073
 4872TIP3    H236108   0.794   1.424  16.978 -0.3787  0.7018 -0.0589
 4873TIP3   OH236109   2.578   1.117   5.157  0.3021  0.2402  0.6881
 4873TIP3    H136110   2.498   1.067   5.142  0.2445  0.7019 -0.6260
 4873TIP3    H236111   2.552   1.188   5.216 -0.2060  0.2536  0.4485
 4874TIP3   OH236112   3.020   0.759  11.098  0.0400  0.6034 -0.2769
 4874TIP3    H136113   2.997   0.764  11.005 -1.1380 -1.9849 -0.2316
 4874TIP3    H236114   3.080   0.684  11.104 -0.0149  0.6330  1.0643
 4875TIP3   OH236115   0.788   0.210   7.443  0.4124  0.4081  0.0273
 4875TIP3    H136116   0.810   0.159   7.520  0.3262 -0.4003 -0.4742
 4875TIP3    H236117   0.795   0.149   7.370 -0.5182  0.8902 -0.4902
 4876TIP3   OH236118   1.464   3.471  27.098  0.0490  0.5517 -0.1429
 4876TIP3    H136119   1.446   3.563  27.078 -1.8512 -0.0038 -1.3052
 4876TIP3    H236120   1.388   3.424  27.064  1.2626 -1.5348 -0.1459
 4877TIP3   OH236121   3.426   3.016  42.916 -0.0737 -0.3845 -0.2700
 4877TIP3    H136122   3.511   3.026  42.958 -0.0539 -0.1568 -0.3652
 4877TIP3    H236123   3.375   2.962  42.977 -0.5480  1.1761  0.7855
 4878TIP3   OH236124   1.279   0.977  33.648  0.2713  0.6737 -0.2477
 4878TIP3    H136125   1.283   0.990  33.743  0.3702  0.1174 -0.1688
 4878TIP3    H236126   1.193   0.938  33.633  0.5412  0.0688 -0.2865
 4879TIP3   OH236127   3.843   1.286  14.301 -0.4029 -0.2789 -0.3452
 4879TIP3    H136128   3.851   1.257  14.210 -0.2208  2.2968 -1.2405
 4879TIP3    H236129   3.933   1.298  14.330 -0.4696 -0.3601 -0.1083
 4880TIP3   OH236130   2.402   0.757  47.243  0.0249  0.0736  0.2588
 4880TIP3    H136131   2.395   0.844  47.282  0.3476  1.8017 -3.1556
 4880TIP3    H236132   2.455   0.707  47.306  0.7173  2.6411  1.8650
 4881TIP3   OH236133   3.284   1.935   7.880 -0.1389  0.0683 -0.0422
 4881TIP3    H136134   3.235   2.015   7.861  0.3748 -0.2470 -3.3175
 4881TIP3    H236135   3.353   1.962   7.941 -1.4035  1.5318  0.8279
 4882TIP3   OH236136   3.037   2.746   8.879 -0.1572  0.3278 -0.8478
 4882TIP3    H136137   2.974   2.723   8.948  0.6148 -2.6165 -0.9852
 4882TIP3    H236138   3.122   2.731   8.919  0.3466  0.4524 -1.8525
 4883TIP3   OH236139   2.193   3.874  45.942 -0.4488  0.1995 -0.1156
 4883TIP3    H136140   2.234   3.818  46.008 -1.5613 -0.1739  0.2664
 4883TIP3    H236141   2.216   3.963  45.969 -0.1420  0.0129  0.2514
 4884TIP3   OH236142   0.320   2.184  44.220 -0.7874  0.2183  0.0883
 4884TIP3    H136143   0.225   2.189  44.213 -0.7071  1.8717 -0.2444
 4884TIP3    H236144   0.352   2.247  44.156  0.4686  1.2138  1.6350
 4885TIP3   OH236145   3.614   0.865  46.606  0.2235  0.4865  0.1104
 4885TIP3    H136146   3.537   0.859  46.663 -1.2449 -0.5751 -1.8414
 4885TIP3    H236147   3.683   0.900  46.662 -1.1238 -0.4161  2.4853
 4886TIP3   OH236148   1.809   3.548  37.906 -0.0952 -0.1588  0.2006
 4886TIP3    H136149   1.820   3.471  37.962 -0.7573 -1.0458 -0.8264
 4886TIP3    H236150   1.898   3.573  37.881  0.0876 -2.1466 -1.4241
 4887TIP3   OH236151   1.236   2.132  42.601 -0.0197  0.0903 -0.1162
 4887TIP3    H136152   1.250   2.061  42.537  0.6439  0.6397 -0.6005
 4887TIP3    H236153   1.232   2.087  42.685  0.6067 -0.5186 -0.3929
 4888TIP3   OH236154   0.435   0.225  40.596  0.4341 -0.5384 -0.1859
 4888TIP3    H136155   0.469   0.135  40.587  0.5766 -0.4209 -0.8495
 4888TIP3    H236156   0.416   0.233  40.690 -0.9613 -1.7580 -0.3163
 4889TIP3   OH236157   1.966   2.182   0.684 -0.3186  0.1405 -0.2206
 4889TIP3    H136158   1.982   2.202   0.776 -1.4350  4.2704 -0.7139
 4889TIP3    H236159   1.896   2.117   0.686 -2.4570  2.2636  2.0075
 4890TIP3   OH236160   2.731   3.849  28.578  0.1711 -0.2503  0.8798
 4890TIP3    H136161   2.735   3.915  28.647  0.5571 -1.2914  1.8832
 4890TIP3    H236162   2.714   3.767  28.624  1.3606 -1.1173 -0.1651
 4891TIP3   OH236163   1.720   0.035  41.740 -0.3344  0.2836  0.4550
 4891TIP3    H136164   1.744  -0.025  41.669  0.4154  0.3712  0.6363
 4891TIP3    H236165   1.650   0.089  41.702 -0.8583 -0.5418  0.2173
 4892TIP3   OH236166   3.936   1.638   7.485  0.1047 -0.5409  0.5183
 4892TIP3    H136167   3.999   1.661   7.553  1.9118 -1.6293 -0.6920
 4892TIP3    H236168   3.940   1.711   7.423 -1.0528  0.1369  1.2005
 4893TIP3   OH236169   0.692   3.162  35.988  0.1327  0.0481 -0.6042
 4893TIP3    H136170   0.716   3.072  35.970  2.4093  0.7579 -1.4543
 4893TIP3    H236171   0.643   3.190  35.911  0.5473 -0.0903 -0.9207
 4894TIP3   OH236172   2.184   1.922  18.250 -0.7525 -1.2734  0.5313
 4894TIP3    H136173   2.090   1.929  18.265 -0.6084 -0.4021  1.0930
 4894TIP3    H236174   2.211   2.011  18.227 -0.2761 -1.7688 -0.9274
 4895TIP3   OH236175   1.906   2.880  32.611  0.6751 -0.7802 -0.2406
 4895TIP3    H136176   1.991   2.922  32.599  0.3287 -0.5384 -2.1698
 4895TIP3    H236177   1.869   2.924  32.688  2.1958 -0.7710  0.5228
 4896TIP3   OH236178   2.254   3.947  12.407 -0.1391  0.6656  0.2668
 4896TIP3    H136179   2.201   3.970  12.332 -0.2321 -0.5363 -0.0468
 4896TIP3    H236180   2.192   3.940  12.480 -0.0842  1.5621  0.4079
 4897TIP3   OH236181   3.525   0.750  35.247  0.3098 -0.1314  0.1217
 4897TIP3    H136182   3.609   0.772  35.288  0.7541  2.5141 -1.9334
 4897TIP3    H236183   3.460   0.792  35.304  0.5387 -0.3595  0.5614
 4898TIP3   OH236184   0.571   1.750  31.750 -0.7482 -0.5373  0.4590
 4898TIP3    H136185   0.533   1.785  31.670 -0.9180 -0.2937  0.6454
 4898TIP3    H236186   0.665   1.746  31.732 -0.6408  0.6721  0.6822
 4899TIP3   OH236187   2.165   1.216  39.689 -0.0616  0.6207  0.1300
 4899TIP3    H136188   2.102   1.169  39.744 -0.3052  2.4306  1.4887
 4899TIP3    H236189   2.111   1.264  39.626  0.2360 -2.0892 -2.4188
 4900TIP3   OH236190   2.532   3.241   1.730  0.3747  0.0828 -0.0608
 4900TIP3    H136191   2.547   3.172   1.794 -0.5515  0.1926  0.2895
 4900TIP3    H236192   2.449   3.219   1.689 -0.3934  1.4363  0.6787
 4901TIP3   OH236193   1.644   1.185  15.899  0.3496  0.0386  0.3986
 4901TIP3    H136194   1.716   1.123  15.906 -0.7844 -1.4788 -0.6829
 4901TIP3    H236195   1.584   1.161  15.969  0.1447  0.2480  0.2961
 4902TIP3   OH236196   2.187   1.775  14.436 -0.0015  0.1550 -0.8981
 4902TIP3    H136197   2.096   1.744  14.439  0.5134 -1.4435 -0.0800
 4902TIP3    H236198   2.220   1.743  14.353  0.3769 -1.1298 -0.2847
 4903TIP3   OH236199   1.495   2.738   0.825 -0.0659  0.0189  0.9390
 4903TIP3    H136200   1.462   2.659   0.867 -1.3127  0.6936  1.2955
 4903TIP3    H236201   1.499   2.803   0.896 -0.6780  0.7331  0.3469
 4904TIP3   OH236202   3.471   0.185  11.024 -0.0372  0.0137 -0.0766
 4904TIP3    H136203   3.537   0.241  11.065  1.3220 -1.9294  0.5617
 4904TIP3    H236204   3.412   0.161  11.095 -1.4889  1.7080 -0.6381
 4905TIP3   OH236205   1.869   1.656  18.279  0.0061 -0.5250 -0.2656
 4905TIP3    H136206   1.920   1.709  18.341  0.4645  3.3854 -3.5720
 4905TIP3    H236207   1.928   1.585  18.254  0.5376 -1.0240  2.1498
 4906TIP3   OH236208   2.153   0.935  14.374 -0.0139  0.1751 -0.2809
 4906TIP3    H136209   2.059   0.951  14.378 -0.2948 -1.3822 -0.0154
 4906TIP3    H236210   2.164   0.876  14.299  0.9806  1.6123 -1.3464
 4907TIP3   OH236211   1.336   0.486  33.777  0.3853  0.1714 -0.4751
 4907TIP3    H136212   1.414   0.476  33.831  0.8667  1.3530 -0.9162
 4907TIP3    H236213   1.275   0.536  33.832  0.3924  0.2760 -0.5635
 4908TIP3   OH236214   2.206   2.115   7.955  0.5410 -0.5464 -0.2402
 4908TIP3    H136215   2.218   2.096   7.862 -0.5344 -1.3713 -0.2304
 4908TIP3    H236216   2.127   2.169   7.958  1.5142  0.9139  0.0647
 4909TIP3   OH236217   3.483   2.492  35.909 -0.4135  0.6801  0.0618
 4909TIP3    H136218   3.490   2.543  35.989 -1.8487 -0.6357  1.0941
 4909TIP3    H236219   3.556   2.430  35.914  0.2037  1.3722 -0.2548
 4910TIP3   OH236220   0.531   3.072   9.970 -0.6459 -0.2192  0.9119
 4910TIP3    H136221   0.481   3.090   9.890 -0.7755  1.5185  1.3339
 4910TIP3    H236222   0.588   3.148   9.979  1.0049 -1.4521  1.2679
 4911TIP3   OH236223   1.271   2.960   4.517  0.1314  0.1340  0.1901
 4911TIP3    H136224   1.323   2.994   4.589 -2.9464  3.0673  1.3167
 4911TIP3    H236225   1.249   2.870   4.543  0.6457  0.4819  1.9523
 4912TIP3   OH236226   1.100   0.008  12.793  0.5100 -0.2148 -0.5520
 4912TIP3    H136227   1.058   0.075  12.847 -1.3005 -0.2707 -1.7980
 4912TIP3    H236228   1.156   0.056  12.734  1.6642 -0.0738  0.6177
 4913TIP3   OH236229   1.612   1.608  40.274 -0.2078 -0.5798 -0.7489
 4913TIP3    H136230   1.555   1.571  40.207 -2.2403  1.3315 -0.1842
 4913TIP3    H236231   1.659   1.678  40.230 -0.0733 -0.6076 -0.6516
 4914TIP3   OH236232   2.257   0.627  11.660 -0.2344  0.5653 -0.3409
 4914TIP3    H136233   2.191   0.566  11.629 -0.5792  1.0816 -0.6499
 4914TIP3    H236234   2.241   0.635  11.754  1.1967 -1.4680  0.1283
 4915TIP3   OH236235   2.787   2.581  47.208 -0.4614 -0.2733 -0.2033
 4915TIP3    H136236   2.870   2.591  47.161 -0.1205 -0.6863  0.2989
 4915TIP3    H236237   2.722   2.569  47.139 -0.2649  1.0552 -0.6448
 4916TIP3   OH236238   1.970   1.301  20.624 -0.2400  0.0647 -0.3355
 4916TIP3    H136239   1.910   1.374  20.636  0.1223  0.5435 -1.3106
 4916TIP3    H236240   1.940   1.259  20.543  2.2047  1.8529 -2.3499
 4917TIP3   OH236241   2.413   1.624   9.817  0.4450 -0.9977  0.0262
 4917TIP3    H136242   2.337   1.680   9.798  0.8911 -0.0817  0.8622
 4917TIP3    H236243   2.456   1.666   9.891  1.0660 -2.2103  0.3803
 4918TIP3   OH236244   2.015   3.982  11.473 -0.4719 -0.3143 -0.4226
 4918TIP3    H136245   2.048   3.899  11.508 -0.0795 -0.2108 -0.5468
 4918TIP3    H236246   2.018   4.042  11.548  0.7524  0.0185 -0.7199
 4919TIP3   OH236247   3.793   3.293  34.159  0.0388  0.5181  0.0437
 4919TIP3    H136248   3.754   3.218  34.202  2.1033 -1.1522 -0.8070
 4919TIP3    H236249   3.745   3.303  34.077 -1.7252  1.6331  1.1486
 4920TIP3   OH236250   0.623   3.794  10.016  0.0826  0.1149 -0.1096
 4920TIP3    H136251   0.681   3.848   9.962 -0.4202  1.3858  0.5829
 4920TIP3    H236252   0.624   3.709   9.973  0.6409  0.7519 -1.4352
 4921TIP3   OH236253   2.385   1.365  33.717 -0.2095 -0.5272 -0.3449
 4921TIP3    H136254   2.476   1.362  33.688  0.3345 -2.6366  1.2882
 4921TIP3    H236255   2.375   1.287  33.772 -2.5233  0.5826  0.9545
 4922TIP3   OH236256   2.032   0.143  15.422  0.0716  0.3784 -0.2018
 4922TIP3    H136257   2.009   0.223  15.470  0.4231  0.2150  0.2470
 4922TIP3    H236258   1.951   0.117  15.377 -0.1034  0.8576 -0.1644
 4923TIP3   OH236259   2.806   2.167   6.770 -0.2395  0.0083 -0.4377
 4923TIP3    H136260   2.744   2.107   6.811 -0.3623  0.8116  0.6060
 4923TIP3    H236261   2.891   2.125   6.780 -0.4631 -0.5288 -0.7670
 4924TIP3   OH236262   4.065   1.596   8.050 -0.1896  0.0338  0.2689
 4924TIP3    H136263   4.122   1.670   8.070  0.4019 -0.4766  0.4797
 4924TIP3    H236264   4.032   1.567   8.136  1.7285 -1.6571  0.5173
 4925TIP3   OH236265   0.522   2.269   0.575  0.5706 -0.0644  0.0792
 4925TIP3    H136266   0.488   2.348   0.617 -1.3406 -0.0428 -1.3654
 4925TIP3    H236267   0.561   2.219   0.647 -1.0327  0.7399  1.5942
 4926TIP3   OH236268   2.497   2.532  14.326  0.0139  0.0367 -0.1337
 4926TIP3    H136269   2.461   2.574  14.248 -1.5366  0.3709  0.7206
 4926TIP3    H236270   2.423   2.488  14.366  0.3944  1.1714  1.9669
 4927TIP3   OH236271   0.519   0.280  10.022  0.1235  0.3439  0.1509
 4927TIP3    H136272   0.496   0.191  10.048 -0.2046  0.4544  0.2419
 4927TIP3    H236273   0.449   0.306   9.961  1.3957 -0.2934 -1.6838
 4928TIP3   OH236274   3.205   1.944  34.563  0.1571 -0.2267 -0.2448
 4928TIP3    H136275   3.193   1.904  34.649  1.1634 -2.0714 -0.9099
 4928TIP3    H236276   3.137   1.904  34.508 -0.2072  0.6230 -0.4346
 4929TIP3   OH236277   2.039   0.883  34.689 -0.3914 -0.3746 -0.4441
 4929TIP3    H136278   2.007   0.890  34.599  1.1183 -1.2233 -1.0834
 4929TIP3    H236279   1.985   0.813  34.728  0.5012 -1.6892 -1.4628
 4930TIP3   OH236280   0.467   0.580  37.717 -0.6737 -0.1549 -0.7822
 4930TIP3    H136281   0.424   0.568  37.632 -0.1464 -0.9462 -0.9427
 4930TIP3    H236282   0.510   0.665  37.711 -0.1137 -0.4829 -1.5442
 4931TIP3   OH236283   1.414   2.124  12.454  0.0122  0.7389  0.3378
 4931TIP3    H136284   1.494   2.123  12.403  0.7062 -0.8258  1.3968
 4931TIP3    H236285   1.434   2.179  12.530  1.5958 -2.8191  2.7511
 4932TIP3   OH236286   0.718   0.025  45.200 -0.0637  0.3588 -0.3557
 4932TIP3    H136287   0.738   0.060  45.286  1.4205  0.3153 -0.6414
 4932TIP3    H236288   0.628  -0.007  45.206  0.4093 -0.7778  1.5617
 4933TIP3   OH236289   1.734   3.527  45.948  0.2173  0.5512  0.1248
 4933TIP3    H136290   1.798   3.596  45.964 -0.2494  1.2002 -0.7489
 4933TIP3    H236291   1.659   3.572  45.909 -1.3497  0.0395  2.3476
 4934TIP3   OH236292   3.000   3.313  29.889  0.0188 -0.0163  0.3856
 4934TIP3    H136293   2.953   3.379  29.839  1.9397 -0.2874 -1.9307
 4934TIP3    H236294   3.083   3.354  29.911  0.2197 -0.8114  1.1916
 4935TIP3   OH236295   3.148   0.980  45.007  0.3255 -0.1465  0.5815
 4935TIP3    H136296   3.080   0.949  44.947  1.3971  0.2692 -0.8913
 4935TIP3    H236297   3.228   0.935  44.979  0.9250  0.3307  1.4702
 4936TIP3   OH236298   1.452   1.363  15.734  0.1125 -0.5389  0.2888
 4936TIP3    H136299   1.404   1.305  15.793 -1.7220  1.6154  1.0844
 4936TIP3    H236300   1.497   1.304  15.674 -2.4756 -2.7913  0.3420
 4937TIP3   OH236301   0.091   2.547  41.469 -0.1523  0.3348  0.6080
 4937TIP3    H136302   0.178   2.520  41.439 -0.5989  0.7536 -1.1834
 4937TIP3    H236303   0.107   2.613  41.536  0.9050 -1.3722  2.1366
 4938TIP3   OH236304   3.972   1.837  12.615 -0.1867  0.1303 -0.0266
 4938TIP3    H136305   4.005   1.926  12.610  1.5359 -0.4510  0.0987
 4938TIP3    H236306   4.010   1.801  12.695  0.9297 -1.3431 -1.1495
 4939TIP3   OH236307   1.975   1.558  11.214  0.3994  0.0203 -0.2620
 4939TIP3    H136308   2.062   1.591  11.235 -1.0202  3.7510  0.6067
 4939TIP3    H236309   1.932   1.548  11.299 -1.5657  3.3986 -0.6905
 4940TIP3   OH236310   1.125   3.993   9.319 -0.5210 -0.3323  0.1650
 4940TIP3    H136311   1.105   3.956   9.406  0.8196 -1.7477 -0.0849
 4940TIP3    H236312   1.078   3.936   9.259 -0.3457 -0.1803 -0.1134
 4941TIP3   OH236313   2.295   0.416   1.705 -0.7358 -0.1347  0.3172
 4941TIP3    H136314   2.377   0.369   1.686  1.1541  3.0827 -0.2102
 4941TIP3    H236315   2.263   0.444   1.619  0.2944  2.6470  0.7293
 4942TIP3   OH236316   4.068   3.321  12.352  0.5794  0.1051 -0.5124
 4942TIP3    H136317   3.990   3.332  12.297 -0.3444 -0.4429  0.6407
 4942TIP3    H236318   4.128   3.269  12.298  0.2643  0.7631 -1.5188
 4943TIP3   OH236319   1.878   1.541  35.477  0.0128 -0.0567  0.3099
 4943TIP3    H136320   1.897   1.582  35.561  1.5002 -0.4431  0.2010
 4943TIP3    H236321   1.864   1.449  35.498 -1.3194  0.1257  0.3140
 4944TIP3   OH236322   4.094   1.558  42.625  0.4408 -0.0567  0.0288
 4944TIP3    H136323   4.014   1.605  42.647  0.6484  0.4134 -0.2106
 4944TIP3    H236324   4.153   1.577  42.698  0.3532 -0.3606  0.1819
 4945TIP3   OH236325   0.440   2.434  47.339  0.0637 -0.1620  0.0903
 4945TIP3    H136326   0.404   2.503  47.283  0.1249  0.0708  0.3387
 4945TIP3    H236327   0.440   2.356  47.283  0.9727  0.2725 -0.5335
 4946TIP3   OH236328   0.314   1.636   9.194  0.4568 -0.0118 -0.2148
 4946TIP3    H136329   0.280   1.666   9.278 -0.5992  0.7893 -0.9038
 4946TIP3    H236330   0.405   1.666   9.193  0.0115  1.4220 -0.0214
 4947TIP3   OH236331   3.888   0.962  46.692 -0.1491 -0.4993  0.4197
 4947TIP3    H136332   3.918   0.890  46.636 -1.6631 -2.0071  1.4271
 4947TIP3    H236333   3.966   0.992  46.737  0.4765 -1.7858  0.2398
 4948TIP3   OH236334   1.601   1.850  31.219  0.3847 -0.1300 -0.7150
 4948TIP3    H136335   1.661   1.791  31.173  0.1496  1.0510 -2.6001
 4948TIP3    H236336   1.516   1.807  31.213  0.8707 -1.6951  1.7660
 4949TIP3   OH236337   3.826   4.091  47.202 -0.0576 -0.0791 -0.1964
 4949TIP3    H136338   3.802   4.151  47.132  1.5772 -0.4354 -1.1096
 4949TIP3    H236339   3.867   4.017  47.158 -0.1073 -0.8851  1.0553
 4950TIP3   OH236340   2.823   4.028   0.090 -0.3673 -0.4262  0.4981
 4950TIP3    H136341   2.764   4.090   0.134 -0.3851  1.5095 -1.9947
 4950TIP3    H236342   2.911   4.065   0.103 -0.1132 -1.1445  0.8866
 4951TIP3   OH236343   3.913   2.931  40.962 -0.0854  0.0132 -0.3591
 4951TIP3    H136344   3.974   2.969  41.026 -0.2967 -1.8341  1.0454
 4951TIP3    H236345   3.909   2.839  40.986 -2.5725 -0.1417 -1.1266
 4952TIP3   OH236346   3.969   2.857  10.434 -0.0552 -0.0827 -0.7309
 4952TIP3    H136347   3.925   2.941  10.424  0.4771  0.4175  0.8415
 4952TIP3    H236348   3.898   2.793  10.439 -0.4509  0.1823 -2.3412
 4953TIP3   OH236349   0.654   3.399  31.217  0.1117  0.2510  0.1775
 4953TIP3    H136350   0.710   3.348  31.160  0.5509  1.3680 -0.4066
 4953TIP3    H236351   0.634   3.478  31.168 -1.1255  0.3508  0.7877
 4954TIP3   OH236352   3.902   1.066   4.623  0.3548 -0.6106  0.0610
 4954TIP3    H136353   3.970   1.051   4.557 -0.1563  0.0440 -0.6308
 4954TIP3    H236354   3.947   1.113   4.693  0.2652  1.4220 -1.1797
 4955TIP3   OH236355   2.348   3.795  45.256 -0.1937 -0.5162 -0.3009
 4955TIP3    H136356   2.408   3.856  45.214 -2.8440  0.9822 -2.2565
 4955TIP3    H236357   2.356   3.715  45.205  0.1623 -0.3445 -0.5223
 4956TIP3   OH236358   3.491   4.056   6.908 -0.1693  0.5787  0.0647
 4956TIP3    H136359   3.519   4.047   6.817  0.5694 -0.7195  0.3928
 4956TIP3    H236360   3.406   4.101   6.903  0.1664  1.1161 -1.2042
 4957TIP3   OH236361   1.343   4.033   5.723  0.2463 -0.0314  0.4312
 4957TIP3    H136362   1.279   4.064   5.659 -0.9685  0.2766  1.7418
 4957TIP3    H236363   1.367   3.946   5.694 -2.2726 -0.9813  0.9178
 4958TIP3   OH236364   2.195   3.771  40.931 -0.0820 -0.2663  0.3920
 4958TIP3    H136365   2.176   3.849  40.984 -1.5821 -2.0160  2.6671
 4958TIP3    H236366   2.136   3.778  40.856  0.8367  1.4533 -0.2110
 4959TIP3   OH236367   3.512   0.919   1.832 -0.0777 -0.3070  0.0574
 4959TIP3    H136368   3.528   0.916   1.737  0.6368  1.7678  0.0747
 4959TIP3    H236369   3.571   0.987   1.864 -1.1663 -0.1451  1.8273
 4960TIP3   OH236370   2.057   3.057  38.701  0.5867  0.2528 -0.0440
 4960TIP3    H136371   2.126   2.997  38.731  0.4697  1.0473  1.9938
 4960TIP3    H236372   2.104   3.129  38.659  1.0780  0.8894  1.5107
 4961TIP3   OH236373   2.932   1.595  11.694  0.2115 -0.1216 -0.1217
 4961TIP3    H136374   2.886   1.645  11.626  1.9694  1.5247 -0.2027
 4961TIP3    H236375   2.865   1.577  11.760 -1.1003 -0.0768 -1.3763
 4962TIP3   OH236376   1.333   0.285  38.834 -0.3869  0.5137  0.3704
 4962TIP3    H136377   1.274   0.307  38.907 -0.1929  0.4876  0.5380
 4962TIP3    H236378   1.279   0.293  38.756 -0.4603  1.0745  0.4691
 4963TIP3   OH236379   2.983   1.203   5.678 -0.2023 -0.6139 -0.3580
 4963TIP3    H136380   2.889   1.201   5.661 -0.0628 -0.2605 -1.2051
 4963TIP3    H236381   3.014   1.117   5.649 -0.3323 -0.9300  0.4060
 4964TIP3   OH236382   3.294   1.534   9.387 -0.0606  0.2360  0.3434
 4964TIP3    H136383   3.332   1.450   9.361 -0.0626 -0.3505  2.1008
 4964TIP3    H236384   3.223   1.510   9.446 -1.8419  1.4025 -1.2283
 4965TIP3   OH236385   3.485   4.071   3.323 -0.4099  0.0506 -0.7465
 4965TIP3    H136386   3.544   4.128   3.372 -0.6055  0.7070 -1.2670
 4965TIP3    H236387   3.427   4.034   3.390  0.8279 -0.9093 -0.1779
 4966TIP3   OH236388   1.124   2.350  46.850 -0.1075  0.0385  0.3264
 4966TIP3    H136389   1.196   2.375  46.907  0.5574  1.0846 -0.9359
 4966TIP3    H236390   1.165   2.308  46.774 -0.9437 -0.8704  0.3408
 4967TIP3   OH236391   3.861   3.199   6.475  0.2212 -0.2249 -0.2605
 4967TIP3    H136392   3.862   3.257   6.551  2.5027  0.4807 -0.7342
 4967TIP3    H236393   3.775   3.158   6.477 -0.9794  2.1110  0.9111
 4968TIP3   OH236394   4.091   1.581  11.342 -0.2606 -0.2801  0.3570
 4968TIP3    H136395   4.151   1.548  11.408  0.3788  1.1586  0.5196
 4968TIP3    H236396   4.143   1.584  11.262 -0.8948 -1.5559 -0.1290
 4969TIP3   OH236397   1.508   1.643  38.089  0.6021 -0.1129 -0.6210
 4969TIP3    H136398   1.524   1.572  38.152  1.6069  0.6870  0.0688
 4969TIP3    H236399   1.563   1.621  38.014  1.3530  0.2062 -0.1765
 4970TIP3   OH236400   3.197   3.183  40.048 -0.1436 -0.3708  0.2637
 4970TIP3    H136401   3.146   3.214  40.123  0.0256 -1.9600  1.0933
 4970TIP3    H236402   3.283   3.161  40.085  0.6566  0.7838 -0.8229
 4971TIP3   OH236403   0.270   3.255  30.754 -0.1006  0.2276 -0.2298
 4971TIP3    H136404   0.185   3.212  30.757  1.0096 -2.4020 -2.1739
 4971TIP3    H236405   0.332   3.188  30.784  1.4590  1.3545 -0.8109
 4972TIP3   OH236406   2.904   1.324  45.029  0.1780  1.5047 -0.3819
 4972TIP3    H136407   2.825   1.348  45.078 -0.0734  2.1819 -1.1055
 4972TIP3    H236408   2.873   1.307  44.940  0.1667 -2.3878  0.1646
 4973TIP3   OH236409   3.278   0.516  39.149 -0.1070 -0.4673  0.0938
 4973TIP3    H136410   3.275   0.550  39.238  0.1372  0.4345 -0.2352
 4973TIP3    H236411   3.202   0.554  39.106 -0.1305 -0.7684 -0.1290
 4974TIP3   OH236412   0.138   0.513  13.120 -0.0870  0.1915  0.1583
 4974TIP3    H136413   0.229   0.522  13.094 -0.5056  0.5933 -1.2583
 4974TIP3    H236414   0.098   0.459  13.052 -0.8337 -0.3150  0.9693
 4975TIP3   OH236415   0.061   0.767   3.310 -0.0293  0.1567 -0.1723
 4975TIP3    H136416  -0.004   0.700   3.333 -0.2171 -0.2457 -1.7781
 4975TIP3    H236417   0.100   0.791   3.394 -0.9776 -0.9123  0.6174
 4976TIP3   OH236418   0.043   1.604   9.121  0.3287 -0.3618  0.0790
 4976TIP3    H136419   0.038   1.699   9.110 -1.4217 -0.5390 -1.0014
 4976TIP3    H236420   0.133   1.582   9.095  0.6152  0.9251 -0.1038
 4977TIP3   OH236421   2.909   1.539   8.915  0.0120 -0.1285  0.3449
 4977TIP3    H136422   2.859   1.596   8.857 -0.8086 -1.6529 -0.4996
 4977TIP3    H236423   2.910   1.585   8.999 -3.3682 -0.2916  0.6026
 4978TIP3   OH236424   3.623   2.255   1.003 -0.4290 -0.0494  0.6981
 4978TIP3    H136425   3.632   2.166   0.971  0.1194  0.4933 -0.7339
 4978TIP3    H236426   3.672   2.257   1.085 -1.6550 -1.4165  1.4958
 4979TIP3   OH236427   3.868   0.156  40.129 -0.9858  0.1592  0.2643
 4979TIP3    H136428   3.887   0.245  40.101 -0.4080 -0.5019 -1.6014
 4979TIP3    H236429   3.783   0.136  40.091 -1.1524 -0.0666  0.7405
 4980TIP3   OH236430   0.354   1.126  42.438  0.0892  0.2307  0.2979
 4980TIP3    H136431   0.432   1.074  42.420 -0.1320 -0.1143  0.3407
 4980TIP3    H236432   0.299   1.069  42.491  0.0401  0.6634  0.7262
 4981TIP3   OH236433   1.787   3.339  41.970  0.6024  0.3949 -0.0966
 4981TIP3    H136434   1.815   3.252  41.940 -1.2522 -0.5691  0.7809
 4981TIP3    H236435   1.836   3.400  41.914  1.4096 -1.2098 -1.2483
 4982TIP3   OH236436   0.896   0.239  37.771  0.3622 -0.1539  0.0730
 4982TIP3    H136437   0.972   0.281  37.730  0.0930  0.0557 -0.2139
 4982TIP3    H236438   0.827   0.305  37.767 -1.4663 -1.9073 -4.3615
 4983TIP3   OH236439   3.797   3.521  37.020 -0.5414 -0.4363 -0.4399
 4983TIP3    H136440   3.711   3.562  37.024 -0.3312 -0.0114 -0.2634
 4983TIP3    H236441   3.828   3.537  36.931  0.6472  2.0688  0.3404
 4984TIP3   OH236442   3.577   0.305  44.336 -0.1459 -0.2320  0.1023
 4984TIP3    H136443   3.481   0.301  44.331 -0.3021  0.5590  1.9616
 4984TIP3    H236444   3.601   0.231  44.391  0.1978  0.3146  0.6954
 4985TIP3   OH236445   3.849   0.110  28.793 -0.4455  0.3135 -0.0557
 4985TIP3    H136446   3.758   0.139  28.799 -0.6801 -0.4670  0.3793
 4985TIP3    H236447   3.849   0.048  28.720 -0.1652  0.6358 -0.3331
 4986TIP3   OH236448   3.732   1.277  46.995 -0.0800 -0.0953  0.3748
 4986TIP3    H136449   3.819   1.299  47.027 -0.2283  0.4746  0.4084
 4986TIP3    H236450   3.695   1.361  46.968 -2.4273  0.5884  4.7588
 4987TIP3   OH236451   2.448   4.018  10.526  0.2249 -0.0641  0.2592
 4987TIP3    H136452   2.397   3.976  10.595 -0.1588 -0.1422 -0.0705
 4987TIP3    H236453   2.394   4.093  10.498 -0.7913 -1.4203 -1.6442
 4988TIP3   OH236454   3.501   1.893  16.769  0.0741 -0.1780  0.3265
 4988TIP3    H136455   3.551   1.973  16.749  1.4469 -1.7680 -3.4669
 4988TIP3    H236456   3.410   1.917  16.752  0.3640  0.8495  0.1393
 4989TIP3   OH236457   4.059   1.951  14.561  0.0719 -0.4388 -0.7779
 4989TIP3    H136458   4.059   2.047  14.552  0.4865 -0.1999  1.3933
 4989TIP3    H236459   3.967   1.928  14.572  0.2116  0.2255  2.7771
 4990TIP3   OH236460   2.797   2.178  39.702  0.4085 -0.0900  0.1725
 4990TIP3    H136461   2.741   2.175  39.624  3.7152 -0.4830 -2.4176
 4990TIP3    H236462   2.782   2.094  39.746 -1.2790  0.0009 -0.1376
 4991TIP3   OH236463   1.709   0.110  37.530 -0.2310  0.0610 -0.2882
 4991TIP3    H136464   1.748   0.188  37.570 -1.3779  0.3804  0.2603
 4991TIP3    H236465   1.714   0.043  37.599 -2.2375  0.6197  0.4755
 4992TIP3   OH236466   0.225   1.753   9.454 -0.6562 -0.1187 -0.3459
 4992TIP3    H136467   0.129   1.745   9.460 -0.5729 -0.2017  1.4375
 4992TIP3    H236468   0.243   1.841   9.488 -0.1775  0.4827 -2.0687
 4993TIP3   OH236469   1.057   2.878  41.334  0.3701 -0.5109 -0.4898
 4993TIP3    H136470   1.047   2.911  41.424 -0.6164 -1.8397 -0.0783
 4993TIP3    H236471   1.025   2.950  41.279  1.5639  0.5665  0.1624
 4994TIP3   OH236472   3.603   2.693  16.617 -0.6288 -0.4973 -0.4730
 4994TIP3    H136473   3.511   2.716  16.623 -1.0617 -0.8563 -3.7646
 4994TIP3    H236474   3.641   2.759  16.558  0.6299 -1.7247 -1.1133
 4995TIP3   OH236475   2.532   4.026   3.169 -0.0199 -0.3113  0.1742
 4995TIP3    H136476   2.595   4.010   3.239 -0.6728 -0.4343  0.7395
 4995TIP3    H236477   2.567   4.101   3.121 -0.7456  1.2825  2.0429
 4996TIP3   OH236478   3.413   3.631  32.355 -0.6233 -0.1039  0.6286
 4996TIP3    H136479   3.391   3.539  32.342 -0.0138 -0.0930 -0.5809
 4996TIP3    H236480   3.506   3.631  32.379 -0.7481  0.1625  1.1265
 4997TIP3   OH236481   3.060   3.160  31.998  0.6618 -0.4454  0.0435
 4997TIP3    H136482   3.102   3.221  32.059  1.2498 -1.3689  0.5950
 4997TIP3    H236483   2.995   3.114  32.052  0.2306 -0.3201 -0.3631
 4998TIP3   OH236484   0.265   3.045  12.363  0.3329 -0.2229  0.1601
 4998TIP3    H136485   0.345   3.079  12.404  0.1602  0.3299  0.0483
 4998TIP3    H236486   0.297   2.986  12.295  0.6437 -0.2077  0.2885
 4999TIP3   OH236487   2.456   0.435  43.118 -0.2883  0.3048 -0.2412
 4999TIP3    H136488   2.525   0.370  43.131 -0.6101 -0.3467 -1.5801
 4999TIP3    H236489   2.483   0.483  43.039 -1.4912 -0.1716 -0.9682
 5000TIP3   OH236490   3.397   2.377   2.296  0.0650  0.0164 -0.3955
 5000TIP3    H136491   3.376   2.310   2.231  0.8388  1.3117 -2.0912
 5000TIP3    H236492   3.470   2.426   2.257  2.8341 -1.0795  2.8871
 5001TIP3   OH236493   3.221   3.237   2.386  0.2926  0.1766  0.0029
 5001TIP3    H136494   3.297   3.291   2.365  1.6449 -0.9481  1.6796
 5001TIP3    H236495   3.196   3.264   2.475 -1.2159  0.4193 -0.4563
 5002TIP3   OH236496   2.147   0.154  13.367  0.2214 -0.3172 -0.3687
 5002TIP3    H136497   2.090   0.093  13.318 -1.8221  1.2517 -0.0859
 5002TIP3    H236498   2.192   0.098  13.431 -2.0450 -1.5146  0.3053
 5003TIP3   OH236499   1.797   3.957  41.114 -0.1941 -0.0639  0.1371
 5003TIP3    H136500   1.732   3.927  41.051 -0.8524  0.5740  0.5067
 5003TIP3    H236501   1.846   3.878  41.136 -0.4254 -0.4268 -0.6284
 5004TIP3   OH236502   1.561   3.198  44.978 -0.2503 -0.5252 -0.3798
 5004TIP3    H136503   1.525   3.130  44.922 -2.3132  0.5292 -0.4244
 5004TIP3    H236504   1.533   3.174  45.066 -0.0576 -0.3119 -0.2594
 5005TIP3   OH236505   4.006   0.146  14.528  0.0580 -0.1627  0.1047
 5005TIP3    H136506   3.923   0.177  14.492  1.0307  0.0509 -2.0606
 5005TIP3    H236507   3.989   0.054  14.551 -0.7559 -0.1446 -0.3959
 5006TIP3   OH236508   4.074   0.671  39.718  0.3106 -0.6864 -0.4595
 5006TIP3    H136509   4.138   0.606  39.686  1.1764  0.7731 -1.8501
 5006TIP3    H236510   4.122   0.754  39.717 -1.0463  0.1386  0.3776
 5007TIP3   OH236511   2.661   0.692   8.187 -0.4956 -0.0062 -0.0558
 5007TIP3    H136512   2.579   0.736   8.166  0.0880  0.7994 -0.6895
 5007TIP3    H236513   2.727   0.761   8.186  0.1170 -0.5499  0.9764
 5008TIP3   OH236514   1.513   0.292  33.523  1.0396 -0.3683 -0.3905
 5008TIP3    H136515   1.532   0.376  33.482  1.3237 -0.5963 -0.7356
 5008TIP3    H236516   1.510   0.229  33.451  0.4354 -0.5908 -0.1792
 5009TIP3   OH236517   0.577   2.984  31.948 -0.3848 -0.3516  0.0483
 5009TIP3    H136518   0.591   2.904  31.898 -0.9574 -0.4685  0.0658
 5009TIP3    H236519   0.568   3.053  31.882  0.1933 -0.2823  0.0365
 5010TIP3   OH236520   1.821   0.438  45.478  0.4059 -0.0677  0.1952
 5010TIP3    H136521   1.857   0.438  45.390 -2.2321  0.5750 -0.9641
 5010TIP3    H236522   1.820   0.530  45.504  1.9016 -0.3198  1.2711
 5011TIP3   OH236523   0.358   2.386  11.658 -0.0715 -0.0341  0.5342
 5011TIP3    H136524   0.416   2.324  11.700  0.4487 -0.6550 -1.0244
 5011TIP3    H236525   0.327   2.442  11.729 -1.6510 -2.8741  2.2606
 5012TIP3   OH236526   0.618   2.952   1.184  0.0672  0.3718  0.0767
 5012TIP3    H136527   0.535   2.904   1.177 -0.3626  0.7664  1.9272
 5012TIP3    H236528   0.672   2.917   1.113 -0.8348 -1.6247  0.3135
 5013TIP3   OH236529   0.194   2.428  40.211 -0.0376  0.1662 -0.1976
 5013TIP3    H136530   0.265   2.398  40.268  0.5260 -0.3917 -1.1734
 5013TIP3    H236531   0.137   2.478  40.269  1.0634  0.4891  0.6445
 5014TIP3   OH236532   0.364   1.483  41.925 -0.1795  0.4570  0.2350
 5014TIP3    H136533   0.447   1.523  41.898 -0.3129  0.3767 -0.2911
 5014TIP3    H236534   0.348   1.519  42.013 -0.2658  1.5151 -0.2042
 5015TIP3   OH236535   1.153   0.012   4.246  0.2620  0.2738 -0.0438
 5015TIP3    H136536   1.229   0.033   4.192  1.3308  0.6657  1.5456
 5015TIP3    H236537   1.084   0.070   4.213 -0.1287 -1.6242 -3.0097
 5016TIP3   OH236538   1.266   2.194  33.522 -0.2497  0.5670  0.2417
 5016TIP3    H136539   1.296   2.246  33.596 -1.9062  0.2053  1.2119
 5016TIP3    H236540   1.174   2.218  33.511 -0.7122 -1.2150 -0.0888
 5017TIP3   OH236541   3.511   2.378  45.040 -0.4282  0.3743 -0.0077
 5017TIP3    H136542   3.422   2.375  45.074 -0.1261 -0.7769  0.7749
 5017TIP3    H236543   3.540   2.468  45.054 -1.0762  0.4693  0.8123
 5018TIP3   OH236544   2.821   0.689   1.516 -0.0327  0.5968  0.2827
 5018TIP3    H136545   2.858   0.602   1.502  0.6752  0.7184  1.3149
 5018TIP3    H236546   2.863   0.743   1.449  1.1248  0.5733  0.9662
 5019TIP3   OH236547   3.716   0.456  13.870  0.5834 -0.5177  0.7624
 5019TIP3    H136548   3.789   0.439  13.929 -0.5207 -1.1624  2.0110
 5019TIP3    H236549   3.643   0.408  13.908 -0.3118 -0.5202 -0.8738
 5020TIP3   OH236550   2.375   2.976  13.789  0.2139 -0.3835 -0.2658
 5020TIP3    H136551   2.441   3.007  13.727  0.5211 -0.1788  0.1602
 5020TIP3    H236552   2.351   3.054  13.839 -1.6623 -0.0501 -1.5782
 5021TIP3   OH236553   0.434   3.363  34.015 -0.4165 -0.5404 -0.1889
 5021TIP3    H136554   0.387   3.375  34.097 -0.9462  0.5911 -0.6335
 5021TIP3    H236555   0.379   3.304  33.963  0.9626 -3.0518  1.0474
 5022TIP3   OH236556   2.825   3.839  30.927 -0.2060  0.4501  0.5306
 5022TIP3    H136557   2.857   3.856  30.839 -0.6729  1.5640  0.5594
 5022TIP3    H236558   2.757   3.772  30.916  0.9737 -0.7391  0.2808
 5023TIP3   OH236559   0.124   2.644  16.652  0.0533  0.0158 -0.5759
 5023TIP3    H136560   0.068   2.696  16.595  1.2210  0.3747 -1.4351
 5023TIP3    H236561   0.212   2.679  16.638  0.2787  0.8030  2.2327
 5024TIP3   OH236562   3.446   1.583  42.635 -0.0503 -0.1548  0.4183
 5024TIP3    H136563   3.445   1.584  42.731 -0.2735 -0.2506  0.4184
 5024TIP3    H236564   3.433   1.674  42.610  0.3888 -0.0747  0.4822
 5025TIP3   OH236565   3.781   2.625  40.333 -0.1096 -0.6347 -0.0980
 5025TIP3    H136566   3.737   2.576  40.263 -0.3515 -0.4365 -0.0880
 5025TIP3    H236567   3.743   2.713  40.327  0.3325 -0.4440 -0.1254
 5026TIP3   OH236568   3.484   1.447  17.183  0.1926  0.0437 -0.4908
 5026TIP3    H136569   3.455   1.506  17.253 -2.1533 -0.9899 -0.4908
 5026TIP3    H236570   3.488   1.504  17.106  0.6224  0.7435  0.0313
 5027TIP3   OH236571   3.778   1.737  46.120  0.3757  0.0834 -0.6798
 5027TIP3    H136572   3.873   1.738  46.110  0.3234  0.4577 -1.2064
 5027TIP3    H236573   3.745   1.720  46.031 -0.0428 -0.3543 -0.4491
 5028TIP3   OH236574   0.929   2.858   1.450 -0.1436 -0.0182 -0.0939
 5028TIP3    H136575   0.925   2.884   1.358  0.2127  3.2759  0.7243
 5028TIP3    H236576   0.988   2.783   1.451 -0.4769 -0.4049 -2.5570
 5029TIP3   OH236577   3.113   2.651  16.781  0.5087 -0.0713  0.4353
 5029TIP3    H136578   3.076   2.571  16.743  1.5891 -1.0633  1.4227
 5029TIP3    H236579   3.060   2.667  16.859  1.5789 -0.9922  1.3624
 5030TIP3   OH236580   0.822   1.765  37.202 -0.0444 -0.5036 -0.3611
 5030TIP3    H136581   0.791   1.817  37.276 -2.1191 -1.3393 -0.5740
 5030TIP3    H236582   0.916   1.753  37.219  0.1437  1.7722  0.5829
 5031TIP3   OH236583   1.672   2.239   7.924  0.1388  0.1395 -0.7186
 5031TIP3    H136584   1.756   2.252   7.880  0.5382 -1.0636 -0.3518
 5031TIP3    H236585   1.693   2.191   8.004 -0.5432  2.5009  0.9989
 5032TIP3   OH236586   1.319   3.303   4.825 -0.4411  0.4357  0.3496
 5032TIP3    H136587   1.309   3.343   4.912  3.4410 -0.5613  1.4680
 5032TIP3    H236588   1.323   3.209   4.843  0.0493  0.1868 -0.9577
 5033TIP3   OH236589   1.791   3.038  12.653  0.0781 -0.0775  0.3062
 5033TIP3    H136590   1.812   2.945  12.651 -0.8778 -0.3065 -1.8986
 5033TIP3    H236591   1.828   3.072  12.571 -2.1204  0.8546 -0.3524
 5034TIP3   OH236592   2.511   3.439  39.957 -0.0724 -0.3174  0.2696
 5034TIP3    H136593   2.506   3.516  40.014  2.4809 -0.3776  0.7145
 5034TIP3    H236594   2.568   3.378  40.005  0.4729 -1.2151 -1.4373
 5035TIP3   OH236595   0.339   0.329  41.552  0.0452  0.1517  0.1704
 5035TIP3    H136596   0.366   0.420  41.559 -0.8654  0.4794 -0.4172
 5035TIP3    H236597   0.405   0.288  41.496 -1.1529  1.1971 -2.1530
 5036TIP3   OH236598   3.396   2.835   8.527  0.1938 -0.1119  0.4279
 5036TIP3    H136599   3.307   2.864   8.510  0.4225  1.5495  1.8354
 5036TIP3    H236600   3.438   2.837   8.441 -1.3195 -1.8660 -0.4322
 5037TIP3   OH236601   2.814   1.501  46.834 -0.0784 -0.6408 -0.6766
 5037TIP3    H136602   2.785   1.441  46.766 -2.2045  1.3076 -1.6280
 5037TIP3    H236603   2.878   1.558  46.790  0.2909 -0.8189 -0.3790
 5038TIP3   OH236604   0.563   3.623  41.318 -0.1353  0.3817 -0.0679
 5038TIP3    H136605   0.525   3.710  41.335 -3.1540 -0.3716 -2.1606
 5038TIP3    H236606   0.501   3.562  41.359 -0.7055 -0.8871 -2.6431
 5039TIP3   OH236607   1.137   0.781  43.385  0.2828 -0.5557 -0.3769
 5039TIP3    H136608   1.098   0.702  43.422 -1.1838  0.7041  0.9577
 5039TIP3    H236609   1.130   0.771  43.291 -1.0509 -1.4823 -0.2012
 5040TIP3   OH236610   4.072   3.861  11.148  0.4897  0.6185  0.1824
 5040TIP3    H136611   4.057   3.815  11.066  1.2928 -0.0045  0.3748
 5040TIP3    H236612   4.133   3.932  11.125  0.2768  0.7893  0.1386
 5041TIP3   OH236613   3.876   2.713  35.451  0.3846 -0.3692  0.1333
 5041TIP3    H136614   3.818   2.762  35.392 -0.1124  0.7895  1.5253
 5041TIP3    H236615   3.961   2.754  35.440  0.2885 -0.1423  0.2269
 5042TIP3   OH236616   0.125   3.922   4.092  0.5831 -0.4572  0.1313
 5042TIP3    H136617   0.038   3.882   4.095  0.3769 -0.0037  0.2667
 5042TIP3    H236618   0.176   3.871   4.155  0.5792 -1.0958 -0.3706
 5043TIP3   OH236619   0.826   3.386  47.093 -0.1015 -0.5161  0.5344
 5043TIP3    H136620   0.836   3.480  47.111 -0.0203 -0.4060 -0.0733
 5043TIP3    H236621   0.915   3.356  47.074 -0.3902 -0.2238 -1.5625
 5044TIP3   OH236622   2.785   1.293  40.988  0.3330 -0.8431  0.3663
 5044TIP3    H136623   2.864   1.346  41.002  1.6997 -1.9006 -2.5437
 5044TIP3    H236624   2.818   1.207  40.963 -1.6768 -1.0553 -1.8992
 5045TIP3   OH236625   0.782   3.504  47.477 -1.0088 -0.5736  0.3262
 5045TIP3    H136626   0.760   3.597  47.470  1.1428 -0.1768 -2.7595
 5045TIP3    H236627   0.715   3.459  47.425  0.1778 -0.2904 -1.5026
 5046TIP3   OH236628   3.747   2.391  45.340 -0.4011 -0.0445 -0.3826
 5046TIP3    H136629   3.781   2.460  45.283 -1.3123 -0.1503 -1.0663
 5046TIP3    H236630   3.788   2.408  45.425  0.7196  0.3098 -0.9735
 5047TIP3   OH236631   3.226   2.616  13.838 -0.2825 -0.1123 -0.1589
 5047TIP3    H136632   3.140   2.593  13.801 -0.4412 -1.0040  0.7475
 5047TIP3    H236633   3.210   2.628  13.931  0.4499  0.4712 -0.0965
 5048TIP3   OH236634   2.683   0.050   6.754  0.4245 -0.3984  0.4398
 5048TIP3    H136635   2.740   0.102   6.697 -1.7209 -0.9691 -2.4897
 5048TIP3    H236636   2.612   0.109   6.777 -0.1006 -0.9572  0.2678
 5049TIP3   OH236637   4.066   0.718   0.849  0.5525  0.3663 -0.2084
 5049TIP3    H136638   3.971   0.725   0.840  0.2924 -1.6121  0.4213
 5049TIP3    H236639   4.090   0.646   0.790  1.6364  0.7008 -0.1959
 5050TIP3   OH236640   2.450   3.664  24.967  0.5833 -0.3289  0.0003
 5050TIP3    H136641   2.499   3.743  24.990 -1.2781  0.9753 -0.2779
 5050TIP3    H236642   2.456   3.659  24.872 -1.8292  1.3304 -0.3318
 5051TIP3   OH236643   3.285   2.949   3.406 -0.4739  0.8905 -0.2140
 5051TIP3    H136644   3.233   2.892   3.462 -2.1313  2.5801  0.0670
 5051TIP3    H236645   3.339   3.000   3.467  1.4512 -0.6943 -0.4912
 5052TIP3   OH236646   3.933   2.771  38.324  0.3765  0.1593  0.3332
 5052TIP3    H136647   3.929   2.764  38.419 -2.0392  1.7939  0.4340
 5052TIP3    H236648   3.844   2.751  38.294  0.6412  1.3356 -1.4280
 5053TIP3   OH236649   2.652   2.914  34.431  0.4043  0.4962 -0.3550
 5053TIP3    H136650   2.557   2.923  34.441  0.2451 -0.1135 -1.2892
 5053TIP3    H236651   2.688   2.969  34.501 -0.6455 -1.0033  1.4601
 5054TIP3   OH236652   2.443   1.342  41.654  0.4072 -0.1912 -0.1964
 5054TIP3    H136653   2.484   1.408  41.598  1.2206  0.6628  1.3159
 5054TIP3    H236654   2.493   1.262  41.638  1.8528  0.4997  0.6176
 5055TIP3   OH236655   3.387   3.609  13.193  0.1127 -0.3167  0.9620
 5055TIP3    H136656   3.443   3.665  13.139  0.7230 -0.7814  1.0966
 5055TIP3    H236657   3.366   3.535  13.136  0.6667 -0.7524  1.3130
 5056TIP3   OH236658   3.043   2.618   6.826  0.1296 -0.2251  0.1543
 5056TIP3    H136659   3.008   2.698   6.786  1.6290  0.2098 -0.3662
 5056TIP3    H236660   2.985   2.548   6.796  0.0179  0.3883 -1.1364
 5057TIP3   OH236661   0.387   3.335   7.800 -0.1806 -0.3672 -0.1603
 5057TIP3    H136662   0.456   3.353   7.864 -0.7770  1.4125  0.0291
 5057TIP3    H236663   0.434   3.297   7.725  1.1515  1.5877 -0.3824
 5058TIP3   OH236664   3.853   1.126  43.256 -0.5473 -0.0323 -0.0478
 5058TIP3    H136665   3.802   1.046  43.245  0.3112 -0.3966 -1.6951
 5058TIP3    H236666   3.856   1.165  43.169  3.4041 -0.9621 -0.5428
 5059TIP3   OH236667   2.933   1.148   9.807 -0.0689  0.1440 -0.0296
 5059TIP3    H136668   2.906   1.176   9.719  0.8025  0.2983 -0.2601
 5059TIP3    H236669   2.908   1.056   9.812  0.0220  0.0890 -0.5064
 5060TIP3   OH236670   3.993   3.298  37.343 -0.6061  0.5295  0.4150
 5060TIP3    H136671   4.082   3.271  37.319 -0.8423  0.0298  0.0869
 5060TIP3    H236672   3.986   3.277  37.436 -0.3242  0.7220  0.4813
 5061TIP3   OH236673   2.608   1.295  46.269 -0.1975  0.1921 -0.4562
 5061TIP3    H136674   2.587   1.378  46.311  1.9104  0.1769  0.7672
 5061TIP3    H236675   2.701   1.301  46.249 -0.4432 -1.1054 -2.2016
 5062TIP3   OH236676   1.712   3.038   0.343  0.1754  0.3728  0.2119
 5062TIP3    H136677   1.753   3.019   0.259  2.1032  0.8025  0.9993
 5062TIP3    H236678   1.619   3.017   0.330  0.4176  0.4273 -1.9986
 5063TIP3   OH236679   0.347   0.281   0.909 -0.2368  0.3477 -0.5964
 5063TIP3    H136680   0.273   0.310   0.963  1.2523 -0.0996  1.8434
 5063TIP3    H236681   0.324   0.191   0.884 -0.3103  0.0039  0.6257
 5064TIP3   OH236682   1.820   3.534  39.261 -0.7850  0.1001  0.6229
 5064TIP3    H136683   1.895   3.541  39.321 -0.5650  1.7901  0.2074
 5064TIP3    H236684   1.827   3.611  39.205 -1.3020 -1.1401 -1.2483
 5065TIP3   OH236685   0.343   3.797  45.523  0.4285  0.2545 -0.1064
 5065TIP3    H136686   0.328   3.784  45.617  0.8653 -1.1140 -0.2082
 5065TIP3    H236687   0.293   3.727  45.481 -3.0081  3.0239 -1.2052
 5066TIP3   OH236688   1.748   3.380   5.410 -0.1289  0.1581  0.1543
 5066TIP3    H136689   1.813   3.449   5.400  1.2938 -0.9935  0.9853
 5066TIP3    H236690   1.744   3.338   5.325 -1.1549  1.3657 -0.4151
 5067TIP3   OH236691   3.636   2.260  44.218 -0.2379 -0.0208  0.1605
 5067TIP3    H136692   3.620   2.175  44.177  1.7011 -0.4710  0.2584
 5067TIP3    H236693   3.687   2.239  44.296  1.9777  1.3578 -0.8508
 5068TIP3   OH236694   2.962   0.285  45.794 -0.0989 -0.0659  0.3242
 5068TIP3    H136695   3.038   0.258  45.846 -0.7077 -2.0495  0.2958
 5068TIP3    H236696   2.886   0.263  45.849 -0.7015 -0.5547 -0.6698
 5069TIP3   OH236697   0.608   0.570  45.460 -0.4314 -0.4138  0.1862
 5069TIP3    H136698   0.564   0.486  45.449  1.4888 -1.7040  1.7161
 5069TIP3    H236699   0.591   0.594  45.551  0.2751  0.0914  0.1913
 5070TIP3   OH236700   1.288   4.063  31.846 -0.2945  0.4954  0.7270
 5070TIP3    H136701   1.205   4.096  31.880 -1.6383 -0.3029 -1.5278
 5070TIP3    H236702   1.305   3.984  31.897 -0.8306  0.7428  1.3079
 5071TIP3   OH236703   1.468   4.024   5.436 -0.1736  0.0180 -0.6135
 5071TIP3    H136704   1.486   3.936   5.470  0.3203  0.1228 -0.5958
 5071TIP3    H236705   1.399   4.011   5.371 -0.8022 -0.2465  0.0967
 5072TIP3   OH236706   1.978   0.079  39.831 -0.0320  0.5419  0.1824
 5072TIP3    H136707   2.027   0.030  39.765  0.5066  0.4048  0.6727
 5072TIP3    H236708   1.898   0.107  39.787 -1.8583 -3.3249  0.6747
 5073TIP3   OH236709   3.251   2.018  44.782 -0.6648 -0.0854 -0.3136
 5073TIP3    H136710   3.332   2.026  44.832  1.1080 -2.7164 -2.4309
 5073TIP3    H236711   3.214   2.106  44.781  1.7278  1.0445  1.4515
 5074TIP3   OH236712   0.509   2.114  34.374  0.5427  0.2365  0.2961
 5074TIP3    H136713   0.455   2.052  34.423 -1.1532  0.0939 -1.6096
 5074TIP3    H236714   0.485   2.200  34.408 -1.4600  0.2243 -0.9457
 5075TIP3   OH236715   3.542   0.063   4.967 -0.0621  0.1828 -0.3284
 5075TIP3    H136716   3.573  -0.017   4.925  0.1129 -0.4251  0.9118
 5075TIP3    H236717   3.469   0.092   4.913  0.2624 -0.4771 -1.1342
 5076TIP3   OH236718   0.442   0.540   4.197  0.7107 -0.4248 -0.1471
 5076TIP3    H136719   0.373   0.570   4.256  1.9087 -0.0236  1.0810
 5076TIP3    H236720   0.415   0.572   4.111 -1.4758 -1.7013 -0.0025
 5077TIP3   OH236721   2.600   0.800  40.230  0.3365  0.1635  0.1229
 5077TIP3    H136722   2.644   0.850  40.161  0.6450  0.7053  0.7075
 5077TIP3    H236723   2.592   0.862  40.303 -0.3267 -0.2883  0.4422
 5078TIP3   OH236724   1.817   2.137  45.874 -0.4533  0.3196 -0.1697
 5078TIP3    H136725   1.801   2.179  45.789  0.2192 -1.5039 -1.2662
 5078TIP3    H236726   1.730   2.130  45.913 -0.9532  0.1108 -1.2636
 5079TIP3   OH236727   0.858   2.111  34.461 -0.3200  0.1641  0.2563
 5079TIP3    H136728   0.832   2.022  34.436 -1.5067  0.6213 -0.2184
 5079TIP3    H236729   0.832   2.119  34.553 -0.6134  0.1609  0.1744
 5080TIP3   OH236730   0.690   0.632  46.431  0.5486 -0.2528  0.8126
 5080TIP3    H136731   0.770   0.620  46.482  0.1392  0.3795  1.6218
 5080TIP3    H236732   0.695   0.566  46.363  0.7062 -1.6941  2.1760
 5081TIP3   OH236733   3.489   3.262   1.398  0.2492 -0.3909 -0.1046
 5081TIP3    H136734   3.466   3.183   1.447  1.6577  0.2472  1.6758
 5081TIP3    H236735   3.469   3.334   1.457  0.2802  0.5241 -1.1833
 5082TIP3   OH236736   1.140   0.071   1.159  0.0192 -0.4092  0.3901
 5082TIP3    H136737   1.092   0.149   1.131 -1.2967 -1.0614  0.7648
 5082TIP3    H236738   1.172   0.033   1.077 -1.5452 -0.8616 -0.0547
 5083TIP3   OH236739   3.184   2.387  31.575  0.0905 -0.2572 -0.0526
 5083TIP3    H136740   3.248   2.316  31.571  0.9533  0.4672  0.6190
 5083TIP3    H236741   3.105   2.350  31.533  1.2929 -0.7517 -2.0178
 5084TIP3   OH236742   1.008   1.799  32.055 -0.1488 -0.2256 -0.3063
 5084TIP3    H136743   0.948   1.774  31.985  1.6762 -0.8721 -1.7310
 5084TIP3    H236744   0.969   1.877  32.094 -2.1055 -0.8744 -0.8795
 5085TIP3   OH236745   3.794   1.802  39.969  0.1895  0.4923 -0.1469
 5085TIP3    H136746   3.729   1.752  40.020  1.0436 -1.1211 -0.5561
 5085TIP3    H236747   3.803   1.753  39.887  2.9040 -0.2090  0.4406
 5086TIP3   OH236748   4.087   0.167  26.742  0.2562  0.1880  0.3527
 5086TIP3    H136749   3.992   0.170  26.756  0.1705 -0.6355  0.0614
 5086TIP3    H236750   4.124   0.165  26.830  0.1767  3.2736  0.5578
 5087TIP3   OH236751   1.888   4.102  44.243 -0.1151  0.4523 -0.0224
 5087TIP3    H136752   1.869   4.073  44.154  0.6813  0.1746 -0.1094
 5087TIP3    H236753   1.935   4.185  44.232  0.7764 -0.0278  0.0987
 5088TIP3   OH236754   1.979   2.867   0.451  0.0570 -0.4392  0.5340
 5088TIP3    H136755   1.987   2.858   0.356 -0.8215 -0.0439  0.4099
 5088TIP3    H236756   1.927   2.946   0.463 -0.0203 -0.6053  1.3469
 5089TIP3   OH236757   0.560   3.197  41.274 -0.1761 -0.5842  0.3746
 5089TIP3    H136758   0.512   3.268  41.316 -1.3754 -1.2022  0.0711
 5089TIP3    H236759   0.646   3.235  41.253 -0.7213  0.7020  0.4104
 5090TIP3   OH236760   3.539   0.753   8.076  0.0287 -0.2702  0.3671
 5090TIP3    H136761   3.525   0.705   8.158 -1.7079 -1.3755 -0.5281
 5090TIP3    H236762   3.575   0.688   8.016 -0.1159  0.1491 -0.1797
 5091TIP3   OH236763   3.506   1.813  40.357 -0.0125  0.0617  0.5773
 5091TIP3    H136764   3.596   1.781  40.351  0.1878  0.4030  1.5813
 5091TIP3    H236765   3.471   1.771  40.435 -1.2292 -1.2494 -0.6076
 5092TIP3   OH236766   0.336   2.097   8.477 -0.2685  0.1835  0.2004
 5092TIP3    H136767   0.265   2.115   8.539 -0.7084 -0.7605 -0.0161
 5092TIP3    H236768   0.348   2.002   8.480  1.5124  0.3939  0.7818
 5093TIP3   OH236769   1.597   1.972  39.235  0.3428 -0.3610  0.1911
 5093TIP3    H136770   1.557   2.010  39.156  0.0679 -0.6595  0.1854
 5093TIP3    H236771   1.639   2.046  39.279  2.1900 -0.4869 -1.2265
 5094TIP3   OH236772   3.158   2.637  16.358 -0.1100  0.2862  0.0786
 5094TIP3    H136773   3.218   2.566  16.382 -0.3664  0.8251  2.5792
 5094TIP3    H236774   3.073   2.609  16.392 -0.3506  1.4510  0.4798
 5095TIP3   OH236775   1.494   3.789   9.421  0.4722 -0.4498  0.0807
 5095TIP3    H136776   1.441   3.827   9.350 -0.5382 -1.8020  0.0781
 5095TIP3    H236777   1.566   3.851   9.431 -1.2865  1.7059  0.3645
 5096TIP3   OH236778   0.618   1.887  43.046  0.3504  0.0860 -0.0054
 5096TIP3    H136779   0.644   1.805  43.006  0.2054  0.2505 -0.4367
 5096TIP3    H236780   0.589   1.863  43.134 -1.1478 -0.5388 -0.6381
 5097TIP3   OH236781   1.989   2.312  38.203 -0.0733  0.1677 -0.2569
 5097TIP3    H136782   2.075   2.273  38.188 -0.0440  0.2776 -0.3737
 5097TIP3    H236783   1.965   2.282  38.291 -1.1781 -2.2326 -1.2695
 5098TIP3   OH236784   0.139   0.906  39.676  0.2707 -0.3611 -0.0930
 5098TIP3    H136785   0.189   0.986  39.693 -0.7046  0.7193 -1.9864
 5098TIP3    H236786   0.203   0.846  39.638  0.7975 -0.1508  0.4346
 5099TIP3   OH236787   3.433   3.967  28.375 -0.9107 -0.1891 -0.3734
 5099TIP3    H136788   3.406   4.043  28.324 -0.2540  0.6187  0.4534
 5099TIP3    H236789   3.448   3.898  28.309 -1.2830  0.4561 -1.1484
 5100TIP3   OH236790   1.989   0.491  15.104 -0.2565 -0.0649 -0.6878
 5100TIP3    H136791   2.036   0.568  15.133 -0.3277 -0.5650  0.8397
 5100TIP3    H236792   1.937   0.521  15.029  0.9883  0.9360 -1.1841
 5101TIP3   OH236793   3.286   3.385  36.881  0.7979  0.2587  1.2328
 5101TIP3    H136794   3.378   3.380  36.905  1.0144  2.4798  1.0675
 5101TIP3    H236795   3.258   3.471  36.912 -0.2225  1.2122 -1.9530
 5102TIP3   OH236796   3.461   2.861  43.901  0.0173 -0.5764 -0.4697
 5102TIP3    H136797   3.403   2.834  43.971 -0.4923 -1.7895 -1.3258
 5102TIP3    H236798   3.431   2.949  43.877  0.4440  0.0187  1.0442
 5103TIP3   OH236799   0.201   3.364  33.374 -0.2585  0.0278 -0.0364
 5103TIP3    H136800   0.124   3.420  33.385 -0.0081  0.1797  0.9959
 5103TIP3    H236801   0.180   3.309  33.298 -1.5936 -0.2783  0.5283
 5104TIP3   OH236802   1.958   2.007  14.602  0.4720  0.7105 -0.0361
 5104TIP3    H136803   2.027   2.069  14.627  1.4714 -1.6233  3.8352
 5104TIP3    H236804   1.878   2.043  14.640  0.7699  0.3557  0.9333
 5105TIP3   OH236805   0.213   1.795  40.377  0.5371 -0.1691 -0.1948
 5105TIP3    H136806   0.283   1.830  40.322  0.6383 -1.1249 -0.6981
 5105TIP3    H236807   0.252   1.720  40.421 -0.1041 -0.5857 -0.3214
 5106TIP3   OH236808   0.410   2.514  36.639 -0.6577 -0.6369 -0.0969
 5106TIP3    H136809   0.315   2.521  36.625 -0.9364  0.7368  2.0019
 5106TIP3    H236810   0.446   2.592  36.597 -0.5234 -0.8561 -0.3874
 5107TIP3   OH236811   3.589   0.178   9.630 -0.3684 -0.1876  0.2999
 5107TIP3    H136812   3.572   0.093   9.671 -2.0367 -0.9043 -1.6653
 5107TIP3    H236813   3.665   0.163   9.574  0.1384 -0.0109  0.9360
 5108TIP3   OH236814   1.193   0.726  15.739  0.3223  0.0285  0.1195
 5108TIP3    H136815   1.141   0.764  15.809  0.8420  0.1388  0.4530
 5108TIP3    H236816   1.281   0.760  15.753  0.6800 -0.8375  0.0828
 5109TIP3   OH236817   0.611   0.111   6.565  0.2063  0.3224  0.4353
 5109TIP3    H136818   0.702   0.121   6.590  0.1387  0.4857  0.6180
 5109TIP3    H236819   0.588   0.194   6.523  0.3981 -0.0490 -0.4289
 5110TIP3   OH236820   0.211   3.973   3.813  0.7144  0.5589  0.0621
 5110TIP3    H136821   0.212   3.882   3.785  2.1790  0.5118  0.2019
 5110TIP3    H236822   0.212   3.969   3.909 -0.2630  0.7334  0.0896
 5111TIP3   OH236823   4.059   0.570  14.311 -0.3950  0.2237  0.0157
 5111TIP3    H136824   4.010   0.633  14.365 -2.4117 -1.1510 -0.0933
 5111TIP3    H236825   3.998   0.547  14.241  1.2891  0.1330 -1.4558
 5112TIP3   OH236826   1.481   3.905   8.905  0.2717  0.6055 -0.2459
 5112TIP3    H136827   1.432   3.868   8.832  1.0343  0.3576 -0.6401
 5112TIP3    H236828   1.528   3.831   8.943  0.8972  0.9494 -0.3259
 5113TIP3   OH236829   2.784   0.613  35.101  0.1422  0.4096  0.0805
 5113TIP3    H136830   2.799   0.677  35.031  1.5622  0.8479  0.7505
 5113TIP3    H236831   2.801   0.661  35.182  1.5652 -0.8693  0.5858
 5114TIP3   OH236832   0.686   2.019  38.491  0.2365 -0.1212  0.0186
 5114TIP3    H136833   0.680   2.071  38.411 -1.3665  0.8740  0.7402
 5114TIP3    H236834   0.766   2.050  38.534  0.5036  0.1233 -0.6370
 5115TIP3   OH236835   4.065   1.507   3.163 -0.5260  0.1994  0.2016
 5115TIP3    H136836   4.126   1.575   3.132  0.7075 -1.7015 -1.8442
 5115TIP3    H236837   4.120   1.446   3.212 -0.6722 -1.5652 -1.7027
 5116TIP3   OH236838   1.348   1.244   1.071 -0.0930 -0.1436  0.2798
 5116TIP3    H136839   1.285   1.184   1.032  0.2802 -0.5988  0.3774
 5116TIP3    H236840   1.303   1.329   1.070 -1.0388 -0.6079  1.0866
 5117TIP3   OH236841   3.523   1.970  35.592  0.0040  0.5694 -0.0440
 5117TIP3    H136842   3.561   2.020  35.664  0.6859 -0.6788  0.4882
 5117TIP3    H236843   3.429   1.964  35.614  0.0813  0.8174  0.3609
 5118TIP3   OH236844   1.936   0.423   0.881  0.0728 -0.1388  0.1086
 5118TIP3    H136845   2.000   0.386   0.821 -2.2627  0.3433 -2.9273
 5118TIP3    H236846   1.954   0.517   0.880  0.0540 -0.1345  0.1930
 5119TIP3   OH236847   3.435   1.627  21.580  0.5262 -0.3756 -0.5490
 5119TIP3    H136848   3.387   1.695  21.532 -0.0321 -0.7278 -0.4957
 5119TIP3    H236849   3.428   1.549  21.525  1.6309 -0.2586 -0.8716
 5120TIP3   OH236850   2.819   0.503   2.011  0.4210 -0.1748 -0.0319
 5120TIP3    H136851   2.768   0.565   2.064  0.6492  2.0108 -2.1978
 5120TIP3    H236852   2.768   0.494   1.930  2.2823  0.2396 -1.2991
 5121TIP3   OH236853   3.581   3.934  42.100 -0.1665  0.1183  0.1901
 5121TIP3    H136854   3.584   3.900  42.190 -1.1337 -0.1415  0.1420
 5121TIP3    H236855   3.671   3.956  42.079  0.0766  0.1588  1.2219
 5122TIP3   OH236856   4.088   1.832   5.771  0.2160 -0.1350 -0.0550
 5122TIP3    H136857   4.111   1.892   5.700  0.7433 -0.5209 -0.2231
 5122TIP3    H236858   4.167   1.829   5.825  0.4132 -1.1413 -0.3830
 5123TIP3   OH236859   3.802   3.681  43.623 -0.7089  0.0948 -0.6094
 5123TIP3    H136860   3.881   3.698  43.675 -0.3515  1.0456 -1.4509
 5123TIP3    H236861   3.754   3.764  43.622 -2.1584 -0.6758  0.5663
 5124TIP3   OH236862   0.571   3.557  37.543 -0.1999  0.2792 -0.1409
 5124TIP3    H136863   0.532   3.527  37.625 -0.4966  0.2627 -0.2868
 5124TIP3    H236864   0.660   3.585  37.567  0.4835 -1.7084 -0.1796
 5125TIP3   OH236865   2.110   1.631  16.189 -0.5002  0.2772  0.0241
 5125TIP3    H136866   2.048   1.590  16.129 -0.9623 -0.1403  0.7738
 5125TIP3    H236867   2.058   1.696  16.236 -0.7417 -0.9761  1.6016
 5126TIP3   OH236868   1.532   0.546  47.460 -0.5310 -0.4018 -0.2995
 5126TIP3    H136869   1.594   0.581  47.396 -1.9424  1.8306 -0.5668
 5126TIP3    H236870   1.472   0.619  47.477 -1.3214 -1.5220  2.1756
 5127TIP3   OH236871   3.614   0.270  45.569  0.7807 -0.2496  0.1147
 5127TIP3    H136872   3.590   0.359  45.542  0.9767  0.0510  0.8901
 5127TIP3    H236873   3.599   0.269  45.664  2.4596 -0.4860  0.4139
 5128TIP3   OH236874   1.616   0.204  44.930 -0.3929  0.2416  0.2293
 5128TIP3    H136875   1.531   0.248  44.933 -0.1449  0.7014  0.6577
 5128TIP3    H236876   1.608   0.133  44.993 -1.1001 -0.9196 -1.0992
 5129TIP3   OH236877   2.027   1.746  36.444  0.0349 -0.4515  0.2756
 5129TIP3    H136878   2.072   1.724  36.526 -1.2102 -1.6616  0.6629
 5129TIP3    H236879   2.031   1.665  36.393  0.1925  0.0896 -0.5753
 5130TIP3   OH236880   3.019   0.841  13.761  0.5066 -0.0051  0.2587
 5130TIP3    H136881   2.926   0.819  13.773  0.9786 -1.8970  0.6672
 5130TIP3    H236882   3.018   0.933  13.735 -1.6195 -0.4922 -1.6690
 5131TIP3   OH236883   0.105   2.047  21.203  0.0178 -0.2978  0.2939
 5131TIP3    H136884   0.147   1.994  21.271 -0.4487 -2.3012 -0.9104
 5131TIP3    H236885   0.014   2.055  21.231  0.0990 -0.0747  0.5010
 5132TIP3   OH236886   2.506   3.723  32.361  0.1210  0.6517  0.4389
 5132TIP3    H136887   2.465   3.774  32.291  0.2501 -0.3217 -0.3660
 5132TIP3    H236888   2.556   3.788  32.412  0.1480  1.3530 -0.4496
 5133TIP3   OH236889   1.179   2.545  38.052 -0.9213 -0.4112 -0.1082
 5133TIP3    H136890   1.163   2.518  38.143 -0.8189  0.6687  0.2474
 5133TIP3    H236891   1.099   2.590  38.026 -0.4480  0.4481 -0.0964
 5134TIP3   OH236892   1.941   4.104  34.518  0.0895 -0.3661  0.1928
 5134TIP3    H136893   1.934   4.017  34.556 -0.4909 -0.5360 -0.2881
 5134TIP3    H236894   1.895   4.161  34.580  1.9532 -0.0938  1.4022
 5135TIP3   OH236895   3.327   0.293   3.425 -0.1106  0.1514  0.4694
 5135TIP3    H136896   3.377   0.276   3.505 -0.0516  0.7330  0.5637
 5135TIP3    H236897   3.267   0.363   3.449 -1.1867 -0.7397  0.4348
 5136TIP3   OH236898   2.513   1.165  32.533  0.3198  0.2435  0.7408
 5136TIP3    H136899   2.522   1.072  32.512  2.3986  0.2115  1.5516
 5136TIP3    H236900   2.462   1.166  32.614  0.8563 -0.2455  1.0890
 5137TIP3   OH236901   1.367   2.146  14.310  0.2393 -0.0633  0.0686
 5137TIP3    H136902   1.431   2.113  14.374  0.2167 -1.2809 -0.5135
 5137TIP3    H236903   1.306   2.073  14.298 -0.8258  0.8129  0.0341
 5138TIP3   OH236904   1.485   1.355   0.613 -0.6688 -0.0879 -0.3045
 5138TIP3    H136905   1.567   1.397   0.587 -0.8565 -0.2044 -1.0953
 5138TIP3    H236906   1.423   1.427   0.621 -0.6148 -0.0540 -0.1869
 5139TIP3   OH236907   1.862   1.372   4.324  0.3332  0.2329 -0.1678
 5139TIP3    H136908   1.920   1.391   4.251 -0.8902 -1.3376 -1.6521
 5139TIP3    H236909   1.808   1.450   4.333 -0.4482 -0.0563 -1.9371
 5140TIP3   OH236910   0.015   2.032  33.605  0.2672  0.2944 -0.3114
 5140TIP3    H136911   0.055   2.119  33.608 -1.6633  1.2315  2.0723
 5140TIP3    H236912   0.081   1.974  33.644  0.9552  0.9864 -0.4231
 5141TIP3   OH236913   2.216   0.561  26.093  0.4223 -0.1959  0.2523
 5141TIP3    H136914   2.274   0.633  26.068 -0.4580  0.9852  1.5188
 5141TIP3    H236915   2.275   0.495  26.130  1.0228  0.7469  1.0039
 5142TIP3   OH236916   0.111   2.228   4.509  0.2781 -0.1232 -0.1524
 5142TIP3    H136917   0.168   2.188   4.443  0.1183 -0.6681  0.0351
 5142TIP3    H236918   0.041   2.165   4.521 -0.5055  0.6519 -0.5607
 5143TIP3   OH236919   1.059   3.367   9.026  0.7567 -0.1908  0.0972
 5143TIP3    H136920   1.112   3.428   9.077  0.7986  0.0208 -0.1965
 5143TIP3    H236921   1.025   3.420   8.954 -0.1348 -0.2374  0.4706
 5144TIP3   OH236922   3.305   0.228  15.530  0.6928 -0.0818 -0.3556
 5144TIP3    H136923   3.241   0.221  15.601  1.4655 -1.8345  0.2342
 5144TIP3    H236924   3.254   0.250  15.453 -0.5057 -0.5639  0.2801
 5145TIP3   OH236925   0.632   3.793  13.220 -0.2476 -0.4075 -0.0662
 5145TIP3    H136926   0.722   3.812  13.247 -1.2155  3.4037  1.2132
 5145TIP3    H236927   0.614   3.855  13.150 -2.2867  0.0130  0.7373
 5146TIP3   OH236928   3.323   1.264  11.677 -0.4159  0.0504  0.4061
 5146TIP3    H136929   3.234   1.250  11.646 -0.3142  0.8918 -0.3169
 5146TIP3    H236930   3.329   1.359  11.691  0.8074  0.2275 -1.0308
 5147TIP3   OH236931   0.775   0.459  13.187 -0.2413 -0.0748 -0.0899
 5147TIP3    H136932   0.858   0.483  13.228 -0.4669  0.3017  0.1421
 5147TIP3    H236933   0.736   0.542  13.160 -1.2419 -0.1157  1.1424
 5148TIP3   OH236934   0.236   3.927  11.861 -0.1924 -0.0495 -0.0336
 5148TIP3    H136935   0.269   4.016  11.844 -1.5787  1.0643  2.4493
 5148TIP3    H236936   0.299   3.870  11.818  1.1819  2.1099 -1.1162
 5149TIP3   OH236937   0.917   2.408  10.096  0.1617 -0.4003  0.0062
 5149TIP3    H136938   0.964   2.463  10.159  1.9161 -3.2927  1.4477
 5149TIP3    H236939   0.964   2.421  10.014  0.6249  0.1830  0.3489
 5150TIP3   OH236940   2.574   1.993  32.612 -0.1133 -0.2752 -0.3625
 5150TIP3    H136941   2.616   2.073  32.644 -2.4961  1.2144 -0.6574
 5150TIP3    H236942   2.518   2.023  32.541 -2.0314 -1.9936  0.3283
 5151TIP3   OH236943   3.413   2.867   9.730 -0.4437  0.1528  0.3901
 5151TIP3    H136944   3.339   2.906   9.684  0.4475  2.0592  0.4505
 5151TIP3    H236945   3.392   2.876   9.823 -0.4032  0.1285  0.4020
 5152TIP3   OH236946   0.115   3.215   7.106 -0.4100  0.5608  0.6492
 5152TIP3    H136947   0.141   3.133   7.065  0.3090  0.3428  1.4965
 5152TIP3    H236948   0.032   3.196   7.148  1.0656 -0.6288  3.2799
 5153TIP3   OH236949   3.294   0.166  14.467 -0.6831 -0.4661 -0.3007
 5153TIP3    H136950   3.356   0.108  14.512 -0.7732  0.0892  0.5800
 5153TIP3    H236951   3.208   0.134  14.494 -0.7324  0.5533  0.8830
 5154TIP3   OH236952   3.304   1.241  12.074  0.1738 -0.1003 -0.9032
 5154TIP3    H136953   3.307   1.260  12.168 -0.5741  0.5752 -1.0062
 5154TIP3    H236954   3.323   1.147  12.069  0.0396 -0.1874 -0.0586
 5155TIP3   OH236955   3.295   0.269  36.525  0.6755  0.3181 -0.4324
 5155TIP3    H136956   3.328   0.231  36.606  0.0841 -0.1557 -0.4059
 5155TIP3    H236957   3.369   0.263  36.464  1.4541  1.5800  0.3294
 5156TIP3   OH236958   1.880   2.489  41.340 -0.0192  0.8329 -0.2220
 5156TIP3    H136959   1.858   2.508  41.249  1.2267  1.7499 -0.3566
 5156TIP3    H236960   1.953   2.428  41.335 -0.1614  0.6285  0.1698
 5157TIP3   OH236961   2.943   2.409   9.974 -0.0725 -0.4327  0.5259
 5157TIP3    H136962   2.935   2.324  10.016  1.7043 -0.5273  0.7235
 5157TIP3    H236963   3.020   2.402   9.918 -1.7855 -0.0130 -2.0826
 5158TIP3   OH236964   3.999   2.402  32.295 -0.1495 -0.5578 -0.8301
 5158TIP3    H136965   4.079   2.355  32.318 -0.0282 -0.2051 -0.5336
 5158TIP3    H236966   4.005   2.485  32.341 -0.4654 -0.3325 -1.1849
 5159TIP3   OH236967   0.402   3.020   2.725  0.7192 -0.6735  0.1936
 5159TIP3    H136968   0.349   2.958   2.674 -0.8029  0.2068  0.6497
 5159TIP3    H236969   0.367   3.013   2.814  2.7825 -1.5758  0.9955
 5160TIP3   OH236970   3.538   2.436  44.414  0.1563 -0.4179  0.0032
 5160TIP3    H136971   3.512   2.357  44.461 -1.7979 -0.5759 -1.2471
 5160TIP3    H236972   3.578   2.404  44.333 -2.2564 -0.2212 -1.3542
 5161TIP3   OH236973   3.123   3.066  41.811 -0.2494  0.4620  0.2130
 5161TIP3    H136974   3.178   3.095  41.884  0.3420  0.9912 -0.4325
 5161TIP3    H236975   3.180   3.069  41.735 -1.1613  0.9768 -0.4646
 5162TIP3   OH236976   0.394   2.390   0.089 -0.4951 -0.3084  0.2426
 5162TIP3    H136977   0.475   2.441   0.096 -1.2247  0.7092  1.9015
 5162TIP3    H236978   0.389   2.342   0.172 -0.7066 -1.7886 -0.5874
 5163TIP3   OH236979   2.019   1.229  37.593  0.2371  0.8222  0.1219
 5163TIP3    H136980   2.023   1.325  37.587  0.1461  0.8037 -0.3028
 5163TIP3    H236981   2.045   1.199  37.505 -1.7209  0.5130 -0.4027
 5164TIP3   OH236982   2.062   2.178  38.794  0.5758 -0.3031 -0.1886
 5164TIP3    H136983   1.968   2.194  38.779  0.5432 -0.8710 -0.5877
 5164TIP3    H236984   2.104   2.261  38.773  0.3451 -0.5548 -1.7084
 5165TIP3   OH236985   3.330   1.653  41.499 -0.8089 -0.1385 -1.0155
 5165TIP3    H136986   3.404   1.713  41.501 -1.4097  0.6083  0.8762
 5165TIP3    H236987   3.365   1.573  41.460  0.9540  0.2484 -0.3015
 5166TIP3   OH236988   1.675   3.591  29.145  0.2871 -0.1292 -0.3551
 5166TIP3    H136989   1.721   3.669  29.117  2.3350 -0.7877  0.9556
 5166TIP3    H236990   1.653   3.608  29.237 -0.6676 -0.4881 -0.5017
 5167TIP3   OH236991   0.307   2.471  13.650 -0.3316  0.1891  0.2174
 5167TIP3    H136992   0.233   2.416  13.672  0.9417 -2.0590 -0.7647
 5167TIP3    H236993   0.370   2.456  13.720  0.6236 -0.8601 -0.8279
 5168TIP3   OH236994   1.682   2.772  40.937  0.0403 -0.0482  0.3304
 5168TIP3    H136995   1.633   2.754  41.018 -1.4669 -0.6122 -0.6605
 5168TIP3    H236996   1.774   2.764  40.962 -0.3990 -0.3319  1.9551
 5169TIP3   OH236997   3.244   4.101  35.526 -0.0530  0.2083 -0.0370
 5169TIP3    H136998   3.155   4.066  35.530 -1.1737  2.8121 -0.4229
 5169TIP3    H236999   3.287   4.048  35.459 -1.1148 -1.3990  0.4622
 5170TIP3   OH237000   3.831   1.493  17.943 -0.4181 -0.3557  0.1597
 5170TIP3    H137001   3.763   1.475  18.008 -2.2943  2.0139 -1.0199
 5170TIP3    H237002   3.866   1.578  17.968  0.6960 -0.6169 -0.4475
 5171TIP3   OH237003   3.169   0.265  12.415  0.6909 -0.0740 -0.5924
 5171TIP3    H137004   3.102   0.330  12.393 -0.4085 -0.6613  0.8456
 5171TIP3    H237005   3.125   0.181  12.402  1.6010 -0.5068 -0.9324
 5172TIP3   OH237006   1.792   0.904  13.575  0.7218 -0.6684  0.0092
 5172TIP3    H137007   1.796   1.000  13.583 -3.0422 -0.2906 -0.4843
 5172TIP3    H237008   1.842   0.885  13.496 -1.7023  1.5246 -2.2704
 5173TIP3   OH237009   0.580   3.412  30.905  0.0209  0.4314 -0.1890
 5173TIP3    H137010   0.660   3.392  30.857  0.5335  0.4275  0.6531
 5173TIP3    H237011   0.548   3.327  30.935 -0.8171  0.3311 -1.3062
 5174TIP3   OH237012   3.758   2.894  47.262 -0.4259  0.3777  0.6339
 5174TIP3    H137013   3.680   2.857  47.304  0.6890 -1.4316  1.2068
 5174TIP3    H237014   3.820   2.821  47.258  0.3455  1.0862 -2.1320
 5175TIP3   OH237015   0.360   3.715  37.527  0.3678  0.0285  0.3314
 5175TIP3    H137016   0.305   3.686  37.454 -2.4011  0.1099  2.2118
 5175TIP3    H237017   0.434   3.655  37.526 -0.6461 -1.3190 -1.2860
 5176TIP3   OH237018   1.696   3.714  37.306  0.1734 -0.3380  0.2137
 5176TIP3    H137019   1.710   3.743  37.396 -0.2595 -0.1211  0.2125
 5176TIP3    H237020   1.734   3.626  37.303 -0.3872 -0.6106  0.7897
 5177TIP3   OH237021   1.234   2.790  12.992  0.1489 -0.1108  0.1908
 5177TIP3    H137022   1.209   2.744  12.911 -2.5568 -1.0187  1.4123
 5177TIP3    H237023   1.232   2.882  12.969 -3.1526 -0.1854 -0.2948
 5178TIP3   OH237024   1.294   2.975  11.938 -0.6287 -0.0100 -0.2892
 5178TIP3    H137025   1.337   2.948  11.857 -1.0043 -0.4253 -0.3607
 5178TIP3    H237026   1.357   3.031  11.982  0.4680 -1.5225  0.1668
 5179TIP3   OH237027   0.369   3.775  47.004  0.0773  0.3521 -0.1878
 5179TIP3    H137028   0.317   3.714  47.057  1.6865  0.0800  1.1459
 5179TIP3    H237029   0.304   3.821  46.950 -1.5355  0.0585  1.4182
 5180TIP3   OH237030   1.179   0.052  43.871  0.0036 -0.1192 -0.0616
 5180TIP3    H137031   1.103  -0.001  43.896  1.1564 -1.7273  0.2050
 5180TIP3    H237032   1.191   0.113  43.943 -2.2369  1.5958 -1.0329
 5181TIP3   OH237033   3.970   3.193  42.963  0.0966 -0.3942  0.0528
 5181TIP3    H137034   4.007   3.234  43.041 -1.6662  1.4527  0.0021
 5181TIP3    H237035   4.038   3.133  42.933  2.4793  1.7686  0.7372
 5182TIP3   OH237036   3.928   0.819   7.286  0.0914  0.1892 -0.3299
 5182TIP3    H137037   3.935   0.879   7.360  0.2395 -0.9151  0.5647
 5182TIP3    H237038   3.960   0.870   7.211  1.7250  0.7134  0.6889
 5183TIP3   OH237039   2.694   3.621   5.050  0.5405  0.3163 -0.0376
 5183TIP3    H137040   2.632   3.549   5.039  1.0505 -0.1944  0.3555
 5183TIP3    H237041   2.663   3.669   5.127 -0.6974  1.4747 -1.1934
 5184TIP3   OH237042   3.428   1.180  36.209  0.2708 -0.0729 -0.3728
 5184TIP3    H137043   3.419   1.267  36.249  0.4587  0.1606 -0.8315
 5184TIP3    H237044   3.436   1.120  36.283 -0.1728  0.2637 -0.0460
 5185TIP3   OH237045   0.801   3.866  42.123  0.4416  0.3540 -0.1617
 5185TIP3    H137046   0.756   3.883  42.206 -1.0884  1.7256 -1.1987
 5185TIP3    H237047   0.877   3.812  42.147 -0.1670  0.3817  2.0517
 5186TIP3   OH237048   0.976   0.668  40.220  0.7537  0.0189  0.0684
 5186TIP3    H137049   1.020   0.750  40.200  0.9824 -0.0565  0.2690
 5186TIP3    H237050   1.008   0.606  40.154  0.5775  0.0900 -0.0848
 5187TIP3   OH237051   2.874   3.889  44.100 -0.4008  0.0421  0.2413
 5187TIP3    H137052   2.818   3.836  44.158  1.4219 -0.8809  1.2309
 5187TIP3    H237053   2.922   3.946  44.159 -2.2035  2.8632 -0.7967
 5188TIP3   OH237054   1.609   2.158  14.489  0.5474 -0.0761 -0.5744
 5188TIP3    H137055   1.558   2.094  14.538 -0.8941  1.0475 -0.5224
 5188TIP3    H237056   1.649   2.109  14.418 -1.5440 -0.8400 -1.2964
 5189TIP3   OH237057   3.431   2.083  42.467 -0.0929  0.0873  0.1501
 5189TIP3    H137058   3.416   2.096  42.373 -0.1079 -0.9378 -0.0045
 5189TIP3    H237059   3.525   2.096  42.478 -0.1165  0.3807  0.0290
 5190TIP3   OH237060   2.090   0.620  42.407  0.3892  0.4811 -0.1861
 5190TIP3    H137061   2.104   0.665  42.323 -1.2903  0.7114 -0.3740
 5190TIP3    H237062   2.107   0.527  42.388  1.2112  0.6782 -0.4613
 5191TIP3   OH237063   1.789   0.841  47.631 -0.5338  0.0380 -0.1315
 5191TIP3    H137064   1.852   0.776  47.662  1.9202  2.7628  1.1020
 5191TIP3    H237065   1.710   0.825  47.682  0.4229 -1.1801  1.0300
 5192TIP3   OH237066   1.419   0.247  45.187 -0.6345 -0.1318 -0.2325
 5192TIP3    H137067   1.360   0.315  45.221 -0.9556 -1.2299  1.4978
 5192TIP3    H237068   1.368   0.167  45.191  0.0783 -0.6521 -1.3189
 5193TIP3   OH237069   3.946   3.076  32.977  0.0263 -0.0942 -0.0260
 5193TIP3    H137070   3.925   2.986  32.951 -1.1050  0.2169 -0.2363
 5193TIP3    H237071   3.900   3.089  33.060  3.4092 -0.9853  2.1823
 5194TIP3   OH237072   4.051   0.777   0.029 -0.7677 -0.3540  0.4071
 5194TIP3    H137073   4.130   0.831   0.017 -1.2039  0.0086 -1.0056
 5194TIP3    H237074   4.020   0.801   0.116  0.3805 -0.1044  0.7752
 5195TIP3   OH237075   0.944   3.944   1.906 -0.2411  0.2020  0.1002
 5195TIP3    H137076   1.035   3.945   1.936 -0.8880 -0.3853  2.3092
 5195TIP3    H237077   0.936   3.866   1.852  0.0901 -0.9714  1.6894
 5196TIP3   OH237078   3.240   3.525  13.667  0.5042  0.1017 -0.1898
 5196TIP3    H137079   3.277   3.609  13.695 -0.8807  0.4533  0.7232
 5196TIP3    H237080   3.293   3.499  13.592  0.3472  2.2980 -1.1495
 5197TIP3   OH237081   1.633   0.277  36.852 -0.1179 -0.3190 -0.2137
 5197TIP3    H137082   1.667   0.191  36.828  1.6247 -0.2735  1.8097
 5197TIP3    H237083   1.710   0.333  36.854 -1.2376  1.3689 -1.5865
 5198TIP3   OH237084   2.567   4.106  39.534  0.1787  0.1339  0.2964
 5198TIP3    H137085   2.613   4.179  39.575  1.0333  0.7848 -1.6765
 5198TIP3    H237086   2.552   4.044  39.605  1.1067  1.3981  1.6578
 5199TIP3   OH237087   3.168   3.266   1.235 -0.4292  0.3219 -0.2419
 5199TIP3    H137088   3.195   3.356   1.252 -0.6919  0.6346 -1.3760
 5199TIP3    H237089   3.157   3.227   1.322  0.8383  1.0233  0.2678
 5200TIP3   OH237090   3.813   0.893  30.769  0.5128  0.0310  0.1390
 5200TIP3    H137091   3.885   0.947  30.800  1.0723 -0.9711  0.6546
 5200TIP3    H237092   3.846   0.851  30.690  0.2900  0.0115  0.0551
 5201TIP3   OH237093   3.894   1.261  11.271 -0.0094  0.5962  0.3410
 5201TIP3    H137094   3.812   1.294  11.235 -0.9999  1.0171  2.8193
 5201TIP3    H237095   3.961   1.295  11.211 -1.5709  0.5100 -1.5614
 5202TIP3   OH237096   0.786   2.440  43.737 -0.3087 -0.3197 -0.1338
 5202TIP3    H137097   0.764   2.499  43.665 -1.5747 -1.5845 -0.8545
 5202TIP3    H237098   0.702   2.401  43.762  0.0759  0.1823  2.1503
 5203TIP3   OH237099   3.985   3.556   0.939 -0.2829  0.2818  0.0706
 5203TIP3    H137100   4.039   3.629   0.907  1.1201 -0.4762  0.5962
 5203TIP3    H237101   4.006   3.551   1.032 -0.8745 -0.3803  0.1710
 5204TIP3   OH237102   1.097   1.136  33.801 -0.1741 -0.5312 -0.5029
 5204TIP3    H137103   1.062   1.095  33.722  1.4971 -1.4140 -0.8214
 5204TIP3    H237104   1.121   1.224  33.774 -1.1898 -0.2448 -0.5231
 5205TIP3   OH237105   2.795   3.240  38.465  0.0399 -0.1063  0.1334
 5205TIP3    H137106   2.728   3.306  38.446  0.4969  0.2093 -0.4357
 5205TIP3    H237107   2.757   3.186  38.534 -1.6752 -1.2093 -1.5622
 5206TIP3   OH237108   1.870   1.466  40.713 -0.4398  0.3632 -0.1513
 5206TIP3    H137109   1.948   1.418  40.687  0.3999  1.8886 -0.5485
 5206TIP3    H237110   1.808   1.451  40.641 -0.5192 -0.8096  0.1408
 5207TIP3   OH237111   0.383   0.397  15.452 -0.0183 -0.1835 -0.2833
 5207TIP3    H137112   0.418   0.460  15.515 -0.0298  0.8446 -1.2684
 5207TIP3    H237113   0.452   0.332  15.441 -0.0516 -0.4313  0.8308
 5208TIP3   OH237114   0.024   1.319  15.749  0.0420 -0.1514  0.0117
 5208TIP3    H137115  -0.031   1.390  15.715 -0.8983 -0.2079  1.3362
 5208TIP3    H237116   0.106   1.361  15.772 -0.6798  0.6337  1.2641
 5209TIP3   OH237117   1.984   2.974   3.713  0.2665  0.4359  0.2136
 5209TIP3    H137118   1.977   3.069   3.708  0.1422  0.3953 -0.4857
 5209TIP3    H237119   1.992   2.955   3.806  1.8625  1.2335  0.2620
 5210TIP3   OH237120   2.301   2.467  31.939 -0.1248 -0.9663 -0.2679
 5210TIP3    H137121   2.288   2.377  31.968 -0.6556 -0.4542  1.1704
 5210TIP3    H237122   2.238   2.518  31.991  0.5626  0.3013 -0.6483
 5211TIP3   OH237123   2.587   0.379  38.193 -0.3096  0.0799  0.1574
 5211TIP3    H137124   2.548   0.314  38.252 -0.0047  1.1736  1.6091
 5211TIP3    H237125   2.676   0.348  38.179 -0.4388 -0.2802  0.0933
 5212TIP3   OH237126   0.582   1.957   0.709  0.0749 -0.2563  0.2627
 5212TIP3    H137127   0.579   2.025   0.776 -0.5811 -1.1130  1.1262
 5212TIP3    H237128   0.525   1.990   0.639  0.6659  0.5812  0.1477
 5213TIP3   OH237129   3.654   0.342  11.178  0.3586  0.0020  0.2647
 5213TIP3    H137130   3.722   0.347  11.110  0.4026 -0.1645  0.2963
 5213TIP3    H237131   3.682   0.403  11.246  1.0811 -0.9204  0.8143
 5214TIP3   OH237132   3.951   2.222  42.050 -0.1179  0.6211 -0.3571
 5214TIP3    H137133   3.923   2.276  42.124  2.4321  0.9174  0.4896
 5214TIP3    H237134   4.032   2.263  42.020 -0.5825 -0.0677 -2.7283
 5215TIP3   OH237135   2.435   2.340  13.409 -0.4819  0.4090  0.0371
 5215TIP3    H137136   2.515   2.296  13.438 -1.1123 -0.6738  0.1979
 5215TIP3    H237137   2.449   2.355  13.316  0.0944  0.6508  0.1574
 5216TIP3   OH237138   0.555   1.539   2.835  1.0806 -0.3927 -0.1129
 5216TIP3    H137139   0.597   1.459   2.802  1.3730 -0.8687  1.3517
 5216TIP3    H237140   0.623   1.583   2.885  0.2642 -0.4368  1.0717
 5217TIP3   OH237141   3.840   2.809  32.423 -0.2090 -0.1059 -0.1351
 5217TIP3    H137142   3.919   2.843  32.465 -1.1403  0.8722  0.8968
 5217TIP3    H237143   3.777   2.881  32.429 -1.6040 -1.3121  0.2868
 5218TIP3   OH237144   3.471   0.051  35.691  0.2181  0.2186  0.2450
 5218TIP3    H137145   3.506  -0.036  35.710 -0.0251  0.1175  0.2423
 5218TIP3    H237146   3.389   0.034  35.644  0.1757  0.4490  0.2339
 5219TIP3   OH237147   0.767   1.602  34.594  0.1697 -0.0480  0.2520
 5219TIP3    H137148   0.786   1.542  34.523  1.3917  1.5022 -0.7907
 5219TIP3    H237149   0.776   1.549  34.674  0.1624 -1.4706 -0.6598
 5220TIP3   OH237150   1.854   2.282   6.166 -0.0884 -0.7117 -0.2022
 5220TIP3    H137151   1.949   2.278   6.178  0.4444  3.6527 -1.1803
 5220TIP3    H237152   1.843   2.306   6.074 -1.9222  1.1814  0.4302
 5221TIP3   OH237153   0.780   2.946  31.424  0.3434 -0.0928  0.1751
 5221TIP3    H137154   0.862   2.923  31.469  0.6549  0.3655 -0.1534
 5221TIP3    H237155   0.738   3.008  31.483  0.7248  0.4629 -0.1234
 5222TIP3   OH237156   3.631   2.040  37.986  0.3429  0.1667  0.4455
 5222TIP3    H137157   3.548   1.992  37.989  0.7757 -0.5844  0.4672
 5222TIP3    H237158   3.688   1.986  37.932  0.5675  1.0914 -0.2844
 5223TIP3   OH237159   3.182   2.943  14.741  0.3460  0.4863  0.0741
 5223TIP3    H137160   3.167   2.949  14.835 -0.6455 -0.2900 -0.0209
 5223TIP3    H237161   3.231   2.861  14.729  1.8664  1.3532  0.0440
 5224TIP3   OH237162   3.141   3.919  28.112  0.3536 -0.2170 -0.0879
 5224TIP3    H137163   3.066   3.976  28.102  0.7536  0.2446 -0.4947
 5224TIP3    H237164   3.217   3.978  28.112  0.8333 -0.7888 -1.3417
 5225TIP3   OH237165   3.594   1.800  20.865  0.4059  0.3188 -0.2455
 5225TIP3    H137166   3.585   1.847  20.947  0.3140 -1.5845  0.9011
 5225TIP3    H237167   3.505   1.775  20.841  0.6628 -1.8143  0.7917
 5226TIP3   OH237168   3.059   0.393  12.100  0.0827 -0.6014 -0.0624
 5226TIP3    H137169   3.046   0.487  12.114 -2.9415 -0.9614  0.1753
 5226TIP3    H237170   3.143   0.374  12.142  0.1207  1.7355  1.0799
 5227TIP3   OH237171   2.823   2.210  17.291  0.0194  0.2359 -0.1241
 5227TIP3    H137172   2.767   2.176  17.361 -0.8651  1.1671 -0.3446
 5227TIP3    H237173   2.771   2.281  17.252  0.3464 -0.4578 -1.9177
 5228TIP3   OH237174   2.733   2.571   3.983  0.5407 -0.3590  0.1184
 5228TIP3    H137175   2.815   2.620   3.976  0.6993 -0.8681 -2.3342
 5228TIP3    H237176   2.673   2.616   3.924 -0.2834 -1.2875  0.2185
 5229TIP3   OH237177   3.905   1.947  15.266 -0.2734  0.0993  0.4601
 5229TIP3    H137178   3.866   1.883  15.206 -0.1891  0.8950 -0.4720
 5229TIP3    H237179   3.957   1.895  15.327  1.2455 -0.6182 -1.3491
 5230TIP3   OH237180   3.107   2.228  20.766 -0.1953  0.3992 -0.1490
 5230TIP3    H137181   3.199   2.249  20.780  0.0269 -0.6287  0.0754
 5230TIP3    H237182   3.059   2.296  20.812  0.4932 -0.9714  2.8775
 5231TIP3   OH237183   1.941   1.423   7.330 -0.0265 -0.2555  0.5493
 5231TIP3    H137184   1.987   1.374   7.398  2.3501 -0.4957 -1.0949
 5231TIP3    H237185   2.010   1.470   7.284 -1.5829  0.2083 -1.4565
 5232TIP3   OH237186   2.575   0.743   1.374  0.0028  0.3608 -0.2124
 5232TIP3    H137187   2.639   0.775   1.437  0.2358  0.5420 -0.5428
 5232TIP3    H237188   2.591   0.793   1.295 -0.4734  0.3268 -0.3327
 5233TIP3   OH237189   1.386   1.615  19.367 -0.0566  0.1148  0.2204
 5233TIP3    H137190   1.432   1.697  19.347 -2.5202  1.4283 -0.5463
 5233TIP3    H237191   1.388   1.565  19.286  1.6867 -0.7711  0.7660
 5234TIP3   OH237192   2.798   1.677  41.308  0.0255 -0.1783 -0.3457
 5234TIP3    H137193   2.823   1.611  41.372  1.1279 -1.0999 -1.6731
 5234TIP3    H237194   2.702   1.679  41.311  0.0527 -0.2259  1.2755
 5235TIP3   OH237195   2.260   3.433  39.574  0.2287  0.9848  0.3172
 5235TIP3    H137196   2.321   3.359  39.582  2.2206  2.5263  0.0265
 5235TIP3    H237197   2.303   3.504  39.622  0.1072  2.9734 -2.3112
 5236TIP3   OH237198   2.909   2.474   0.036  0.2260  0.0442  0.5220
 5236TIP3    H137199   2.835   2.527   0.006  0.0829 -0.1701  0.4923
 5236TIP3    H237200   2.936   2.514   0.118  0.5707  0.5894  0.1438
 5237TIP3   OH237201   3.618   3.738   9.857 -0.8528 -0.2685 -0.4354
 5237TIP3    H137202   3.529   3.712   9.835 -0.0958 -1.6072 -2.2264
 5237TIP3    H237203   3.650   3.668   9.914 -0.6019 -0.3517 -0.6769
 5238TIP3   OH237204   2.121   1.662  15.078  0.1282 -0.1186  0.1030
 5238TIP3    H137205   2.060   1.616  15.136  0.7653 -0.4494  0.5298
 5238TIP3    H237206   2.106   1.755  15.097 -0.3261 -0.1913  0.1137
 5239TIP3   OH237207   0.793   1.815  32.332  0.0324  0.2019  0.0890
 5239TIP3    H137208   0.720   1.757  32.309  0.5408 -0.3409 -0.1978
 5239TIP3    H237209   0.787   1.887  32.270 -2.5440  2.2131  2.4403
 5240TIP3   OH237210   2.151   2.653   8.145 -0.4367  0.5391 -0.4216
 5240TIP3    H137211   2.114   2.728   8.191  0.1212  0.8072 -0.3990
 5240TIP3    H237212   2.166   2.587   8.213 -0.3304  0.6469 -0.3406
 5241TIP3   OH237213   1.842   2.223   6.419  0.3107 -0.5509 -0.2462
 5241TIP3    H137214   1.882   2.308   6.438 -0.9700 -0.1457  0.8041
 5241TIP3    H237215   1.820   2.227   6.326  0.6874  0.0746 -0.3126
 5242TIP3   OH237216   0.806   2.834  30.925 -0.4119 -0.1775 -0.0074
 5242TIP3    H137217   0.866   2.779  30.874 -0.8972  1.0144 -1.9668
 5242TIP3    H237218   0.803   2.917  30.877  1.1733  2.0837  3.4410
 5243TIP3   OH237219   0.066   2.986  31.418  0.5740 -0.3357  0.3720
 5243TIP3    H137220   0.093   3.068  31.458  3.5481 -1.1523  0.3228
 5243TIP3    H237221   0.052   2.926  31.492 -0.8343 -0.0401  0.3750
 5244TIP3   OH237222   3.810   3.117   3.905  0.0866 -0.4709  0.6541
 5244TIP3    H137223   3.790   3.210   3.915  1.5987 -0.0252 -0.1524
 5244TIP3    H237224   3.821   3.084   3.994 -0.0912  0.1975  0.9277
 5245TIP3   OH237225   2.453   0.068   1.803 -0.3611  0.0062  0.2811
 5245TIP3    H137226   2.434  -0.003   1.742 -0.4413 -0.9387  1.3644
 5245TIP3    H237227   2.461   0.146   1.748 -0.5143 -0.7945 -0.9101
 5246TIP3   OH237228   2.351   1.519  18.367 -0.0243  0.9062  0.1029
 5246TIP3    H137229   2.338   1.520  18.462  1.3988  2.4145  0.3367
 5246TIP3    H237230   2.369   1.611  18.345 -1.5792  0.7978 -1.8277
 5247TIP3   OH237231   2.810   1.744  12.006  0.1175 -0.3497  0.3996
 5247TIP3    H137232   2.749   1.811  11.976  0.2990  0.5157  1.8543
 5247TIP3    H237233   2.786   1.665  11.956 -0.3473  0.6752 -1.0662
 5248TIP3   OH237234   1.145   2.627  43.927  0.1649 -0.4452  0.2346
 5248TIP3    H137235   1.144   2.718  43.957 -0.3046 -0.9107  1.7474
 5248TIP3    H237236   1.056   2.612  43.894  0.1750 -0.4304  0.2017
 5249TIP3   OH237237   0.225   3.414  38.879  0.2598  0.6303  0.6497
 5249TIP3    H137238   0.186   3.475  38.942  0.0505  1.5607 -0.3616
 5249TIP3    H237239   0.317   3.441  38.873 -0.0172  1.3990 -0.4102
 5250TIP3   OH237240   2.741   1.264  38.315 -0.2907 -0.0509  0.1076
 5250TIP3    H137241   2.795   1.324  38.366  1.2045 -1.0992 -0.1933
 5250TIP3    H237242   2.798   1.189  38.296 -1.9129 -1.3128 -0.0293
 5251TIP3   OH237243   0.248   0.506   2.035  0.4072 -0.1327  0.1160
 5251TIP3    H137244   0.310   0.550   1.977  0.0880 -2.2793 -1.9905
 5251TIP3    H237245   0.302   0.449   2.090  0.4794 -0.3974 -0.2264
 5252TIP3   OH237246   1.048   1.412  31.109  0.2651 -0.2937 -0.2424
 5252TIP3    H137247   1.064   1.477  31.178 -0.4472  0.3502 -0.6576
 5252TIP3    H237248   0.969   1.366  31.137  0.4592 -0.6107 -0.2151
 5253TIP3   OH237249   3.880   0.540  34.912  0.4229  0.0930 -0.3230
 5253TIP3    H137250   3.817   0.602  34.947 -2.1100 -1.6479 -1.5060
 5253TIP3    H237251   3.930   0.591  34.848 -0.4823  1.2950 -0.1136
 5254TIP3   OH237252   1.053   3.816   7.542  0.5867  0.1192 -0.0038
 5254TIP3    H137253   1.091   3.744   7.593  0.4502 -0.0169 -0.0938
 5254TIP3    H237254   1.121   3.839   7.479  0.2789 -0.5541 -0.5913
 5255TIP3   OH237255   2.813   2.798   1.711 -0.1634 -0.5232 -0.1739
 5255TIP3    H137256   2.801   2.890   1.688  2.7982  0.2252  0.8662
 5255TIP3    H237257   2.799   2.795   1.806  1.1209 -0.8329  0.0220
 5256TIP3   OH237258   3.095   4.039  35.144 -0.1326 -0.0618 -0.3809
 5256TIP3    H137259   3.180   4.071  35.172 -1.2047  2.3090  0.4368
 5256TIP3    H237260   3.051   4.115  35.108 -1.5950 -1.4274 -1.6415
 5257TIP3   OH237261   2.050   2.737   3.165  0.3174  0.3853 -0.2577
 5257TIP3    H137262   2.039   2.832   3.165 -0.9549  0.3144  1.8793
 5257TIP3    H237263   2.139   2.724   3.200 -0.1022  0.8211  1.0570
 5258TIP3   OH237264   2.734   0.883  32.269  0.1778 -0.3273  0.1083
 5258TIP3    H137265   2.676   0.813  32.241 -0.6694  0.4131 -0.0403
 5258TIP3    H237266   2.822   0.849  32.255 -0.2177 -0.8484 -1.2725
 5259TIP3   OH237267   3.649   1.090  15.877  0.0535  0.3511  0.1347
 5259TIP3    H137268   3.648   0.995  15.882  0.0221  0.3980  1.1121
 5259TIP3    H237269   3.738   1.112  15.849 -0.0218  0.0296 -0.3669
 5260TIP3   OH237270   2.300   0.719  32.906  0.4695 -0.0383 -0.2013
 5260TIP3    H137271   2.282   0.632  32.872  1.0430  0.3888 -1.6627
 5260TIP3    H237272   2.269   0.716  32.997 -0.3917 -1.4523 -0.5118
 5261TIP3   OH237273   3.507   1.893   5.465 -0.8728  0.1137 -0.2686
 5261TIP3    H137274   3.452   1.970   5.483  1.3798  2.0592 -1.2075
 5261TIP3    H237275   3.455   1.841   5.403 -1.4247  2.2208 -1.6790
 5262TIP3   OH237276   1.351   1.751  44.213 -0.0753  0.4007 -0.1389
 5262TIP3    H137277   1.345   1.807  44.136  1.0643  0.5673 -0.1228
 5262TIP3    H237278   1.418   1.686  44.190 -0.6897 -0.3752  0.2096
 5263TIP3   OH237279   1.487   1.824  41.553  0.3074  0.5056  0.6835
 5263TIP3    H137280   1.569   1.782  41.577  0.7591 -0.2935 -1.8944
 5263TIP3    H237281   1.419   1.773  41.598  0.9233 -2.4027 -1.4169
 5264TIP3   OH237282   3.441   4.095  32.941  0.2109  0.3022  0.3498
 5264TIP3    H137283   3.397   4.165  32.989 -1.2250  0.0837 -0.5723
 5264TIP3    H237284   3.396   4.015  32.969  0.1526  0.0493 -0.4440
 5265TIP3   OH237285   1.521   3.612  35.208 -0.1033  0.0326  1.2367
 5265TIP3    H137286   1.534   3.692  35.157  1.6903 -1.2858 -0.5022
 5265TIP3    H237287   1.607   3.572  35.214 -1.2072 -2.7136  0.4098
 5266TIP3   OH237288   1.582   1.698  13.400 -0.0366 -0.7010 -0.0962
 5266TIP3    H137289   1.603   1.640  13.326  2.2762 -1.6703  1.2373
 5266TIP3    H237290   1.553   1.639  13.469 -3.2449  0.2772 -0.4242
 5267TIP3   OH237291   0.246   0.481  41.161  0.6023 -0.1946  0.7357
 5267TIP3    H137292   0.159   0.509  41.189  1.2309  1.2412  1.3565
 5267TIP3    H237293   0.233   0.392  41.129 -1.4395  0.5750 -0.8744
 5268TIP3   OH237294   0.205   0.827  13.201 -0.3514  0.0437 -0.2903
 5268TIP3    H137295   0.173   0.853  13.287  0.3924 -0.7930  0.2634
 5268TIP3    H237296   0.252   0.745  13.217  1.0810  0.6345 -1.2313
 5269TIP3   OH237297   1.044   0.169   5.078 -0.0694  0.1493 -0.3023
 5269TIP3    H137298   1.136   0.193   5.091 -0.2054  0.5418 -0.0211
 5269TIP3    H237299   1.040   0.076   5.099  0.0047  0.4377  1.0689
 5270TIP3   OH237300   3.416   0.132  38.827  0.5673  0.3326  0.0103
 5270TIP3    H137301   3.352   0.167  38.890  0.4569  0.5949 -0.2488
 5270TIP3    H237302   3.363   0.104  38.753  0.5701 -1.0341  0.4891
 5271TIP3   OH237303   1.458   2.191  13.778  0.4504  0.5757  0.3754
 5271TIP3    H137304   1.541   2.165  13.740  1.5869  2.0710  1.6768
 5271TIP3    H237305   1.421   2.253  13.714 -0.6065 -1.4163 -1.0624
 5272TIP3   OH237306   0.841   3.627  11.107  0.1765 -0.6853 -0.5168
 5272TIP3    H137307   0.749   3.651  11.097 -0.0416 -0.9857  0.5684
 5272TIP3    H237308   0.882   3.655  11.026 -0.6331  0.5658 -0.5308
 5273TIP3   OH237309   3.727   1.696   1.739 -0.0403  0.1442 -0.2623
 5273TIP3    H137310   3.714   1.778   1.691  1.0944  0.9706  0.7725
 5273TIP3    H237311   3.677   1.708   1.819  1.4565  0.5536  0.6542
 5274TIP3   OH237312   1.843   3.994   5.205  0.0208 -0.3657 -0.2887
 5274TIP3    H137313   1.893   4.046   5.267 -1.6715  1.2212 -0.1860
 5274TIP3    H237314   1.780   3.946   5.259  0.5427 -1.3636 -0.5345
 5275TIP3   OH237315   1.230   0.841  45.217 -0.7018 -0.1170 -0.9542
 5275TIP3    H137316   1.310   0.884  45.247 -1.0973  0.5422 -0.8249
 5275TIP3    H237317   1.248   0.817  45.127  0.2951 -1.6003 -0.3914
 5276TIP3   OH237318   4.045   2.560   3.952  0.3241 -0.4279 -0.3601
 5276TIP3    H137319   4.086   2.588   3.870  1.6805 -0.5889  0.2242
 5276TIP3    H237320   3.964   2.517   3.926  0.4644  0.0108 -1.5731
 5277TIP3   OH237321   2.687   2.738   4.248  0.3003 -0.4774  0.0510
 5277TIP3    H137322   2.681   2.663   4.189  2.0017  0.0263 -0.8121
 5277TIP3    H237323   2.606   2.788   4.232 -1.0230 -2.2357  0.8838
 5278TIP3   OH237324   3.454   3.299  41.422 -0.3825 -0.0395  0.0619
 5278TIP3    H137325   3.455   3.274  41.330  1.0596 -0.5662  0.1983
 5278TIP3    H237326   3.405   3.381  41.424  1.7112  1.3398 -1.5565
 5279TIP3   OH237327   2.555   2.255  12.767  0.5416 -0.6175  1.1950
 5279TIP3    H137328   2.544   2.179  12.710 -0.9151 -0.3288  1.0535
 5279TIP3    H237329   2.556   2.219  12.856 -1.4223 -0.7271  1.2088
 5280TIP3   OH237330   3.608   1.696  41.101 -0.4296 -0.0234 -0.0563
 5280TIP3    H137331   3.622   1.636  41.175 -0.0449  0.7025  0.4714
 5280TIP3    H237332   3.696   1.721  41.073 -0.5833  0.4335 -0.1473
 5281TIP3   OH237333   2.909   0.154  31.933 -0.1248 -0.2716 -0.4341
 5281TIP3    H137334   2.862   0.126  32.011 -0.0263 -1.1383 -0.6764
 5281TIP3    H237335   2.916   0.249  31.942 -2.4272 -0.0335 -0.6783
 5282TIP3   OH237336   1.613   3.880  10.547  0.3907  0.3623 -0.0022
 5282TIP3    H137337   1.560   3.852  10.472 -0.4304  1.4026  0.1688
 5282TIP3    H237338   1.611   3.805  10.606  2.5650 -1.2142 -1.7526
 5283TIP3   OH237339   0.270   3.017  34.333 -0.2722 -0.1656 -0.1427
 5283TIP3    H137340   0.291   3.010  34.240 -0.6561 -0.1240 -0.2364
 5283TIP3    H237341   0.180   3.051  34.335 -0.1341  0.1773  0.2478
 5284TIP3   OH237342   1.459   2.908  33.727  0.0939  0.0368  0.3472
 5284TIP3    H137343   1.416   2.914  33.642  1.6277  1.0116 -0.4053
 5284TIP3    H237344   1.415   2.836  33.772 -1.6362  0.3740 -0.7396
 5285TIP3   OH237345   2.898   2.965  30.941  0.0534  0.6144 -0.2634
 5285TIP3    H137346   2.853   2.892  30.899  0.0785  1.4299 -1.7812
 5285TIP3    H237347   2.981   2.929  30.971 -0.7047 -0.4005  0.6824
 5286TIP3   OH237348   3.043   1.387  35.167 -0.0424 -0.2744  0.3063
 5286TIP3    H137349   2.993   1.347  35.096 -1.2790  1.5095  0.1011
 5286TIP3    H237350   3.114   1.325  35.185 -0.8804 -1.7063 -1.0970
 5287TIP3   OH237351   3.853   1.967  38.680  0.5501  0.0272 -0.4619
 5287TIP3    H137352   3.903   1.975  38.761  0.0227 -0.8806 -0.0279
 5287TIP3    H237353   3.805   2.050  38.673  0.5254  0.0763  0.2108
 5288TIP3   OH237354   1.621   1.129  44.766  0.4435 -0.0168  0.4088
 5288TIP3    H137355   1.560   1.202  44.779 -0.2319 -0.5838  0.4546
 5288TIP3    H237356   1.701   1.171  44.733 -0.1705  0.6733 -0.2340
 5289TIP3   OH237357   1.060   2.794  13.219  0.2811 -0.5780 -0.2778
 5289TIP3    H137358   1.002   2.870  13.209  1.6590  0.6694  0.6947
 5289TIP3    H237359   1.123   2.802  13.148  0.8476 -0.4006  0.2351
 5290TIP3   OH237360   4.019   0.997   3.613 -0.1746 -0.1545 -0.3491
 5290TIP3    H137361   3.942   0.994   3.669  1.1334 -0.0945  1.5264
 5290TIP3    H237362   4.025   0.908   3.577 -1.3146 -0.0498 -0.8463
 5291TIP3   OH237363   1.088   0.840  47.359 -0.0623  0.7691  0.0580
 5291TIP3    H137364   1.097   0.823  47.265 -0.6170 -0.7739  0.2608
 5291TIP3    H237365   1.010   0.896  47.365  0.2554  1.2829 -0.4234
 5292TIP3   OH237366   2.012   0.089  46.642  0.3519 -0.1702  0.9181
 5292TIP3    H137367   2.105   0.080  46.660  0.7547  1.0538 -0.3450
 5292TIP3    H237368   2.005   0.087  46.546 -0.7454  1.1124  0.9378
 5293TIP3   OH237369   2.845   3.742  33.402  0.0983  0.0215  0.7582
 5293TIP3    H137370   2.917   3.687  33.371  0.9107  0.8194  1.1818
 5293TIP3    H237371   2.841   3.814  33.340 -0.6023 -0.2083  0.5206
 5294TIP3   OH237372   0.441   0.322  37.531  0.2981  0.1028 -0.7110
 5294TIP3    H137373   0.520   0.271  37.513  0.8163  0.5413  0.2280
 5294TIP3    H237374   0.394   0.270  37.595  0.0100  0.0291 -0.9814
 5295TIP3   OH237375   1.700   0.907  33.863 -0.2287 -0.9197 -0.4440
 5295TIP3    H137376   1.755   0.833  33.835  2.7028  0.7734  0.3409
 5295TIP3    H237377   1.757   0.983  33.851 -1.9146  0.8329  1.9670
 5296TIP3   OH237378   0.013   1.214  42.356 -0.0191  0.6187  0.6445
 5296TIP3    H137379   0.041   1.211  42.447  0.1114  0.1368  0.5888
 5296TIP3    H237380   0.040   1.301  42.326 -0.1153  0.8022  1.0803
 5297TIP3   OH237381   0.216   1.957  15.901  0.2944  0.2656 -0.0630
 5297TIP3    H137382   0.270   1.879  15.897  0.1944  0.1935  0.0022
 5297TIP3    H237383   0.131   1.927  15.932  0.3551  0.4510  0.2907
 5298TIP3   OH237384   1.978   1.923  40.318 -0.4415 -0.0470 -0.3756
 5298TIP3    H137385   2.056   1.977  40.303 -1.1179  0.9144 -0.4686
 5298TIP3    H237386   1.989   1.849  40.258  1.5993 -1.2307  1.3052
 5299TIP3   OH237387   0.602   0.464   8.303  0.4887 -0.2189  0.5031
 5299TIP3    H137388   0.591   0.451   8.209 -0.4415 -3.5951  0.9279
 5299TIP3    H237389   0.684   0.420   8.324  0.0273 -0.6778  1.4313
 5300TIP3   OH237390   2.354   1.374   2.325 -0.0524  0.0579  0.2914
 5300TIP3    H137391   2.280   1.415   2.281 -1.3912 -1.2005  1.2647
 5300TIP3    H237392   2.314   1.326   2.398  1.4277 -2.5818 -0.5008
 5301TIP3   OH237393   3.808   2.884  12.378 -0.5643 -0.3996 -0.2375
 5301TIP3    H137394   3.833   2.816  12.441 -0.9563  1.7148  2.3638
 5301TIP3    H237395   3.880   2.887  12.316  0.5103 -1.6567  0.8804
 5302TIP3   OH237396   2.844   0.033  29.688  0.2116 -0.1193 -0.3818
 5302TIP3    H137397   2.849   0.005  29.780 -0.5403 -0.5736 -0.4650
 5302TIP3    H237398   2.813   0.123  29.692  0.6048  0.0107 -0.1781
 5303TIP3   OH237399   2.111   3.855  45.178 -0.0892 -0.2719 -0.0750
 5303TIP3    H137400   2.107   3.948  45.154 -0.2039 -1.0330 -3.5642
 5303TIP3    H237401   2.199   3.843  45.213  0.0916  1.0771 -0.0017
 5304TIP3   OH237402   1.389   2.375   5.370 -0.2141  0.4037 -0.0528
 5304TIP3    H137403   1.419   2.298   5.322 -0.8108 -0.4735  0.9586
 5304TIP3    H237404   1.330   2.419   5.309 -0.6346 -0.4683 -0.2960
 5305TIP3   OH237405   1.314   0.532  43.310  0.0768  0.3573 -0.3088
 5305TIP3    H137406   1.241   0.541  43.371  0.5520  0.8839  0.1964
 5305TIP3    H237407   1.347   0.444  43.324  0.2230  0.4984  0.2447
 5306TIP3   OH237408   0.704   2.675   7.147  0.3301 -0.0400  0.1508
 5306TIP3    H137409   0.666   2.596   7.109 -0.4066 -0.4522  1.6759
 5306TIP3    H237410   0.798   2.662   7.140  0.2155 -0.5758 -0.5361
 5307TIP3   OH237411   0.860   3.760  27.383  0.1612  0.0699  0.4627
 5307TIP3    H137412   0.916   3.746  27.307  0.6773  1.0506  0.6450
 5307TIP3    H237413   0.859   3.855  27.395 -1.6966  0.1043  0.3557
 5308TIP3   OH237414   2.295   0.066  38.220  0.0765  0.0979  0.1920
 5308TIP3    H137415   2.217   0.071  38.276  0.6016  1.0483  0.8554
 5308TIP3    H237416   2.289   0.142  38.163 -0.6156 -1.0234 -1.3187
 5309TIP3   OH237417   1.112   3.487  33.195 -0.0774 -0.5870 -0.3778
 5309TIP3    H137418   1.063   3.489  33.113 -0.6315  2.1684 -0.0493
 5309TIP3    H237419   1.055   3.441  33.257 -1.0523  0.1245 -0.7302
 5310TIP3   OH237420   2.485   3.405   1.937  0.3579  0.2561 -0.7750
 5310TIP3    H137421   2.579   3.409   1.956  0.3446 -0.5681 -0.5089
 5310TIP3    H237422   2.480   3.378   1.846  0.3741 -0.3175 -0.6067
 5311TIP3   OH237423   2.176   3.280  35.378  0.1605  0.7783 -0.3995
 5311TIP3    H137424   2.139   3.359  35.417 -0.9375  0.6815 -1.1962
 5311TIP3    H237425   2.242   3.313  35.317 -0.2251  1.0853 -0.6573
 5312TIP3   OH237426   1.499   1.890   1.202  0.4543  0.3730  0.0773
 5312TIP3    H137427   1.463   1.955   1.262  0.0955 -1.4404  1.9279
 5312TIP3    H237428   1.481   1.925   1.115 -3.1294  0.9895  0.9355
 5313TIP3   OH237429   3.446   1.183  38.255  0.2492 -0.2621  0.0898
 5313TIP3    H137430   3.384   1.130  38.204 -0.7910  0.3481  0.6818
 5313TIP3    H237431   3.418   1.172  38.346 -1.7162  3.2779  0.1054
 5314TIP3   OH237432   1.716   0.445  35.242  0.5223 -0.3217  0.4226
 5314TIP3    H137433   1.721   0.420  35.150 -1.9928 -1.1919  0.4396
 5314TIP3    H237434   1.792   0.403  35.282  3.4170  2.4844 -1.6269
 5315TIP3   OH237435   3.842   2.455  39.482  0.3077  0.5571  0.0645
 5315TIP3    H137436   3.759   2.481  39.523  0.0739 -1.0026  0.6325
 5315TIP3    H237437   3.876   2.385  39.537  1.1443 -0.0218 -1.1298
 5316TIP3   OH237438   3.197   1.841  44.056  0.7875  0.1735 -0.3221
 5316TIP3    H137439   3.160   1.928  44.043  1.4204  0.9548  2.3587
 5316TIP3    H237440   3.253   1.827  43.979  1.6471  2.7058 -0.2734
 5317TIP3   OH237441   1.693   2.724  33.289  0.3186 -0.0862 -0.0364
 5317TIP3    H137442   1.699   2.776  33.209 -0.0223  0.3205  0.1962
 5317TIP3    H237443   1.776   2.738  33.334 -0.4129  1.6497  0.8621
 5318TIP3   OH237444   1.622   1.107  32.540 -0.0417 -0.5279 -0.0602
 5318TIP3    H137445   1.630   1.026  32.491 -1.0344 -0.7942  0.1922
 5318TIP3    H237446   1.597   1.173  32.476 -0.0782 -0.5993 -0.1187
 5319TIP3   OH237447   1.274   3.735   8.172  0.0045  0.3778 -0.2434
 5319TIP3    H137448   1.301   3.669   8.236  0.6562 -0.7734 -1.6489
 5319TIP3    H237449   1.195   3.699   8.132 -0.4553  1.1337 -0.0322
 5320TIP3   OH237450   2.385   1.386  38.519  0.2040  0.3533 -0.5504
 5320TIP3    H137451   2.350   1.439  38.447  1.3128  3.4947  1.0099
 5320TIP3    H237452   2.470   1.426  38.538  0.1050 -0.5813  2.2237
 5321TIP3   OH237453   0.734   3.922  36.243 -0.6506  0.3035 -0.0262
 5321TIP3    H137454   0.699   3.834  36.232 -0.9873  0.5508 -1.0183
 5321TIP3    H237455   0.662   3.973  36.280  0.0558 -0.2019  2.1954
 5322TIP3   OH237456   2.531   1.183   7.508 -0.0438 -0.2867 -0.1667
 5322TIP3    H137457   2.502   1.155   7.421 -0.1333 -0.2980 -0.1325
 5322TIP3    H237458   2.501   1.114   7.567  2.5562 -1.8209 -0.4880
 5323TIP3   OH237459   3.780   0.303  41.141 -0.6201  0.2510 -0.3264
 5323TIP3    H137460   3.841   0.241  41.179 -0.7946  0.6617  0.6727
 5323TIP3    H237461   3.817   0.326  41.056  1.0988  1.1986  0.6469
 5324TIP3   OH237462   1.566   1.188  38.972  0.3614 -0.0340 -0.0428
 5324TIP3    H137463   1.581   1.281  38.957  0.1622 -0.2324 -1.6768
 5324TIP3    H237464   1.557   1.151  38.884 -1.4979 -1.2855  0.6235
 5325TIP3   OH237465   2.854   3.191   4.336  0.0614 -0.2553 -0.1822
 5325TIP3    H137466   2.852   3.106   4.379 -1.0966  0.1086  0.5295
 5325TIP3    H237467   2.863   3.171   4.242 -0.4001 -1.1640 -0.0399
 5326TIP3   OH237468   0.228   3.728  26.622  0.2628  0.2148 -0.4418
 5326TIP3    H137469   0.165   3.678  26.673  0.3741  1.6884  1.2374
 5326TIP3    H237470   0.305   3.736  26.678  1.6481 -0.7623 -2.0888
 5327TIP3   OH237471   3.424   2.369   2.824  0.0727  0.1296  0.1204
 5327TIP3    H137472   3.406   2.284   2.785 -1.1239  0.8790 -1.0395
 5327TIP3    H237473   3.380   2.432   2.767  1.3487  1.5885  0.6516
 5328TIP3   OH237474   3.078   2.138   5.467  0.2783  0.0017  0.1726
 5328TIP3    H137475   3.047   2.223   5.499  2.5162  0.2681  1.8865
 5328TIP3    H237476   3.045   2.075   5.531 -0.2266 -0.2527 -0.3337
 5329TIP3   OH237477   0.755   1.437  42.674  0.1929 -0.7256 -0.1589
 5329TIP3    H137478   0.704   1.438  42.593  0.2998  0.3898 -0.2289
 5329TIP3    H237479   0.731   1.355  42.717 -1.6528 -0.2243 -0.1834
 5330TIP3   OH237480   3.002   0.814  34.797  0.0631 -0.2593  0.3761
 5330TIP3    H137481   2.969   0.868  34.726  1.4756  2.7630  1.8646
 5330TIP3    H237482   2.927   0.804  34.856 -1.3546 -3.4480 -1.6738
 5331TIP3   OH237483   1.317   3.778  42.447  0.4508  0.4743 -0.0766
 5331TIP3    H137484   1.265   3.857  42.462  1.9522  1.5583 -0.4336
 5331TIP3    H237485   1.254   3.706  42.460 -0.8945  1.6899  0.4708
 5332TIP3   OH237486   1.380   1.176  38.027 -0.2990 -0.2031  0.1278
 5332TIP3    H137487   1.367   1.258  37.979 -1.2182 -0.7521 -0.6232
 5332TIP3    H237488   1.359   1.197  38.118  2.5392  1.1348  0.5820
 5333TIP3   OH237489   1.461   1.695   2.022  0.4184  0.0000 -0.2032
 5333TIP3    H137490   1.448   1.788   2.005  1.2297  0.0621 -0.5451
 5333TIP3    H237491   1.390   1.652   1.975  0.0850  0.4399 -0.1108
 5334TIP3   OH237492   0.940   2.340  41.721  0.1463  0.3691 -0.2063
 5334TIP3    H137493   0.950   2.302  41.634  1.3590 -0.2610  0.1832
 5334TIP3    H237494   1.027   2.371  41.745 -0.2192  0.7779  0.6831
 5335TIP3   OH237495   3.295   2.617  44.326  0.1559 -0.8878  0.3248
 5335TIP3    H137496   3.280   2.539  44.378 -1.4691 -1.6379 -1.1723
 5335TIP3    H237497   3.298   2.688  44.390  2.0324 -2.1538  1.7607
 5336TIP3   OH237498   2.699   2.568  39.054 -0.0409  0.5710 -0.3996
 5336TIP3    H137499   2.760   2.609  39.116  1.4510  0.4101 -1.6905
 5336TIP3    H237500   2.746   2.568  38.971 -1.1217 -1.1754 -1.0659
 5337TIP3   OH237501   3.305   3.056   7.652 -0.3498  0.1029  0.5776
 5337TIP3    H137502   3.311   3.135   7.599 -0.8370 -0.4014 -0.2475
 5337TIP3    H237503   3.238   3.076   7.717 -1.7976 -0.2299 -0.7430
 5338TIP3   OH237504   2.512   0.135  41.723  0.0654 -0.1091  0.3803
 5338TIP3    H137505   2.533   0.209  41.666  1.7436 -0.2170  0.7936
 5338TIP3    H237506   2.540   0.058  41.673  1.1388 -0.2340  1.1530
 5339TIP3   OH237507   0.248   1.486  37.724 -0.0666  0.1254  0.3709
 5339TIP3    H137508   0.283   1.423  37.787 -1.0956 -0.4515  0.3795
 5339TIP3    H237509   0.235   1.435  37.644  1.6781  0.9478 -0.4974
 5340TIP3   OH237510   0.830   3.891  29.927 -0.0966 -0.0576 -0.5100
 5340TIP3    H137511   0.828   3.964  29.988 -1.0227  0.1925 -0.8263
 5340TIP3    H237512   0.753   3.903  29.872 -0.1487 -1.1553 -0.7055
 5341TIP3   OH237513   3.245   3.882   4.013  0.3384 -0.3344 -0.2323
 5341TIP3    H137514   3.159   3.866   3.975  0.1320 -0.9195  0.4559
 5341TIP3    H237515   3.232   3.874   4.107  0.8684  0.9528 -0.0254
 5342TIP3   OH237516   3.054   2.180  13.299  0.2596 -0.0325  0.6101
 5342TIP3    H137517   3.087   2.156  13.386 -0.2185 -0.2878  0.7261
 5342TIP3    H237518   2.959   2.180  13.309  0.1942 -0.2725  0.0339
 5343TIP3   OH237519   0.500   1.336   5.727 -0.6498 -0.2159 -0.3400
 5343TIP3    H137520   0.582   1.291   5.704 -0.6425 -0.2984 -0.1594
 5343TIP3    H237521   0.432   1.271   5.709 -0.6339 -0.3276 -0.0146
 5344TIP3   OH237522   1.423   2.673  42.308 -0.2982  0.2745  0.3385
 5344TIP3    H137523   1.517   2.665  42.325 -0.5716 -1.2064  1.3901
 5344TIP3    H237524   1.393   2.739  42.371 -0.1163  0.0547  0.6581
 5345TIP3   OH237525   4.078   0.086  41.684  0.5305  0.2003  0.5245
 5345TIP3    H137526   4.009   0.115  41.624  1.0118  2.2074  0.8709
 5345TIP3    H237527   4.043   0.103  41.771 -0.4275 -3.2941  0.9679
 5346TIP3   OH237528   2.184   1.000  16.043  0.5930  0.1096  0.0251
 5346TIP3    H137529   2.221   1.036  15.962  0.1070 -0.1070 -0.2987
 5346TIP3    H237530   2.158   0.911  16.020 -1.7061  0.7846 -0.2690
 5347TIP3   OH237531   1.492   4.090  43.816 -0.3898 -0.1749 -0.6225
 5347TIP3    H137532   1.543   4.166  43.788  0.5494  0.3012  2.0597
 5347TIP3    H237533   1.405   4.124  43.835  0.2836  0.5108  1.4799
 5348TIP3   OH237534   0.111   3.247   1.006 -0.0983 -0.4431 -0.2170
 5348TIP3    H137535   0.121   3.334   0.967 -0.1028 -0.8065 -1.0561
 5348TIP3    H237536   0.197   3.227   1.041 -0.4900  0.5507  1.4141
 5349TIP3   OH237537   0.480   2.132  35.546 -0.3375  0.1620  0.5585
 5349TIP3    H137538   0.528   2.068  35.493  1.3474  0.9122  1.1010
 5349TIP3    H237539   0.497   2.216  35.504  0.6159  0.7025  1.9466
 5350TIP3   OH237540   2.021   0.419  15.366 -0.0353  0.2722  0.4601
 5350TIP3    H137541   1.976   0.393  15.286 -1.0184  1.4349  0.6014
 5350TIP3    H237542   2.114   0.417  15.343 -0.3130  0.8884 -0.8111
 5351TIP3   OH237543   2.630   0.809  35.772  0.0271 -0.5649  0.0654
 5351TIP3    H137544   2.594   0.801  35.861 -0.0409 -0.1377  0.0757
 5351TIP3    H237545   2.661   0.899  35.767 -2.4805  0.3009 -1.2809
 5352TIP3   OH237546   2.087   0.247   5.789 -0.0332 -0.6479  0.3014
 5352TIP3    H137547   2.092   0.164   5.742 -0.5341  0.2434 -1.4249
 5352TIP3    H237548   2.042   0.306   5.728 -1.5371  0.3545  2.2752
 5353TIP3   OH237549   2.799   1.353   4.170 -0.7903  0.3383 -0.1262
 5353TIP3    H137550   2.736   1.281   4.162  0.0576 -0.2883 -1.4419
 5353TIP3    H237551   2.868   1.318   4.227 -0.7119  0.3463 -0.2155
 5354TIP3   OH237552   3.240   3.648  44.227  0.2964  0.3985 -0.3711
 5354TIP3    H137553   3.315   3.706  44.220  0.8782  0.1589  2.6183
 5354TIP3    H237554   3.217   3.649  44.320 -2.9430 -0.1404 -1.0475
 5355TIP3   OH237555   4.017   1.637  34.140 -0.3296 -0.9296 -0.1659
 5355TIP3    H137556   3.983   1.593  34.063 -1.9848  0.9329 -0.5861
 5355TIP3    H237557   3.973   1.595  34.214 -1.7090 -0.1858 -0.5410
 5356TIP3   OH237558   2.151   3.514  12.279  0.8403 -0.6228 -0.2019
 5356TIP3    H137559   2.090   3.576  12.239  0.5580  0.2366  1.4634
 5356TIP3    H237560   2.232   3.525  12.230 -0.0567 -1.1221 -1.8557
 5357TIP3   OH237561   0.499   2.560  11.457 -0.3156 -0.3034  0.2675
 5357TIP3    H137562   0.552   2.503  11.514  1.5531  2.4850  1.5563
 5357TIP3    H237563   0.433   2.597  11.514  0.8636  1.6408  0.4779
 5358TIP3   OH237564   3.091   0.182  29.820  0.7912 -0.2194 -0.1642
 5358TIP3    H137565   3.071   0.217  29.907  1.3048 -0.8735  0.2219
 5358TIP3    H237566   3.005   0.160  29.783  0.6602 -2.9385  1.4536
 5359TIP3   OH237567   3.201   0.417  46.381  0.1055  0.4931 -0.7201
 5359TIP3    H137568   3.265   0.366  46.331 -0.2792 -0.1289 -0.5929
 5359TIP3    H237569   3.186   0.365  46.460  0.6655  1.4357  0.0303
 5360TIP3   OH237570   1.627   2.296   7.111  0.0731 -0.3241  0.0875
 5360TIP3    H137571   1.721   2.308   7.099 -0.0337 -0.3154 -0.7655
 5360TIP3    H237572   1.618   2.267   7.202  0.6086  2.9798  1.3333
 5361TIP3   OH237573   0.166   1.283  40.046  0.3819 -0.3368  0.1404
 5361TIP3    H137574   0.132   1.343  39.981 -0.7675 -2.8459 -1.7525
 5361TIP3    H237575   0.091   1.226  40.067  1.2315 -0.7567  2.2998
 5362TIP3   OH237576   3.452   2.712  12.213 -0.0863 -0.2881  0.1022
 5362TIP3    H137577   3.396   2.734  12.138 -1.1817 -0.5602  0.8084
 5362TIP3    H237578   3.485   2.625  12.193  1.6451  0.6084 -1.1946
 5363TIP3   OH237579   1.045   1.461  41.748  0.1893 -0.1751 -0.1089
 5363TIP3    H137580   1.020   1.437  41.658  1.7480  0.9367 -0.8869
 5363TIP3    H237581   1.031   1.555  41.752  1.3445 -0.0079  0.3785
 5364TIP3   OH237582   2.445   1.927  19.587 -0.1720  0.3299 -0.1290
 5364TIP3    H137583   2.421   1.855  19.646 -0.3037 -0.3108 -0.9471
 5364TIP3    H237584   2.453   1.885  19.501  2.0057  0.8597 -0.2357
 5365TIP3   OH237585   2.787   1.230  34.682  0.5552  0.2605  0.5949
 5365TIP3    H137586   2.744   1.211  34.598  0.1417 -0.5760  0.9804
 5365TIP3    H237587   2.842   1.306  34.664  0.3266  0.2143 -0.3868
 5366TIP3   OH237588   3.008   3.524   9.137 -0.0180 -0.0859 -0.0251
 5366TIP3    H137589   2.962   3.482   9.064  0.3832 -1.1617  0.3185
 5366TIP3    H237590   3.067   3.587   9.096  1.0492 -1.4884 -0.7350
 5367TIP3   OH237591   0.044   0.002  35.370 -0.0741 -0.4118  0.5915
 5367TIP3    H137592  -0.049   0.021  35.361 -0.0341 -0.9171 -1.1806
 5367TIP3    H237593   0.056  -0.017  35.463 -1.1997  2.2957  1.3806
 5368TIP3   OH237594   1.496   2.280  39.499 -0.7455 -0.2380  0.2840
 5368TIP3    H137595   1.568   2.313  39.445 -1.5631  1.9999  0.4595
 5368TIP3    H237596   1.539   2.242  39.576  0.2813  0.6691  0.1814
 5369TIP3   OH237597   0.487   1.933  43.694 -0.4260  0.0952  0.1665
 5369TIP3    H137598   0.472   1.839  43.705 -3.3156  0.3513 -0.7713
 5369TIP3    H237599   0.467   1.971  43.780 -2.0191  0.0707 -0.1644
 5370TIP3   OH237600   0.105   3.164  37.246  0.1448  0.3675  0.2318
 5370TIP3    H137601   0.199   3.148  37.252  0.2514  1.2256  1.2402
 5370TIP3    H237602   0.065   3.078  37.252  0.8692 -0.0185 -0.3556
 5371TIP3   OH237603   1.013   0.643  40.516  0.0217 -0.1787  0.4855
 5371TIP3    H137604   0.986   0.552  40.529  2.4307 -1.0565 -0.0747
 5371TIP3    H237605   0.973   0.669  40.433 -1.0642 -0.5597  0.8806
 5372TIP3   OH237606   2.503   1.894   2.103  0.5088 -0.6885 -0.3607
 5372TIP3    H137607   2.425   1.844   2.078 -0.6013 -0.6743  2.7359
 5372TIP3    H237608   2.570   1.827   2.119  0.1510 -0.9291  0.1298
 5373TIP3   OH237609   3.948   1.555   1.607 -0.2771  0.4792  0.3218
 5373TIP3    H137610   3.927   1.490   1.539  1.9619 -0.3642  0.3596
 5373TIP3    H237611   3.863   1.590   1.634 -1.3484 -0.4655 -1.6389
 5374TIP3   OH237612   2.093   3.580  10.985 -0.0203  0.3950 -0.0143
 5374TIP3    H137613   2.177   3.617  11.012  0.6231  0.3250 -1.8435
 5374TIP3    H237614   2.039   3.584  11.065  1.2405  1.7361  0.8256
 5375TIP3   OH237615   2.426   0.021  29.454 -0.0349  0.1095 -0.1937
 5375TIP3    H137616   2.342   0.033  29.497 -0.2902 -1.0866 -0.3169
 5375TIP3    H237617   2.485  -0.008  29.524 -0.0695 -0.3519 -0.3509
 5376TIP3   OH237618   2.693   1.477  14.493 -0.0039 -0.4433 -0.4049
 5376TIP3    H137619   2.619   1.425  14.464 -1.0373  0.9031 -0.2989
 5376TIP3    H237620   2.679   1.563  14.454  0.2206  0.5212  1.5102
 5377TIP3   OH237621   0.424   1.220  15.617  0.4963  0.1927 -0.1699
 5377TIP3    H137622   0.358   1.250  15.555 -0.7375  0.8617  1.3859
 5377TIP3    H237623   0.411   1.125  15.623 -1.6920  0.5232  1.5169
 5378TIP3   OH237624   1.108   2.065  34.132 -0.1168  0.0875 -0.2158
 5378TIP3    H137625   1.088   2.129  34.200  0.6675  0.1394 -0.0244
 5378TIP3    H237626   1.075   2.105  34.051 -0.9816  0.0575  0.1118
 5379TIP3   OH237627   0.540   2.830   2.512 -0.2377 -0.0956  0.4506
 5379TIP3    H137628   0.594   2.810   2.589  0.9146  1.7493  0.1772
 5379TIP3    H237629   0.577   2.776   2.442 -0.0873 -0.3863  0.7514
 5380TIP3   OH237630   0.273   2.716  39.930  0.0853  0.7418  0.6216
 5380TIP3    H137631   0.249   2.671  39.848  0.9965  1.3588  0.0092
 5380TIP3    H237632   0.194   2.709  39.984  0.2843 -1.9270  0.7125
 5381TIP3   OH237633   3.371   2.828  44.481  0.7530  0.1198 -0.4492
 5381TIP3    H137634   3.461   2.857  44.465  0.1044  1.6159 -1.6741
 5381TIP3    H237635   3.319   2.909  44.477 -0.5664 -0.5924  1.0312
 5382TIP3   OH237636   2.080   2.819  35.888  1.0840  0.6821  0.0774
 5382TIP3    H137637   2.042   2.893  35.937  1.7090  1.8263 -1.0972
 5382TIP3    H237638   2.145   2.782  35.947 -1.2201 -0.8395  1.8447
 5383TIP3   OH237639   1.518   0.804  12.775 -0.4972  0.1542  0.5123
 5383TIP3    H137640   1.575   0.880  12.786 -1.9441  1.0995  1.9450
 5383TIP3    H237641   1.448   0.835  12.716  0.2924 -0.9254 -1.0647
 5384TIP3   OH237642   0.966   3.622  36.359  0.0423  0.2382  0.6213
 5384TIP3    H137643   1.027   3.568  36.309  0.2115 -0.9563  2.0478
 5384TIP3    H237644   0.893   3.638  36.299  0.7929 -0.1003 -0.4092
 5385TIP3   OH237645   1.037   1.973  44.954  0.2797 -0.0250 -0.3078
 5385TIP3    H137646   1.084   1.889  44.952 -1.1668 -0.9632  1.7070
 5385TIP3    H237647   0.990   1.976  44.871 -0.6272 -1.8605  0.0768
 5386TIP3   OH237648   2.719   2.125  10.301 -0.6886  0.0183  0.6757
 5386TIP3    H137649   2.654   2.056  10.305 -1.9858  1.1634  0.0002
 5386TIP3    H237650   2.751   2.134  10.391  1.3392 -3.0706  0.4203
 5387TIP3   OH237651   3.130   2.683  14.630  0.1359 -0.0512  0.3558
 5387TIP3    H137652   3.112   2.669  14.723  0.4772 -2.0957  0.1546
 5387TIP3    H237653   3.214   2.639  14.614 -0.3623 -0.5397 -1.1118
 5388TIP3   OH237654   3.210   2.179  16.481  0.7687  0.0706  0.5193
 5388TIP3    H137655   3.222   2.136  16.566 -1.7304  0.1639  0.9968
 5388TIP3    H237656   3.247   2.266  16.492  0.8969 -0.0849  1.3593
 5389TIP3   OH237657   1.413   2.021  35.258 -0.3689 -0.3541  0.1281
 5389TIP3    H137658   1.405   2.111  35.292 -4.0047  0.2844 -1.8436
 5389TIP3    H237659   1.390   1.966  35.333  1.5955  0.3083  1.2825
 5390TIP3   OH237660   2.082   2.211  20.492 -0.6055  0.8247  0.2291
 5390TIP3    H137661   2.162   2.259  20.516  0.4746 -0.6720 -0.2234
 5390TIP3    H237662   2.037   2.196  20.575  1.6772 -1.8445  1.1502
 5391TIP3   OH237663   3.892   1.931   6.571  0.1214  0.2677  0.3768
 5391TIP3    H137664   3.987   1.932   6.557 -0.1769  3.0444 -2.6678
 5391TIP3    H237665   3.863   1.848   6.535  1.2431  0.1123 -0.2027
 5392TIP3   OH237666   0.679   3.949  10.234  0.1207 -0.2049  0.5066
 5392TIP3    H137667   0.653   4.036  10.202  1.0424 -0.0117  0.2640
 5392TIP3    H237668   0.636   3.888  10.174 -0.7989  0.0596  0.8698
 5393TIP3   OH237669   2.772   2.872  39.641  0.1433  0.6568 -0.2986
 5393TIP3    H137670   2.773   2.854  39.735  2.6665 -0.1367 -0.4210
 5393TIP3    H237671   2.829   2.948  39.630 -2.4101  2.6132 -0.9456
 5394TIP3   OH237672   2.492   1.635   8.829  0.0567  0.3435  0.0926
 5394TIP3    H137673   2.570   1.680   8.862 -0.9460  2.9708 -0.8675
 5394TIP3    H237674   2.424   1.655   8.893 -0.1498 -0.9557  0.3144
 5395TIP3   OH237675   0.203   3.621  44.909  0.0100  0.0847  0.8559
 5395TIP3    H137676   0.225   3.650  44.998  1.4168 -1.2120  0.9750
 5395TIP3    H237677   0.277   3.651  44.855 -1.5263  2.2070 -0.2315
 5396TIP3   OH237678   1.904   0.465  10.248 -0.2905 -0.0386 -0.4661
 5396TIP3    H137679   1.899   0.528  10.321 -1.5188  0.4448 -0.9458
 5396TIP3    H237680   1.878   0.516  10.171 -0.4760 -0.9283 -1.0025
 5397TIP3   OH237681   2.838   1.161   7.239 -0.1257 -0.4584 -0.4481
 5397TIP3    H137682   2.921   1.190   7.200 -0.3665  0.8631 -0.0074
 5397TIP3    H237683   2.865   1.093   7.302  0.8971  1.2982  1.1353
 5398TIP3   OH237684   1.105   2.493   3.333  0.7220 -0.0069 -0.1767
 5398TIP3    H137685   1.198   2.472   3.333  0.3048 -2.2558 -1.1718
 5398TIP3    H237686   1.087   2.522   3.244  0.1966 -1.2714 -0.5075
 5399TIP3   OH237687   1.164   2.979   2.319  0.0222 -0.1292 -0.3135
 5399TIP3    H137688   1.083   2.936   2.347 -0.6994  2.0523  1.2226
 5399TIP3    H237689   1.229   2.953   2.385 -0.8589  2.3790  1.6886
 5400TIP3   OH237690   2.721   2.485  44.983 -0.3746 -0.2714 -0.2856
 5400TIP3    H137691   2.667   2.454  44.910 -0.0387 -1.1393 -0.1789
 5400TIP3    H237692   2.756   2.405  45.022  0.9790  0.2701 -0.3481
 5401TIP3   OH237693   0.578   1.403  39.227 -0.1372  0.0732 -0.2507
 5401TIP3    H137694   0.658   1.350  39.227  0.3567  0.7348 -2.0092
 5401TIP3    H237695   0.516   1.352  39.174 -0.3015  0.3495 -0.3266
 5402TIP3   OH237696   3.748   0.510  35.965  0.3621 -0.2963 -1.0562
 5402TIP3    H137697   3.811   0.452  36.006  1.1381  1.9080  1.0920
 5402TIP3    H237698   3.757   0.594  36.011 -3.2104  0.5348 -1.4982
 5403TIP3   OH237699   0.799   3.065  41.892  0.2830 -0.0399  0.1209
 5403TIP3    H137700   0.828   2.975  41.905  1.1759  0.3580  0.9279
 5403TIP3    H237701   0.878   3.118  41.903 -0.1978  0.8366 -0.5104
 5404TIP3   OH237702   0.044   3.510  43.724  0.2671  0.2551  0.3920
 5404TIP3    H137703   0.081   3.479  43.806 -1.1818 -0.9318  0.6483
 5404TIP3    H237704   0.093   3.463  43.656  0.7510  0.4312  0.6160
 5405TIP3   OH237705   0.005   0.451  24.228 -0.1094  0.7361 -0.8791
 5405TIP3    H137706   0.021   0.359  24.206 -2.2889 -0.2649  1.2648
 5405TIP3    H237707  -0.085   0.467  24.202 -1.5446  0.5805  3.2373
 5406TIP3   OH237708   3.125   0.572  34.700  0.0610 -0.3263  0.1445
 5406TIP3    H137709   3.084   0.533  34.777  0.1598  0.2831  0.5118
 5406TIP3    H237710   3.096   0.664  34.702 -1.8574 -0.7867 -1.8123
 5407TIP3   OH237711   0.394   1.584   6.876  0.0625  0.1703 -0.3490
 5407TIP3    H137712   0.466   1.641   6.903 -0.1090 -0.6257  2.0701
 5407TIP3    H237713   0.320   1.644   6.864  0.1685  0.6209  1.0448
 5408TIP3   OH237714   0.015   3.798  38.763  0.3971 -0.2651 -0.5765
 5408TIP3    H137715   0.061   3.858  38.821 -3.0655  2.7087 -0.5890
 5408TIP3    H237716   0.038   3.827  38.675 -1.2824  1.1833 -0.5825
 5409TIP3   OH237717   1.365   0.295   3.009 -0.5651 -0.2891  0.2783
 5409TIP3    H137718   1.439   0.252   2.966  0.2337  0.6111  0.7266
 5409TIP3    H237719   1.402   0.375   3.046 -2.2030  1.3900 -1.5035
 5410TIP3   OH237720   1.354   0.998  45.681 -0.5164 -0.2174 -0.2178
 5410TIP3    H137721   1.325   0.909  45.700  0.2463 -0.9049 -2.0369
 5410TIP3    H237722   1.306   1.023  45.602  2.9601 -1.1325 -2.9131
 5411TIP3   OH237723   2.259   2.681  36.067  0.1792  0.1039 -0.0446
 5411TIP3    H137724   2.186   2.643  36.115  0.0906  0.3223 -0.0064
 5411TIP3    H237725   2.311   2.605  36.039 -0.3210 -0.0719 -0.4935
 5412TIP3   OH237726   3.674   3.290   4.369 -0.1434 -0.1817  0.1528
 5412TIP3    H137727   3.669   3.359   4.302 -0.3668 -1.1747 -0.8815
 5412TIP3    H237728   3.767   3.270   4.376  0.0689  1.0437  1.3556
 5413TIP3   OH237729   3.238   1.996  39.479  0.1306  0.0684  0.3677
 5413TIP3    H137730   3.276   1.925  39.530 -0.4153  1.0193  2.1574
 5413TIP3    H237731   3.314   2.043  39.443  0.5017 -2.2025 -2.0980
 5414TIP3   OH237732   3.521   3.762   6.452 -0.2189 -0.1529  0.5296
 5414TIP3    H137733   3.572   3.691   6.415 -0.0117 -0.0165  0.5508
 5414TIP3    H237734   3.584   3.833   6.465 -0.5304  0.2386 -0.0459
 5415TIP3   OH237735   1.442   0.549   2.137 -0.6786  0.1551 -0.0856
 5415TIP3    H137736   1.536   0.556   2.125 -0.5626  0.2312  0.8560
 5415TIP3    H237737   1.429   0.543   2.231 -1.6452  0.6631 -0.1679
 5416TIP3   OH237738   3.781   3.704  29.685  0.7159  0.2066  0.3741
 5416TIP3    H137739   3.711   3.660  29.638  1.7337 -1.3373  0.2235
 5416TIP3    H237740   3.817   3.766  29.622  0.0700  0.3821  0.1702
 5417TIP3   OH237741   3.339   2.585   7.436 -0.3146 -0.7630  0.4415
 5417TIP3    H137742   3.430   2.571   7.464  0.6758 -0.1339 -2.1693
 5417TIP3    H237743   3.314   2.668   7.477  1.7077  1.0574 -1.7507
 5418TIP3   OH237744   0.864   1.171  39.692 -0.1578 -1.0716  0.4230
 5418TIP3    H137745   0.957   1.154  39.677  0.3848  1.5227  0.4055
 5418TIP3    H237746   0.852   1.158  39.786  0.1959 -1.4003  0.4274
 5419TIP3   OH237747   0.751   0.543  39.109 -0.0413  0.4965  0.5516
 5419TIP3    H137748   0.765   0.628  39.069  0.2039 -0.8374 -2.4669
 5419TIP3    H237749   0.719   0.562  39.197 -2.6988  3.7217 -0.9231
 5420TIP3   OH237750   3.648   0.276   7.929  0.0608 -0.3153 -0.3201
 5420TIP3    H137751   3.577   0.326   7.888  0.0225  0.2308  0.3957
 5420TIP3    H237752   3.660   0.316   8.015 -0.9363 -2.3892  0.8848
 5421TIP3   OH237753   1.467   0.158  38.591 -0.7562 -0.0118 -0.2372
 5421TIP3    H137754   1.386   0.197  38.625 -0.3012 -0.6959  1.7053
 5421TIP3    H237755   1.527   0.157  38.665  1.1534  0.6442 -1.6681
 5422TIP3   OH237756   3.765   3.924  33.988  0.4112 -0.8587 -0.4056
 5422TIP3    H137757   3.758   3.880  33.904  2.6718  0.0072 -1.1187
 5422TIP3    H237758   3.852   3.901  34.021  1.4411  2.3889 -0.5084
 5423TIP3   OH237759   1.601   3.690  43.247  0.5255 -0.7155 -0.3606
 5423TIP3    H137760   1.573   3.600  43.226 -0.3018 -0.5959  0.2171
 5423TIP3    H237761   1.546   3.745  43.191  0.0296 -0.5071  0.3302
 5424TIP3   OH237762   0.911   2.810  42.009  0.4220 -0.4769 -0.1422
 5424TIP3    H137763   0.883   2.726  41.972  1.3209  0.3143 -2.7855
 5424TIP3    H237764   0.980   2.787  42.071 -0.0886 -1.7465 -0.0071
 5425TIP3   OH237765   4.037   3.987  14.694 -0.0366 -0.2091  0.7270
 5425TIP3    H137766   4.028   3.954  14.784 -0.8352 -0.9833  0.3800
 5425TIP3    H237767   4.093   3.922  14.651 -1.0379 -0.7662  0.2278
 5426TIP3   OH237768   3.185   0.115  45.866 -0.6398  0.4843  0.4770
 5426TIP3    H137769   3.240   0.136  45.790 -2.1473 -1.5359 -1.3043
 5426TIP3    H237770   3.246   0.107  45.939  1.7270 -2.7243 -1.5916
 5427TIP3   OH237771   1.904   0.442  47.107  0.0775  0.2022 -0.0987
 5427TIP3    H137772   1.919   0.350  47.084 -1.2555 -0.1806  0.4222
 5427TIP3    H237773   1.982   0.468  47.155  0.5776 -0.5932 -0.4619
 5428TIP3   OH237774   4.071   1.456  32.215  0.0125 -0.2366 -0.5362
 5428TIP3    H137775   4.071   1.514  32.291  0.2188 -0.7159 -0.1682
 5428TIP3    H237776   4.018   1.503  32.150 -0.3307  0.0864 -0.0328
 5429TIP3   OH237777   3.286   1.540  46.696  0.3725 -0.0190 -0.0796
 5429TIP3    H137778   3.311   1.618  46.746  0.6391 -0.5931  0.7113
 5429TIP3    H237779   3.369   1.496  46.677  0.1590 -0.6792  0.4492
 5430TIP3   OH237780   0.191   3.600  13.973 -0.1264  1.1130  0.1962
 5430TIP3    H137781   0.253   3.541  13.931 -0.6212  1.8547 -1.6952
 5430TIP3    H237782   0.166   3.556  14.054  1.7005  0.1188  0.2639
 5431TIP3   OH237783   3.348   2.624   8.716 -0.2946  0.5025 -0.5749
 5431TIP3    H137784   3.373   2.712   8.688  0.7195  0.7731  1.1016
 5431TIP3    H237785   3.265   2.608   8.671 -0.0182  1.9128 -1.6669
 5432TIP3   OH237786   0.849   2.958   8.092  0.1256  0.6343  0.1417
 5432TIP3    H137787   0.846   2.869   8.057  0.8790  1.3549 -1.9463
 5432TIP3    H237788   0.828   2.948   8.185  0.8050 -1.7833  0.1174
 5433TIP3   OH237789   2.421   2.445  36.060 -0.1206 -0.2097  0.1010
 5433TIP3    H137790   2.388   2.355  36.050 -0.9522  0.1281 -0.3356
 5433TIP3    H237791   2.493   2.451  35.998  0.5257 -0.8351  0.7649
 5434TIP3   OH237792   0.111   2.089  13.149 -0.1504 -0.1683 -0.4791
 5434TIP3    H137793   0.169   2.162  13.126 -0.3396 -0.3382 -1.5122
 5434TIP3    H237794   0.118   2.028  13.076  0.2334 -1.3457  0.4978
 5435TIP3   OH237795   0.306   2.371  14.691  0.9233  0.1363  0.3310
 5435TIP3    H137796   0.341   2.459  14.679  0.3031  0.6656  2.0501
 5435TIP3    H237797   0.382   2.317  14.712  1.0167  0.9007  2.1978
 5436TIP3   OH237798   0.459   2.198  36.778  0.6521 -0.1071  0.2878
 5436TIP3    H137799   0.553   2.209  36.786  0.7673 -0.4012 -0.5642
 5436TIP3    H237800   0.422   2.264  36.836  1.3802 -0.4527  1.1749
 5437TIP3   OH237801   1.341   2.969  12.512  0.1925 -0.5970 -0.4987
 5437TIP3    H137802   1.422   3.006  12.478  1.3047 -0.4059  2.1006
 5437TIP3    H237803   1.353   2.874  12.504  0.8027 -0.5779  0.0452
 5438TIP3   OH237804   2.897   3.506  36.176 -0.6766  0.5128 -0.2792
 5438TIP3    H137805   2.891   3.595  36.142 -3.8566 -0.9047 -4.2812
 5438TIP3    H237806   2.828   3.501  36.243  0.4618  1.3139  1.0096
 5439TIP3   OH237807   4.002   1.409  44.014 -0.2563  0.3256  0.0966
 5439TIP3    H137808   3.937   1.382  43.948  1.2380  0.3816 -1.4827
 5439TIP3    H237809   4.007   1.504  44.005 -0.2166  0.3583  0.4670
 5440TIP3   OH237810   1.460   2.486  35.749  0.3081 -1.0174  0.2998
 5440TIP3    H137811   1.385   2.526  35.704 -0.3721 -2.7575 -0.1860
 5440TIP3    H237812   1.468   2.536  35.830 -0.3308  0.2566 -0.3872
 5441TIP3   OH237813   1.649   3.856   0.693  0.2802 -0.0506 -0.0015
 5441TIP3    H137814   1.605   3.846   0.608  1.3816  1.8858 -0.8530
 5441TIP3    H237815   1.699   3.775   0.703 -0.4949 -0.6518 -0.8069
 5442TIP3   OH237816   4.081   2.457  10.634 -0.4027  0.1409  0.0482
 5442TIP3    H137817   4.153   2.510  10.669  0.1126  0.2878 -1.1874
 5442TIP3    H237818   4.021   2.446  10.708  0.0859  1.3984  0.6627
 5443TIP3   OH237819   0.835   0.510   7.922  0.2950 -0.6077 -0.2291
 5443TIP3    H137820   0.889   0.432   7.911  1.2985 -0.2960  1.8305
 5443TIP3    H237821   0.756   0.479   7.965  0.2796 -0.6329 -0.2770
 5444TIP3   OH237822   2.220   2.918   0.889  0.3951  0.3607  0.1392
 5444TIP3    H137823   2.136   2.923   0.936  1.8910 -1.4068  3.2811
 5444TIP3    H237824   2.269   2.994   0.920  1.1400 -0.4304  0.9231
 5445TIP3   OH237825   2.735   1.613   1.835  0.3521  0.2015  0.0516
 5445TIP3    H137826   2.824   1.646   1.845 -0.0669  0.8749  1.9040
 5445TIP3    H237827   2.683   1.691   1.811  0.2294 -0.1821 -1.0083
 5446TIP3   OH237828   0.335   2.952  43.406  0.5933 -0.1568  0.2019
 5446TIP3    H137829   0.253   2.948  43.455  0.9457 -2.6633  0.7312
 5446TIP3    H237830   0.339   3.042  43.373 -2.7633 -0.1751 -0.5920
 5447TIP3   OH237831   1.614   1.093   1.431 -0.1191  0.2848  0.0407
 5447TIP3    H137832   1.641   1.005   1.405  0.2827  0.4538 -0.1175
 5447TIP3    H237833   1.620   1.145   1.350 -1.4675  0.2035 -0.1454
 5448TIP3   OH237834   2.876   2.288  41.563  0.7735  0.1436 -0.1687
 5448TIP3    H137835   2.932   2.237  41.622 -2.5589 -1.8240  1.6401
 5448TIP3    H237836   2.880   2.241  41.479  2.3374  0.4790 -0.2976
 5449TIP3   OH237837   3.687   0.088  12.212 -0.1153 -0.4852  0.2678
 5449TIP3    H137838   3.757   0.141  12.175 -0.7632  0.1086 -0.1335
 5449TIP3    H237839   3.616   0.094  12.148 -0.6207 -0.8780  0.7816
 5450TIP3   OH237840   1.371   3.765  38.638  0.2087 -0.1311  0.1926
 5450TIP3    H137841   1.378   3.820  38.559 -0.0855 -2.7244 -1.7619
 5450TIP3    H237842   1.279   3.769  38.662 -0.2865 -1.4722 -1.3198
 5451TIP3   OH237843   2.226   2.519  16.360 -0.0990 -0.4445  0.2574
 5451TIP3    H137844   2.310   2.477  16.344  0.0456  0.2946 -1.0838
 5451TIP3    H237845   2.236   2.564  16.444  1.3867  0.8951 -0.5942
 5452TIP3   OH237846   3.147   2.004   4.036 -0.4591  0.6603  0.2162
 5452TIP3    H137847   3.083   1.933   4.049 -0.4084  0.5205 -0.2588
 5452TIP3    H237848   3.104   2.063   3.975 -0.7244  1.3340  1.0369
 5453TIP3   OH237849   1.991   0.552   8.540  0.0878  0.5534  0.2055
 5453TIP3    H137850   1.929   0.505   8.484  2.2503 -0.9257 -1.1417
 5453TIP3    H237851   2.023   0.624   8.485  3.6980 -2.0394 -1.5552
 5454TIP3   OH237852   0.992   1.293  31.790  0.4964 -0.6079  0.0730
 5454TIP3    H137853   1.042   1.369  31.820  1.2004 -0.6773 -0.8702
 5454TIP3    H237854   0.937   1.327  31.719  0.5072 -0.8949 -0.0720
 5455TIP3   OH237855   2.713   0.843  41.686  0.3115 -0.0882  0.8540
 5455TIP3    H137856   2.771   0.886  41.749 -0.2656  3.0931 -0.5616
 5455TIP3    H237857   2.740   0.878  41.601 -0.9645 -1.8160 -0.3331
 5456TIP3   OH237858   3.014   2.132   3.782  0.2380  0.3261 -0.4894
 5456TIP3    H137859   3.030   2.220   3.747 -0.1640  0.2943 -0.7621
 5456TIP3    H237860   3.082   2.078   3.743  1.5883  0.8313  1.0284
 5457TIP3   OH237861   3.054   2.647  39.666  0.6407  0.1479 -0.0577
 5457TIP3    H137862   2.991   2.581  39.694 -1.1499  2.0453  0.6977
 5457TIP3    H237863   3.138   2.618  39.701 -0.4112 -0.8117  1.7989
 5458TIP3   OH237864   1.222   2.017  37.154  0.6601  0.7254 -0.5025
 5458TIP3    H137865   1.199   2.109  37.164  1.1865  0.9860 -1.5601
 5458TIP3    H237866   1.239   1.986  37.244  0.3596  1.6157 -0.1332
 5459TIP3   OH237867   1.784   2.445   3.657 -0.0827 -0.3193  0.7401
 5459TIP3    H137868   1.852   2.512   3.646  1.0906 -1.6934 -0.8360
 5459TIP3    H237869   1.735   2.447   3.575  0.8204 -2.2647  0.1163
 5460TIP3   OH237870   2.736   3.956  41.992  0.2251  0.1617 -0.0406
 5460TIP3    H137871   2.778   3.896  42.054 -2.9545 -1.8706  0.3602
 5460TIP3    H237872   2.760   3.922  41.906 -1.5345 -1.8655  0.1795
 5461TIP3   OH237873   3.990   0.015   4.009  0.1293 -0.0924  0.6543
 5461TIP3    H137874   4.053   0.058   4.068 -0.3914  0.9421  0.4770
 5461TIP3    H237875   4.044  -0.035   3.948  0.8663  1.6379 -0.1750
 5462TIP3   OH237876   2.657   0.981  14.843  0.0681  0.0047 -0.1976
 5462TIP3    H137877   2.655   0.919  14.916  1.3279 -0.7457 -0.7619
 5462TIP3    H237878   2.564   0.995  14.821 -0.2665 -1.6633 -0.0218
 5463TIP3   OH237879   0.221   0.239  15.040 -0.7069 -0.5739 -0.1123
 5463TIP3    H137880   0.158   0.172  15.067 -1.5946 -0.3890 -1.6156
 5463TIP3    H237881   0.229   0.228  14.946 -0.5549  1.1610 -0.3340
 5464TIP3   OH237882   2.454   3.898  46.403  0.0147  0.0006 -0.1701
 5464TIP3    H137883   2.498   3.950  46.470 -1.1628  0.1018  0.5494
 5464TIP3    H237884   2.427   3.818  46.449 -1.9693  0.6347 -0.1349
 5465TIP3   OH237885   3.679   0.161  25.037  0.0627 -0.0481  0.3117
 5465TIP3    H137886   3.693   0.078  24.991  1.8914  0.3766  0.0201
 5465TIP3    H237887   3.603   0.145  25.093  0.6768 -2.0933  0.6474
 5466TIP3   OH237888   0.649   3.705   8.341  0.2712  0.1730 -0.4066
 5466TIP3    H137889   0.640   3.682   8.434  0.4620  1.1769 -0.1291
 5466TIP3    H237890   0.568   3.751   8.320 -0.3632 -1.2125 -1.1130
 5467TIP3   OH237891   2.735   3.657  15.263 -0.4458  0.1172  0.2965
 5467TIP3    H137892   2.652   3.609  15.254 -2.1320  2.1937  3.2269
 5467TIP3    H237893   2.722   3.737  15.213 -0.5220  0.7567  1.3132
 5468TIP3   OH237894   0.283   0.999   1.905  0.3035 -0.4039  0.2529
 5468TIP3    H137895   0.190   1.020   1.903  0.1553 -0.9440 -2.5013
 5468TIP3    H237896   0.315   1.042   1.985 -2.3182 -0.4933  1.4761
 5469TIP3   OH237897   2.204   2.743  36.466  0.3339  0.0498  0.6545
 5469TIP3    H137898   2.206   2.704  36.553  1.4622  0.0841  0.6537
 5469TIP3    H237899   2.254   2.683  36.411  1.0136  0.8466  0.3796
 5470TIP3   OH237900   0.241   2.851   0.660  0.4521  0.1516 -0.0217
 5470TIP3    H137901   0.275   2.813   0.579  0.7936 -0.9944  0.6408
 5470TIP3    H237902   0.277   2.940   0.662  2.1657 -0.5154 -0.0888
 5471TIP3   OH237903   1.243   2.866  40.604 -0.8684  0.1173 -0.2158
 5471TIP3    H137904   1.258   2.821  40.687 -0.0015 -1.1744 -1.0217
 5471TIP3    H237905   1.150   2.887  40.604 -0.7773  0.6081  1.2911
 5472TIP3   OH237906   2.236   3.496  27.840  0.1230  0.1203 -0.1853
 5472TIP3    H137907   2.151   3.489  27.796 -0.0245  0.3626  0.0562
 5472TIP3    H237908   2.238   3.421  27.900  1.0521 -1.2251 -1.8063
 5473TIP3   OH237909   1.569   4.031  43.484 -0.3540 -0.4651 -0.1514
 5473TIP3    H137910   1.543   4.117  43.518 -1.2574 -1.2723  1.3073
 5473TIP3    H237911   1.626   3.995  43.551 -0.5990 -1.3105 -0.3772
 5474TIP3   OH237912   0.202   0.153   4.591  0.4514 -0.1833  0.4788
 5474TIP3    H137913   0.193   0.234   4.539  1.2769  0.6033  1.5172
 5474TIP3    H237914   0.152   0.170   4.670  0.9318 -0.5394  0.8643
 5475TIP3   OH237915   2.653   0.000  35.345 -0.3052 -0.0347  0.5956
 5475TIP3    H137916   2.718   0.065  35.373 -0.2736 -0.4117  1.3999
 5475TIP3    H237917   2.705  -0.068  35.303 -0.1858 -0.2958  1.1634
 5476TIP3   OH237918   4.051   2.528  40.311  0.3337  0.5851 -0.4075
 5476TIP3    H137919   4.087   2.577  40.386 -0.2045  0.0772  0.1956
 5476TIP3    H237920   3.959   2.554  40.307 -0.0273 -0.5524  0.0794
 5477TIP3   OH237921   2.956   2.154  45.324  0.3704  0.5009  0.2805
 5477TIP3    H137922   2.882   2.207  45.353  0.2355  0.9663 -0.8626
 5477TIP3    H237923   3.033   2.209  45.340  0.2294  1.0735 -0.9197
 5478TIP3   OH237924   3.774   3.816   6.018  0.2750 -0.3693 -0.0243
 5478TIP3    H137925   3.697   3.763   6.000  0.7101 -0.9186 -0.2999
 5478TIP3    H237926   3.779   3.877   5.944 -0.0831 -0.1018  0.1676
 5479TIP3   OH237927   0.147   2.255  13.668  0.5748 -0.1878 -0.6011
 5479TIP3    H137928   0.120   2.194  13.736  0.9666 -1.2503 -1.3742
 5479TIP3    H237929   0.179   2.200  13.597  3.2774  0.9132 -0.3839
 5480TIP3   OH237930   1.113   1.719  22.129 -0.1120  0.1646 -0.6755
 5480TIP3    H137931   1.040   1.665  22.098 -1.4646  0.7305  1.3747
 5480TIP3    H237932   1.191   1.672  22.098 -1.2768 -1.3586 -1.4890
 5481TIP3   OH237933   3.634   3.157  10.668  0.4786 -0.0368 -0.4591
 5481TIP3    H137934   3.635   3.205  10.751  0.2419 -1.2358  0.2563
 5481TIP3    H237935   3.547   3.175  10.631  0.3361 -0.0209 -0.1244
 5482TIP3   OH237936   1.642   4.093   0.297  0.4753  0.1681  0.7447
 5482TIP3    H137937   1.617   4.028   0.231  1.9766 -1.4039  1.6404
 5482TIP3    H237938   1.648   4.175   0.249 -1.3642 -0.3362 -0.4583
 5483TIP3   OH237939   1.949   3.742   6.896 -0.1331  1.2655 -0.0207
 5483TIP3    H137940   1.995   3.754   6.813 -2.3253  1.4422 -1.2890
 5483TIP3    H237941   1.979   3.657   6.927  0.2457  0.8736 -1.3610
 5484TIP3   OH237942   2.416   2.370   8.197  0.0747 -0.0833  0.3633
 5484TIP3    H137943   2.347   2.419   8.242  0.9857  0.7607  0.8804
 5484TIP3    H237944   2.472   2.338   8.268  1.6194  1.4009 -0.1175
 5485TIP3   OH237945   0.478   2.527  32.119  0.1388 -0.0283 -0.1463
 5485TIP3    H137946   0.398   2.574  32.096  0.6454  1.2247  0.5356
 5485TIP3    H237947   0.541   2.554  32.052  1.1821  2.4302  1.6808
 5486TIP3   OH237948   3.619   0.491  46.847  0.0937  0.6843  0.3524
 5486TIP3    H137949   3.579   0.541  46.918 -0.4449 -0.7509  1.0842
 5486TIP3    H237950   3.568   0.410  46.842  0.3945  0.5619 -1.3824
 5487TIP3   OH237951   0.462   1.929  32.486  0.0715 -0.0340 -0.1300
 5487TIP3    H137952   0.510   1.938  32.404  0.5946 -2.9198 -0.2269
 5487TIP3    H237953   0.503   1.855  32.530  0.1175  1.6849  3.0320
 5488TIP3   OH237954   4.038   2.191  16.174  0.6218  0.3637 -0.0960
 5488TIP3    H137955   4.033   2.184  16.078 -1.6648 -0.5326  0.0157
 5488TIP3    H237956   3.951   2.221  16.200  0.8014 -0.6296  1.7831
 5489TIP3   OH237957   2.672   3.019  41.997  0.2800 -0.9374 -0.3202
 5489TIP3    H137958   2.691   3.009  41.903  0.8808  2.3726 -0.6886
 5489TIP3    H237959   2.744   3.073  42.030 -0.5501 -1.0400  1.8066
 5490TIP3   OH237960   0.438   2.151  21.189 -0.0930  0.2384  0.6156
 5490TIP3    H137961   0.531   2.162  21.206  0.7215 -2.5439 -1.3731
 5490TIP3    H237962   0.404   2.107  21.267  0.2608  1.1213  1.2789
 5491TIP3   OH237963   1.576   3.691  11.045  0.0148 -0.0072  0.3926
 5491TIP3    H137964   1.497   3.731  11.009  0.6101 -0.3477 -1.3538
 5491TIP3    H237965   1.642   3.761  11.042  0.4964 -0.4895 -0.7178
 5492TIP3   OH237966   2.095   2.248  11.366 -0.1838 -0.0202 -0.2211
 5492TIP3    H137967   2.055   2.289  11.442 -0.2349 -0.0317 -0.2416
 5492TIP3    H237968   2.163   2.192  11.402  0.0201  0.2375 -0.2088
 5493TIP3   OH237969   3.358   1.744   1.801  0.2394  0.6717  0.1074
 5493TIP3    H137970   3.395   1.779   1.720 -1.3015  0.4037 -0.7672
 5493TIP3    H237971   3.310   1.666   1.773  0.2662  0.1745  1.3965
 5494TIP3   OH237972   1.485   0.790  36.599  0.2929 -0.2704 -0.1677
 5494TIP3    H137973   1.529   0.708  36.620 -1.5830 -1.2631  0.1091
 5494TIP3    H237974   1.392   0.766  36.591 -0.3433  1.8728  0.2175
 5495TIP3   OH237975   2.432   0.704  42.545  0.2942  0.7026  0.0189
 5495TIP3    H137976   2.425   0.635  42.611 -2.6276  1.5944  0.7631
 5495TIP3    H237977   2.373   0.677  42.475  0.3266  1.6828 -0.4004
 5496TIP3   OH237978   2.774   3.699   9.141 -0.2344  0.2371  0.4192
 5496TIP3    H137979   2.776   3.720   9.047  0.6691 -0.0356  0.3728
 5496TIP3    H237980   2.842   3.632   9.152  0.1693  0.8031  1.4057
 5497TIP3   OH237981   0.382   1.752  18.109  0.0489 -0.0811 -0.4911
 5497TIP3    H137982   0.453   1.689  18.116  0.8930  0.8983  0.3120
 5497TIP3    H237983   0.393   1.808  18.187 -1.9299 -0.2266 -0.0566
 5498TIP3   OH237984   1.614   3.713  34.366 -0.0633 -0.3736 -0.0035
 5498TIP3    H137985   1.709   3.714  34.366 -0.0419 -1.4485 -0.0917
 5498TIP3    H237986   1.590   3.640  34.308 -0.9348 -0.1180  0.0130
 5499TIP3   OH237987   0.890   1.476  34.823 -0.1851 -0.0993 -0.1308
 5499TIP3    H137988   0.899   1.560  34.866 -0.9017 -0.1995  0.2167
 5499TIP3    H237989   0.979   1.438  34.825 -0.3284 -0.4074  1.8783
 5500TIP3   OH237990   3.434   3.893   1.007 -0.4420 -0.4723  0.3370
 5500TIP3    H137991   3.355   3.904   0.955  0.0454  0.2231 -0.2650
 5500TIP3    H237992   3.409   3.923   1.095 -0.6161  0.5273 -0.0433
 5501TIP3   OH237993   3.107   3.356  35.866 -0.4859  0.2845  0.0528
 5501TIP3    H137994   3.110   3.452  35.867 -3.1667  0.4618 -0.4498
 5501TIP3    H237995   3.057   3.333  35.945 -0.0911 -0.6858  0.0366
 5502TIP3   OH237996   2.742   1.584  21.815 -0.0446 -0.4407  0.7956
 5502TIP3    H137997   2.816   1.556  21.869  0.5572 -1.6061 -0.5751
 5502TIP3    H237998   2.783   1.631  21.742 -0.7966  0.4197  0.9069
 5503TIP3   OH237999   0.804   1.953  32.881 -0.0337  0.5011 -0.0150
 5503TIP3    H138000   0.828   1.921  32.794  2.1145 -0.0191  0.7071
 5503TIP3    H238001   0.887   1.965  32.926 -1.1080 -0.3584  2.3645
 5504TIP3   OH238002   1.142   2.937  35.969  0.0920 -0.4740  0.0746
 5504TIP3    H138003   1.212   2.881  36.004  1.3233  0.7345 -0.3188
 5504TIP3    H238004   1.061   2.896  35.998  0.9830 -1.6374  1.0358
 5505TIP3   OH238005   3.011   0.621  39.253  0.3187 -0.2975 -0.2231
 5505TIP3    H138006   3.045   0.585  39.334 -0.0590  1.2837  0.6869
 5505TIP3    H238007   2.916   0.626  39.266  0.1945 -0.4882 -0.9663
 5506TIP3   OH238008   0.484   2.015   2.847 -0.6417 -0.2134 -0.0297
 5506TIP3    H138009   0.515   1.986   2.933  1.1615 -1.6089 -1.0815
 5506TIP3    H238010   0.452   1.935   2.805  1.9120 -0.3312 -1.9799
 5507TIP3   OH238011   3.093   3.892   5.810 -0.2635  0.2067  0.3057
 5507TIP3    H138012   3.068   3.952   5.739 -0.1894  0.8587  0.8219
 5507TIP3    H238013   3.083   3.805   5.772 -1.4878  0.5031 -0.1078
 5508TIP3   OH238014   1.246   0.493  32.194 -0.2668 -0.1474  0.0469
 5508TIP3    H138015   1.208   0.560  32.136 -0.7366 -0.8965 -0.5235
 5508TIP3    H238016   1.240   0.531  32.281 -0.8252  0.4246 -0.2286
 5509TIP3   OH238017   3.133   0.783   0.712  0.4312 -0.3240  0.2572
 5509TIP3    H138018   3.124   0.689   0.698 -1.7244 -0.2685  0.9682
 5509TIP3    H238019   3.044   0.814   0.726  1.2825  1.4820  2.2048
 5510TIP3   OH238020   3.684   2.166  42.417  0.1674  0.2984  0.1619
 5510TIP3    H138021   3.761   2.214  42.447 -0.2523 -0.3942  2.5133
 5510TIP3    H238022   3.661   2.208  42.334  1.8734  1.8279  0.3989
 5511TIP3   OH238023   1.587   2.643  15.157 -0.1376 -0.5577 -0.6590
 5511TIP3    H138024   1.543   2.565  15.123 -1.7439 -1.2875  2.7094
 5511TIP3    H238025   1.526   2.715  15.140 -0.4477 -0.7347 -0.3040
 5512TIP3   OH238026   1.736   2.764  38.479 -0.4344  0.5761  0.1382
 5512TIP3    H138027   1.738   2.854  38.447 -0.2491  0.7996  0.7583
 5512TIP3    H238028   1.679   2.718  38.418 -0.5890  1.1320 -0.1408
 5513TIP3   OH238029   1.819   3.270   0.450  0.1971 -0.4819  0.0143
 5513TIP3    H138030   1.767   3.192   0.430 -0.9022 -0.2899  1.8672
 5513TIP3    H238031   1.837   3.263   0.544 -0.8248  1.9903  0.4681
 5514TIP3   OH238032   2.217   1.576   8.110 -0.4481 -0.2576 -0.3114
 5514TIP3    H138033   2.257   1.647   8.160  0.0057  0.4174 -1.5809
 5514TIP3    H238034   2.206   1.505   8.173  1.0794  0.1857  0.5032
 5515TIP3   OH238035   1.251   3.199  33.066  0.0396 -0.6872 -0.2497
 5515TIP3    H138036   1.253   3.142  33.143  1.8885  1.0631  1.0895
 5515TIP3    H238037   1.158   3.202  33.041 -0.4090 -2.4420  0.9824
 5516TIP3   OH238038   1.541   1.176  41.744 -0.3443  0.1993  0.2105
 5516TIP3    H138039   1.537   1.098  41.689  2.1216  0.9094 -1.1211
 5516TIP3    H238040   1.544   1.249  41.682  2.6412  1.0219  1.1730
 5517TIP3   OH238041   0.961   3.837  35.205  0.4643 -0.8056 -0.2679
 5517TIP3    H138042   0.912   3.892  35.265  0.3031 -1.6901  0.4321
 5517TIP3    H238043   0.951   3.880  35.120  0.9374  0.6220  0.3643
 5518TIP3   OH238044   3.330   1.192  40.900 -0.0561  0.0178  0.3529
 5518TIP3    H138045   3.296   1.103  40.913  0.9755 -0.8396 -2.1996
 5518TIP3    H238046   3.422   1.187  40.924  0.6749 -0.3784 -2.2454
 5519TIP3   OH238047   0.508   1.517  35.269  0.3906  0.0632  0.0902
 5519TIP3    H138048   0.487   1.423  35.271  2.3913 -0.4338  0.2365
 5519TIP3    H238049   0.498   1.541  35.177 -0.4114 -0.2118  0.0974
 5520TIP3   OH238050   3.294   4.077  27.033 -0.3332  0.1991  0.3111
 5520TIP3    H138051   3.199   4.083  27.019 -0.3353  1.2353  0.7118
 5520TIP3    H238052   3.305   4.091  27.127  0.0919 -1.7022  0.5867
 5521TIP3   OH238053   2.015   1.852  43.060  0.0545 -0.4125  0.1814
 5521TIP3    H138054   1.944   1.899  43.016  0.2976 -0.4848 -0.2949
 5521TIP3    H238055   2.095   1.889  43.021  0.5757  2.9745  3.7762
 5522TIP3   OH238056   0.757   1.379  32.887  0.6098  0.3377  0.4282
 5522TIP3    H138057   0.725   1.300  32.845  0.7701  0.2139  0.5412
 5522TIP3    H238058   0.719   1.376  32.975 -0.4840  1.0511  0.0095
 5523TIP3   OH238059   1.274   2.955   0.945 -0.5760 -0.0651 -0.1504
 5523TIP3    H138060   1.222   2.969   1.024 -2.8840  0.8273 -1.7176
 5523TIP3    H238061   1.362   2.935   0.977 -1.6517 -0.7824  2.6331
 5524TIP3   OH238062   0.494   1.088  43.736 -0.2874 -0.6231 -0.6355
 5524TIP3    H138063   0.418   1.046  43.696 -0.1694  0.7991 -2.4652
 5524TIP3    H238064   0.461   1.170  43.772  0.3872  0.0613 -1.5469
 5525TIP3   OH238065   2.027   1.725   2.821 -0.2301  0.0974 -0.4280
 5525TIP3    H138066   1.989   1.769   2.745 -1.2929 -0.4667 -0.2552
 5525TIP3    H238067   1.965   1.655   2.841  1.0978 -1.0912 -0.3253
 5526TIP3   OH238068   1.849   2.061  31.406  0.2454  0.2639  0.1298
 5526TIP3    H138069   1.806   2.145  31.387 -0.3844 -0.0257  0.2318
 5526TIP3    H238070   1.857   2.019  31.321 -0.1740  0.0889  0.1741
 5527TIP3   OH238071   2.698   2.525  20.599  0.1268 -0.1040 -0.2381
 5527TIP3    H138072   2.612   2.562  20.620  0.2372 -0.0704  0.1642
 5527TIP3    H238073   2.746   2.528  20.682  0.3143 -0.6638 -0.3202
 5528TIP3   OH238074   2.128   1.985  41.450 -0.5091 -0.3166 -0.7769
 5528TIP3    H138075   2.097   2.053  41.509  0.7180 -2.4245  2.6121
 5528TIP3    H238076   2.223   1.982  41.463 -0.2785 -1.4064 -2.3018
 5529TIP3   OH238077   0.745   0.036  15.590  0.3114 -0.3153 -0.0068
 5529TIP3    H138078   0.734  -0.057  15.611  0.2007 -0.3965 -0.4129
 5529TIP3    H238079   0.658   0.065  15.564 -0.0771  0.3715  1.8946
 5530TIP3   OH238080   0.161   2.988   3.225  0.3900  0.6080  0.3144
 5530TIP3    H138081   0.093   3.052   3.203 -0.1092  0.1093  0.3902
 5530TIP3    H238082   0.193   3.016   3.311 -0.1332  0.5065  0.5473
 5531TIP3   OH238083   2.465   3.393  44.459  0.4253 -0.5840 -0.2413
 5531TIP3    H138084   2.383   3.392  44.509  0.6223 -0.6589  0.0785
 5531TIP3    H238085   2.436   3.399  44.367  0.0122 -2.1442 -0.2441
 5532TIP3   OH238086   3.216   2.045   6.227 -0.3951 -0.5936 -0.5187
 5532TIP3    H138087   3.150   1.980   6.250  0.1606 -0.8419  0.4219
 5532TIP3    H238088   3.260   2.065   6.309  0.3916 -0.0790 -1.0469
 5533TIP3   OH238089   1.880   0.557   4.585 -0.2029  0.6077 -0.2339
 5533TIP3    H138090   1.879   0.651   4.566  0.2108  0.4987 -0.8598
 5533TIP3    H238091   1.970   0.539   4.612 -0.1315  0.3010 -0.6561
 5534TIP3   OH238092   0.834   0.385   5.066 -0.1650 -0.6601 -0.1169
 5534TIP3    H138093   0.901   0.331   5.108 -0.4143 -0.2488  0.8384
 5534TIP3    H238094   0.770   0.322   5.033  1.0462 -1.1050 -1.7357
 5535TIP3   OH238095   0.660   2.069   5.933  0.2549  0.2912  0.2296
 5535TIP3    H138096   0.686   1.992   5.983 -1.4957 -0.8514 -0.5194
 5535TIP3    H238097   0.678   2.045   5.842  1.0802  1.3671  0.0916
 5536TIP3   OH238098   2.500   1.630  33.607  0.1415  0.6132 -0.3345
 5536TIP3    H138099   2.505   1.623  33.512 -1.7963  2.0537 -0.6011
 5536TIP3    H238100   2.436   1.565  33.633 -0.2191  1.0268 -0.1650
 5537TIP3   OH238101   0.246   1.887  32.872 -0.6600 -0.4709  0.8470
 5537TIP3    H138102   0.234   1.980  32.892 -3.5573 -0.3497 -0.8230
 5537TIP3    H238103   0.238   1.843  32.956 -0.6066  0.7192  1.4974
 5538TIP3   OH238104   4.051   1.161  40.182  0.1295 -0.3291  0.1754
 5538TIP3    H138105   4.022   1.232  40.238 -0.1112 -1.0726  1.0008
 5538TIP3    H238106   3.982   1.095  40.187  0.2235 -0.5179 -0.7895
 5539TIP3   OH238107   3.956   3.900  47.412  0.3357  0.8209 -0.4844
 5539TIP3    H138108   3.904   3.977  47.388 -1.2297 -0.4254 -1.2931
 5539TIP3    H238109   4.000   3.925  47.493  0.5819  2.8645 -1.1900
 5540TIP3   OH238110   1.503   4.092   7.667  0.2189 -0.3821 -1.1533
 5540TIP3    H138111   1.531   4.183   7.678  0.9145 -0.6502 -0.6372
 5540TIP3    H238112   1.434   4.080   7.732  1.3746 -0.7268  0.0688
 5541TIP3   OH238113   3.858   0.758   1.697 -0.4715  0.4110 -0.0975
 5541TIP3    H138114   3.902   0.736   1.779 -0.0316  0.8065 -0.2226
 5541TIP3    H238115   3.774   0.796   1.724 -0.7345 -0.3196  0.1438
 5542TIP3   OH238116   1.954   1.495  38.487 -0.2196  0.5937  0.1932
 5542TIP3    H138117   2.007   1.575  38.479 -0.2906  0.5538 -0.7193
 5542TIP3    H238118   2.015   1.429  38.518  0.3818  0.4566 -1.2039
 5543TIP3   OH238119   1.317   0.145   5.551 -0.3644  0.2153 -0.1832
 5543TIP3    H138120   1.367   0.068   5.524  0.6734  0.3600  1.1995
 5543TIP3    H238121   1.304   0.195   5.470  0.7244 -0.4251 -0.7798
 5544TIP3   OH238122   1.443   1.871  44.479  0.3404 -0.6247  0.1484
 5544TIP3    H138123   1.509   1.935  44.453 -0.3391 -0.0645 -0.2381
 5544TIP3    H238124   1.476   1.787  44.447  0.0552 -0.1129 -1.5787
 5545TIP3   OH238125   0.951   0.642   7.164 -0.0591 -0.0295  0.3108
 5545TIP3    H138126   0.921   0.573   7.223 -2.5988  1.9270  1.5269
 5545TIP3    H238127   0.896   0.717   7.186  0.6885  1.5862 -2.8016
 5546TIP3   OH238128   1.739   2.454  39.897  0.3553 -0.6736 -0.4776
 5546TIP3    H138129   1.644   2.455  39.883  0.2427  0.6467  0.1961
 5546TIP3    H238130   1.759   2.541  39.933  1.7292 -1.1561  0.0010
 5547TIP3   OH238131   1.437   0.148  35.610  0.8161  0.3549 -0.2527
 5547TIP3    H138132   1.456   0.166  35.518 -0.6740  0.7864 -0.5127
 5547TIP3    H238133   1.342   0.160  35.617  0.5281 -2.0349  0.8063
 5548TIP3   OH238134   0.431   0.349  47.280 -0.2095  0.6706 -0.2723
 5548TIP3    H138135   0.506   0.311  47.326 -0.7351  0.2454  0.2613
 5548TIP3    H238136   0.469   0.401  47.209  0.6224  1.2669  0.5844
 5549TIP3   OH238137   3.618   1.555  35.998 -0.6206  0.3090 -0.2189
 5549TIP3    H138138   3.534   1.509  36.002 -1.3702  1.5658 -0.8971
 5549TIP3    H238139   3.652   1.550  36.088 -0.1282 -2.4408 -0.4630
 5550TIP3   OH238140   1.062   2.837   7.755 -0.2259  0.5929 -0.1695
 5550TIP3    H138141   1.122   2.876   7.691  0.5818 -1.0108 -0.4346
 5550TIP3    H238142   1.120   2.802   7.823 -0.8226 -1.0343 -0.4564
 5551TIP3   OH238143   0.606   0.923  40.735 -0.6722  0.4296 -0.1228
 5551TIP3    H138144   0.677   0.987  40.741  0.2458 -0.5571 -0.1276
 5551TIP3    H238145   0.625   0.874  40.655 -0.9936 -0.2719  0.2280
 5552TIP3   OH238146   0.437   3.635   1.380  0.4310  0.1330  0.1374
 5552TIP3    H138147   0.356   3.667   1.342  1.0478  0.4090 -0.9732
 5552TIP3    H238148   0.455   3.553   1.334  0.3878 -0.3301  0.9231
 5553TIP3   OH238149   1.229   0.088  32.676 -0.3884 -0.2166  0.0482
 5553TIP3    H138150   1.149   0.139  32.666 -0.7289 -0.9057 -0.8388
 5553TIP3    H238151   1.201  -0.003  32.675  0.0421 -0.4948  3.1723
 5554TIP3   OH238152   1.472   2.041  43.409 -0.1266 -0.2557 -0.1723
 5554TIP3    H138153   1.502   2.114  43.356  0.5392 -0.2175  0.2491
 5554TIP3    H238154   1.477   2.073  43.499 -1.5845 -0.1904 -0.0805
 5555TIP3   OH238155   2.573   0.830  37.270  0.5846  0.2877 -0.1364
 5555TIP3    H138156   2.653   0.785  37.242  1.3132  0.5720  1.3922
 5555TIP3    H238157   2.592   0.923  37.258 -0.5654  0.2838 -2.3723
 5556TIP3   OH238158   3.544   2.833   8.868 -0.1728 -0.0060 -0.3883
 5556TIP3    H138159   3.612   2.822   8.802 -0.3662 -0.8499 -0.4579
 5556TIP3    H238160   3.487   2.901   8.832  1.4078  1.7745  0.3389
 5557TIP3   OH238161   1.956   2.632   3.410 -0.1154  0.1466 -0.6134
 5557TIP3    H138162   1.966   2.685   3.332  0.6092 -0.8412 -1.2114
 5557TIP3    H238163   1.902   2.685   3.468 -0.4755  0.9863 -1.6869
 5558TIP3   OH238164   3.966   1.495  20.001  0.1459  0.3604 -1.0096
 5558TIP3    H138165   4.012   1.541  19.931 -0.4263  0.2111 -1.4876
 5558TIP3    H238166   4.035   1.447  20.047  0.8984  2.3513  0.0509
 5559TIP3   OH238167   1.350   1.518  14.974  0.3058 -0.1867  0.5366
 5559TIP3    H138168   1.304   1.565  14.904  1.7210  0.7363  0.1875
 5559TIP3    H238169   1.318   1.428  14.967  1.0267 -0.3302 -1.9049
 5560TIP3   OH238170   0.508   0.128   7.210  0.5248  0.0417  0.2717
 5560TIP3    H138171   0.462   0.056   7.167 -0.4033  0.3270  0.7612
 5560TIP3    H238172   0.599   0.117   7.184  0.1180 -0.2622 -1.1066
 5561TIP3   OH238173   0.928   1.122   0.736  0.0736 -0.1994  0.3204
 5561TIP3    H138174   0.974   1.204   0.714  2.2843 -1.7022 -1.0509
 5561TIP3    H238175   0.995   1.068   0.778  0.0509 -2.9673 -2.8344
 5562TIP3   OH238176   3.258   0.488   7.924  0.2753  0.2882  0.2577
 5562TIP3    H138177   3.309   0.541   7.863  0.7957  0.2722  0.6718
 5562TIP3    H238178   3.300   0.402   7.922  0.2206  0.2531  0.5491
 5563TIP3   OH238179   0.097   0.011  47.468 -0.1185  0.2100  0.1902
 5563TIP3    H138180   0.065  -0.043  47.541 -0.1196  0.6146  0.4968
 5563TIP3    H238181   0.170   0.060  47.505 -0.1077  0.4060 -0.0849
 5564TIP3   OH238182   1.054   3.137  39.330  0.4938  0.5511 -0.0163
 5564TIP3    H138183   1.054   3.059  39.274  1.3296 -1.2406  2.2811
 5564TIP3    H238184   1.146   3.166  39.330  0.4777  0.6068  0.3084
 5565TIP3   OH238185   2.796   2.625  30.663 -0.1817 -0.7643  0.5409
 5565TIP3    H138186   2.705   2.634  30.634  0.0950 -0.3065 -0.2180
 5565TIP3    H238187   2.839   2.704  30.631  0.3167 -0.6068  1.5758
 5566TIP3   OH238188   0.893   1.049  47.394 -0.2289  0.1555 -0.2996
 5566TIP3    H138189   0.905   1.143  47.385  0.8652  0.1488  0.8551
 5566TIP3    H238190   0.823   1.039  47.458  0.8154  0.2066  0.8809
 5567TIP3   OH238191   1.409   3.217   9.707 -0.2131  0.1794  0.4028
 5567TIP3    H138192   1.495   3.180   9.685 -0.6407 -1.6767  1.5989
 5567TIP3    H238193   1.355   3.200   9.630  0.1074  0.0295  0.2070
 5568TIP3   OH238194   3.215   2.204  11.119  0.0503 -0.0571 -0.4698
 5568TIP3    H138195   3.228   2.293  11.086  1.3880 -0.4253 -1.0013
 5568TIP3    H238196   3.264   2.201  11.201 -2.8222  0.6868  1.4161
 5569TIP3   OH238197   0.707   0.337  27.394  0.0362  0.1224  0.0282
 5569TIP3    H138198   0.767   0.409  27.375  1.0347  0.1720  2.8669
 5569TIP3    H238199   0.763   0.265  27.423 -1.0899 -1.0567 -0.6031
 5570TIP3   OH238200   3.458   0.919  15.577  0.3791  0.5793 -0.0304
 5570TIP3    H138201   3.395   0.852  15.552 -0.0613  1.0919 -0.3242
 5570TIP3    H238202   3.427   0.953  15.661  1.0954 -0.1890  0.5609
 5571TIP3   OH238203   2.876   3.921  35.882  0.2782 -0.0276  0.5454
 5571TIP3    H138204   2.944   3.938  35.816  1.6619 -0.5960  1.7602
 5571TIP3    H238205   2.814   3.864  35.837  1.7341 -1.2716 -0.0099
 5572TIP3   OH238206   2.395   3.141  38.727  0.0020  0.0877  0.1882
 5572TIP3    H138207   2.306   3.167  38.705  0.3157  0.5916 -0.5298
 5572TIP3    H238208   2.425   3.092  38.650 -0.3532 -1.9003  1.2452
 5573TIP3   OH238209   1.830   1.178  37.383  0.4038  0.7664  0.0938
 5573TIP3    H138210   1.798   1.159  37.471  1.5650  1.3792  0.6711
 5573TIP3    H238211   1.842   1.092  37.343 -3.0939  0.4744 -0.6496
 5574TIP3   OH238212   2.327   1.633  37.778  0.3869 -0.2642  0.3262
 5574TIP3    H138213   2.355   1.585  37.700  0.7370  0.4932 -0.0278
 5574TIP3    H238214   2.384   1.601  37.847 -0.0563 -1.0844  0.3251
 5575TIP3   OH238215   2.901   1.585   3.476  0.2322  0.1612 -0.2531
 5575TIP3    H138216   2.826   1.578   3.536 -1.0838 -2.0804 -2.0198
 5575TIP3    H238217   2.950   1.504   3.489  1.2259  0.6943 -0.5804
 5576TIP3   OH238218   3.356   1.178  41.685  0.5167 -0.2670 -0.1697
 5576TIP3    H138219   3.342   1.225  41.767 -0.9468 -0.7356 -0.1180
 5576TIP3    H238220   3.446   1.144  41.692  0.1306 -1.0674  1.6700
 5577TIP3   OH238221   0.038   1.168  35.285  0.0016  1.1787  0.3237
 5577TIP3    H138222  -0.025   1.192  35.217  1.4749 -0.4676 -1.7484
 5577TIP3    H238223   0.015   1.079  35.309 -0.4066  1.6944  1.9334
 5578TIP3   OH238224   3.613   2.448  34.387 -0.4326  0.0852  0.2570
 5578TIP3    H138225   3.661   2.422  34.466 -0.5141 -1.4296 -0.1814
 5578TIP3    H238226   3.521   2.433  34.408 -0.5093  0.3409  0.1086
 5579TIP3   OH238227   1.408   0.503   7.790 -0.8952 -0.3924 -0.0029
 5579TIP3    H138228   1.404   0.419   7.837  0.5474 -0.5663 -0.1153
 5579TIP3    H238229   1.346   0.494   7.718  0.0332 -1.8327 -0.6791
 5580TIP3   OH238230   1.636   3.604   7.817  0.6517  0.6447 -0.3717
 5580TIP3    H138231   1.550   3.646   7.811  0.3554  0.0176 -0.6079
 5580TIP3    H238232   1.617   3.512   7.831  1.2793  0.8740  2.6670
 5581TIP3   OH238233   3.817   0.477  37.856 -0.1605 -0.2968 -0.0455
 5581TIP3    H138234   3.730   0.457  37.822 -0.0103  1.6064 -1.7143
 5581TIP3    H238235   3.856   0.391  37.872 -1.8739 -1.2127 -0.4458
 5582TIP3   OH238236   3.876   0.470   9.636  0.0578 -0.1346 -0.1521
 5582TIP3    H138237   3.918   0.430   9.559  1.8410 -0.6202  1.0231
 5582TIP3    H238238   3.890   0.564   9.624  1.6486 -0.2875  0.2581
 5583TIP3   OH238239   2.462   1.184  17.180  0.0823  0.4242 -0.1193
 5583TIP3    H138240   2.453   1.274  17.212 -0.4893  0.1115  0.6360
 5583TIP3    H238241   2.460   1.130  17.259  1.2322 -0.2122 -0.4894
 5584TIP3   OH238242   0.584   3.148   8.715  0.0970 -0.2250 -0.1532
 5584TIP3    H138243   0.678   3.148   8.699  0.0524 -1.1993 -0.4633
 5584TIP3    H238244   0.547   3.102   8.639 -0.5795 -0.3635  0.2551
 5585TIP3   OH238245   1.123   1.398  34.057  0.2669 -0.8738 -0.4172
 5585TIP3    H138246   1.187   1.382  33.987  1.1844 -2.4597  0.7063
 5585TIP3    H238247   1.165   1.365  34.136 -1.0970  0.0674  0.7520
 5586TIP3   OH238248   3.070   3.177  33.829 -0.2043  0.0983 -0.1953
 5586TIP3    H138249   3.080   3.102  33.888 -1.2439  0.6283  0.6851
 5586TIP3    H238250   3.010   3.147  33.761 -0.4178  0.0521  0.0137
 5587TIP3   OH238251   1.615   1.552  12.697 -0.1075 -0.2384  0.6056
 5587TIP3    H138252   1.706   1.575  12.678 -0.0871 -1.8095 -1.6616
 5587TIP3    H238253   1.568   1.574  12.616 -1.2653 -1.7417  0.8319
 5588TIP3   OH238254   0.130   2.498  46.327 -0.2167  0.3137 -0.0300
 5588TIP3    H138255   0.100   2.407  46.333  3.0615 -0.8213  1.4608
 5588TIP3    H238256   0.054   2.550  46.353 -1.6344 -2.1141  1.0234
 5589TIP3   OH238257   1.168   3.363   5.789  0.1051 -0.3758 -0.6722
 5589TIP3    H138258   1.257   3.383   5.760  0.1487  1.6619  0.6725
 5589TIP3    H238259   1.179   3.310   5.868  0.1670  0.2197 -0.2709
 5590TIP3   OH238260   3.897   2.421   8.496 -0.4459  0.5919 -0.6036
 5590TIP3    H138261   3.863   2.446   8.410 -1.6425 -1.7079 -0.8699
 5590TIP3    H238262   3.841   2.350   8.524 -0.0026  1.2031  2.0758
 5591TIP3   OH238263   2.884   0.884  47.719  0.2715  0.2422  0.0400
 5591TIP3    H138264   2.806   0.869  47.773  0.1097 -0.5654 -0.3997
 5591TIP3    H238265   2.867   0.968  47.676  0.1972  0.6716  0.8719
 5592TIP3   OH238266   3.618   3.871  36.900 -0.0704  0.3889 -0.3219
 5592TIP3    H138267   3.598   3.788  36.945 -0.4961  0.2098 -0.8272
 5592TIP3    H238268   3.627   3.935  36.970  0.1549 -0.0672  0.0714
 5593TIP3   OH238269   0.528   0.964  11.371 -0.4984 -0.1594  0.2790
 5593TIP3    H138270   0.466   0.956  11.444 -0.2107  0.1902  0.5682
 5593TIP3    H238271   0.474   0.989  11.296 -0.6037  0.9498  0.7146
 5594TIP3   OH238272   0.000   1.494  15.410  0.3617 -0.4950 -0.1924
 5594TIP3    H138273   0.065   1.424  15.417  0.0542 -0.6625  1.4227
 5594TIP3    H238274  -0.013   1.524  15.500 -1.7797 -0.4604 -0.4512
 5595TIP3   OH238275   0.355   3.995  45.867  0.2830 -0.5456  0.1447
 5595TIP3    H138276   0.346   3.906  45.831  0.0705 -0.5020  0.0933
 5595TIP3    H238277   0.285   4.002  45.932 -0.1596 -0.1649 -0.3646
 5596TIP3   OH238278   1.317   3.614   0.354  0.1447 -0.3606  0.7228
 5596TIP3    H138279   1.296   3.574   0.269 -0.6179  2.3078 -0.4621
 5596TIP3    H238280   1.241   3.594   0.408 -0.7085  0.2634 -0.1835
 5597TIP3   OH238281   0.322   1.449  18.294 -0.7297  0.3906  0.0504
 5597TIP3    H138282   0.408   1.476  18.326 -1.6774  2.1680  1.2244
 5597TIP3    H238283   0.269   1.438  18.372 -1.3277 -1.7783 -0.5895
 5598TIP3   OH238284   2.187   2.249  45.176  0.1746 -0.1635  0.7828
 5598TIP3    H138285   2.165   2.277  45.265  1.4641  0.9196  0.8034
 5598TIP3    H238286   2.283   2.242  45.176  0.0420 -4.2301  0.6037
 5599TIP3   OH238287   3.956   2.663  15.371 -0.1650 -0.4990 -0.2890
 5599TIP3    H138288   3.871   2.655  15.414 -0.2074 -0.7172 -0.4123
 5599TIP3    H238289   3.950   2.745  15.322 -0.2157 -0.3903 -0.1034
 5600TIP3   OH238290   3.671   1.974  19.244 -0.0453 -0.1001  0.6883
 5600TIP3    H138291   3.677   1.883  19.272  1.7363 -0.1788  0.1591
 5600TIP3    H238292   3.595   1.976  19.186 -0.1075 -1.2515  0.7095
 5601TIP3   OH238293   2.620   2.980  40.169  0.1565  0.4264 -0.4854
 5601TIP3    H138294   2.635   2.888  40.147 -1.3372  0.2575 -0.8884
 5601TIP3    H238295   2.561   2.977  40.244  0.5077  1.0603 -0.1766
 5602TIP3   OH238296   0.083   0.845  45.181 -0.7367 -0.3010 -0.0258
 5602TIP3    H138297  -0.010   0.823  45.191 -0.9335  0.6260  0.2588
 5602TIP3    H238298   0.126   0.803  45.255 -1.2810  1.2025  1.1959
 5603TIP3   OH238299   0.125   1.060  11.923 -0.3841 -0.6344  0.0225
 5603TIP3    H138300   0.068   1.013  11.984 -2.4021 -0.4099 -1.5676
 5603TIP3    H238301   0.174   0.991  11.878 -1.5951 -1.0953 -0.6372
 5604TIP3   OH238302   3.455   3.381  46.888 -0.3308 -0.2244 -0.3310
 5604TIP3    H138303   3.483   3.378  46.979  0.7537 -0.2988 -0.6557
 5604TIP3    H238304   3.534   3.361  46.838 -0.3302  2.1766 -1.4038
 5605TIP3   OH238305   2.880   3.281  30.311  0.0707  0.3154 -0.1075
 5605TIP3    H138306   2.887   3.215  30.241 -0.0467  0.4382 -0.2387
 5605TIP3    H238307   2.799   3.328  30.289  1.3569  2.0521 -1.3603
 5606TIP3   OH238308   3.832   2.660  11.317 -0.2226  0.3126  0.7769
 5606TIP3    H138309   3.865   2.749  11.304  1.1082 -0.0238  1.6375
 5606TIP3    H238310   3.838   2.620  11.231 -0.1846  0.8558  0.5197
 5607TIP3   OH238311   1.626   1.413  42.162  0.3793 -0.0729 -0.4610
 5607TIP3    H138312   1.534   1.431  42.140  0.7701  1.6446 -0.8521
 5607TIP3    H238313   1.636   1.319  42.148 -1.4935 -0.4240  0.2805
 5608TIP3   OH238314   0.996   1.373   5.573  0.3980  0.7904  0.5869
 5608TIP3    H138315   1.026   1.463   5.580  0.0630  0.9889 -0.3513
 5608TIP3    H238316   1.070   1.326   5.534  0.3611  0.7782  0.5319
 5609TIP3   OH238317   2.963   1.929  31.784 -0.0992  0.2903 -0.0021
 5609TIP3    H138318   2.935   1.921  31.875 -2.2034  1.7154 -0.4515
 5609TIP3    H238319   3.058   1.939  31.788  0.0935 -1.5329  1.8687
 5610TIP3   OH238320   2.360   2.301  16.703  0.3462 -0.8336  0.6294
 5610TIP3    H138321   2.400   2.270  16.784  1.7520  0.5825  0.5175
 5610TIP3    H238322   2.403   2.249  16.634  0.0881 -1.1238  0.6826
 5611TIP3   OH238323   2.617   3.031   2.990 -0.2961 -0.5143  0.4087
 5611TIP3    H138324   2.692   3.086   2.966  0.7862 -2.0551  0.0492
 5611TIP3    H238325   2.552   3.048   2.922  1.6857 -2.7827 -2.3470
 5612TIP3   OH238326   0.242   3.124  44.603 -0.0409 -0.6405  0.2559
 5612TIP3    H138327   0.284   3.049  44.561  1.0869 -1.1628  2.1962
 5612TIP3    H238328   0.201   3.172  44.531  2.4378 -1.0484 -1.5691
 5613TIP3   OH238329   0.474   3.053  38.950  0.2804 -0.0653 -0.4068
 5613TIP3    H138330   0.398   3.013  38.908  0.2005 -2.1832  1.6023
 5613TIP3    H238331   0.441   3.087  39.033  1.1849  0.5725 -0.2971
 5614TIP3   OH238332   1.185   2.736  43.302 -0.3535  0.4633  0.1884
 5614TIP3    H138333   1.104   2.788  43.304 -0.2115  0.7469 -0.8814
 5614TIP3    H238334   1.209   2.732  43.209  0.4385 -0.2846  0.4126
 5615TIP3   OH238335   1.586   3.058   6.422 -0.1744 -0.1158 -0.3820
 5615TIP3    H138336   1.645   3.003   6.371 -0.1888 -0.1860 -0.3234
 5615TIP3    H238337   1.631   3.142   6.429  0.1743 -0.3406  0.1406
 5616TIP3   OH238338   0.622   0.663  34.170 -0.6175  0.3079  0.2354
 5616TIP3    H138339   0.561   0.733  34.149 -0.3024  0.9264  1.3248
 5616TIP3    H238340   0.708   0.704  34.169 -0.5390  0.3176  2.2692
 5617TIP3   OH238341   3.597   2.717   9.893  0.8774  0.3684 -0.3588
 5617TIP3    H138342   3.693   2.712   9.887  1.0542  1.7308  0.7077
 5617TIP3    H238343   3.573   2.778   9.823  1.0040  1.5051  0.5645
 5618TIP3   OH238344   1.885   0.752   2.358  0.4622 -0.0775 -0.6056
 5618TIP3    H138345   1.896   0.666   2.396  1.7117  1.1252  2.0125
 5618TIP3    H238346   1.937   0.750   2.278  1.5933 -1.3376  0.1290
 5619TIP3   OH238347   1.084   1.408   8.446 -0.0512 -0.0972 -0.1788
 5619TIP3    H138348   1.086   1.458   8.365 -1.8125 -0.7433 -0.6731
 5619TIP3    H238349   1.036   1.328   8.424  1.3770 -1.3501  0.9532
 5620TIP3   OH238350   1.771   3.663   0.494  0.6907 -0.1857 -0.0269
 5620TIP3    H138351   1.715   3.605   0.442 -0.3167  0.6373  0.1114
 5620TIP3    H238352   1.832   3.604   0.538 -1.4746 -1.3794  1.5741
 5621TIP3   OH238353   1.243   3.602   4.193 -0.3341  0.6189  0.2306
 5621TIP3    H138354   1.312   3.652   4.149  0.4908  0.0706  0.8932
 5621TIP3    H238355   1.180   3.669   4.221  0.7752  1.3199  1.1475
 5622TIP3   OH238356   1.131   3.565  35.719  0.3526 -0.1144  0.0777
 5622TIP3    H138357   1.177   3.521  35.790  1.6159  0.6150 -0.2550
 5622TIP3    H238358   1.153   3.514  35.641  0.9621  0.4590 -0.1415
 5623TIP3   OH238359   1.241   1.117  15.415  0.2248  0.0475 -0.2423
 5623TIP3    H138360   1.214   1.027  15.398 -2.1653  0.7096 -0.3190
 5623TIP3    H238361   1.224   1.131  15.508  0.7745  0.3459 -0.1840
 5624TIP3   OH238362   3.123   3.490  27.438  0.8450 -0.4677  0.1362
 5624TIP3    H138363   3.113   3.482  27.344 -1.6999  1.1806  0.1883
 5624TIP3    H238364   3.185   3.562  27.450  0.5291 -0.1347 -0.2575
 5625TIP3   OH238365   2.141   1.898  40.876 -0.0102 -0.7044 -0.1883
 5625TIP3    H138366   2.170   1.809  40.896 -0.7204 -1.0708 -0.7288
 5625TIP3    H238367   2.058   1.908  40.923 -0.2807 -0.5796 -0.6797
 5626TIP3   OH238368   3.021   2.739  13.593 -0.4747  0.8625  0.3049
 5626TIP3    H138369   3.107   2.742  13.635 -1.3101  0.6433  2.1443
 5626TIP3    H238370   2.962   2.779  13.657 -1.8360  0.4762 -0.6676
 5627TIP3   OH238371   3.447   3.835  11.723 -0.4116 -0.0887 -0.2634
 5627TIP3    H138372   3.363   3.878  11.739 -0.7045 -0.0005 -1.8823
 5627TIP3    H238373   3.471   3.861  11.634  0.6322 -1.2706 -0.3599
 5628TIP3   OH238374   2.037   2.381  19.205 -0.0359  0.5145  0.2596
 5628TIP3    H138375   2.131   2.395  19.194  0.2371 -1.4458 -0.4149
 5628TIP3    H238376   1.996   2.429  19.133  0.5938  0.0276 -0.4337
 5629TIP3   OH238377   2.647   1.435  17.681 -0.6562  0.1070 -0.1176
 5629TIP3    H138378   2.630   1.341  17.673 -1.1666  0.3074 -1.7891
 5629TIP3    H238379   2.613   1.458  17.767 -0.8371 -1.1719  0.1795
 5630TIP3   OH238380   2.691   1.373  15.689 -0.0136 -0.2663 -0.2660
 5630TIP3    H138381   2.776   1.360  15.646  0.9734 -0.6381  1.6538
 5630TIP3    H238382   2.654   1.285  15.696 -0.1783 -0.2050 -0.3723
 5631TIP3   OH238383   2.389   0.373   7.350  0.1494 -0.0829  0.4815
 5631TIP3    H138384   2.306   0.327   7.337 -0.0650  0.0164  1.4287
 5631TIP3    H238385   2.412   0.406   7.264 -0.5091 -0.5936  0.0987
 5632TIP3   OH238386   2.894   1.808  36.695 -0.3456  0.6356 -0.6833
 5632TIP3    H138387   2.938   1.865  36.631 -0.1404  0.0842 -1.0366
 5632TIP3    H238388   2.864   1.868  36.764 -0.7762  1.2640 -1.4090
 5633TIP3   OH238389   3.626   0.273   4.618  0.3184  0.2781  0.1488
 5633TIP3    H138390   3.643   0.199   4.559  0.4834 -0.8754  1.5699
 5633TIP3    H238391   3.700   0.271   4.679 -0.0651  1.1758  0.6552
 5634TIP3   OH238392   2.687   1.554  40.325 -0.4791 -0.0187 -0.2840
 5634TIP3    H138393   2.603   1.593  40.299 -0.4580 -0.6690 -1.4032
 5634TIP3    H238394   2.665   1.465  40.352 -0.1134 -0.3203 -0.9507
 5635TIP3   OH238395   0.956   0.430   3.631  0.0191  0.1480  0.3994
 5635TIP3    H138396   1.027   0.428   3.567 -1.5025  0.2774 -1.3639
 5635TIP3    H238397   0.914   0.344   3.623  0.0318  0.0286  1.4983
 5636TIP3   OH238398   0.864   2.161  12.684  0.2192 -0.2187  0.2620
 5636TIP3    H138399   0.948   2.153  12.729  0.2460 -1.3826  0.0276
 5636TIP3    H238400   0.867   2.247  12.642  1.1840 -0.1502  0.4626
 5637TIP3   OH238401   4.060   0.900   8.055  0.1503 -0.6182 -0.2776
 5637TIP3    H138402   3.994   0.957   8.095  1.6088  1.1228 -0.2102
 5637TIP3    H238403   4.010   0.829   8.016 -1.6295 -0.2543  1.1865
 5638TIP3   OH238404   1.157   3.617  31.422 -0.3799  0.5362  0.1793
 5638TIP3    H138405   1.076   3.644  31.466 -1.1295  1.5913 -1.7193
 5638TIP3    H238406   1.136   3.531  31.385 -0.2870  0.3456  0.5742
 5639TIP3   OH238407   0.907   1.069  39.118 -0.7223 -0.0289 -0.2386
 5639TIP3    H138408   0.924   1.026  39.201  2.2020  1.8623  0.2906
 5639TIP3    H238409   0.860   1.149  39.142 -3.6050 -1.3923 -0.9350
 5640TIP3   OH238410   3.202   1.613  43.353 -0.1763 -0.7988  0.4051
 5640TIP3    H138411   3.175   1.563  43.276  1.5104 -1.7978  0.3959
 5640TIP3    H238412   3.123   1.620  43.406 -0.8492 -2.0595 -0.3810
 5641TIP3   OH238413   1.168   3.722  38.093  0.1854  0.0045 -0.3262
 5641TIP3    H138414   1.148   3.738  38.001 -1.6234  0.5905  0.1297
 5641TIP3    H238415   1.149   3.805  38.137  3.3157  0.5123  0.3066
 5642TIP3   OH238416   1.024   3.657   5.476 -0.3792  0.2917  0.2479
 5642TIP3    H138417   1.081   3.642   5.401 -2.1344  0.2337 -1.1396
 5642TIP3    H238418   1.062   3.733   5.521  0.5297  0.5324 -0.8939
 5643TIP3   OH238419   0.262   0.639  25.802 -0.0688 -0.3245  0.6981
 5643TIP3    H138420   0.254   0.717  25.747 -1.8964 -0.1235  1.1606
 5643TIP3    H238421   0.353   0.611  25.792  0.7199  2.0291  0.7542
 5644TIP3   OH238422   2.194   0.428  45.583  0.0299  0.1482 -1.0941
 5644TIP3    H138423   2.127   0.367  45.616  1.2180 -1.6973 -1.9436
 5644TIP3    H238424   2.144   0.505  45.557 -1.2126  1.0407  3.1671
 5645TIP3   OH238425   1.951   3.785  39.551  0.1927 -0.5617  0.1976
 5645TIP3    H138426   1.922   3.773  39.642  1.4706 -1.6283  0.4990
 5645TIP3    H238427   1.975   3.877  39.545 -1.4466 -0.0885  0.4539
 5646TIP3   OH238428   3.925   1.357   0.874  0.5675  0.4578 -0.3429
 5646TIP3    H138429   3.881   1.343   0.958  0.1153  1.3436 -0.4193
 5646TIP3    H238430   4.018   1.346   0.893  0.5424  1.4704  0.4703
 5647TIP3   OH238431   3.626   2.799  33.149  0.1387  0.4263  0.0886
 5647TIP3    H138432   3.646   2.723  33.095  0.3546 -0.8464  1.8762
 5647TIP3    H238433   3.682   2.868  33.116  1.2418 -0.6949 -0.4532
 5648TIP3   OH238434   3.949   2.128  44.796  0.5793 -0.2642 -0.0628
 5648TIP3    H138435   4.004   2.174  44.732  0.3375  0.4673  0.2489
 5648TIP3    H238436   4.010   2.100  44.864  0.3341  2.5848  1.4959
 5649TIP3   OH238437   3.336   3.739  46.154 -0.3283 -0.4111 -0.2509
 5649TIP3    H138438   3.295   3.742  46.068 -0.2223  1.0542 -0.2695
 5649TIP3    H238439   3.429   3.750  46.137 -0.3313  0.1177  0.0636
 5650TIP3   OH238440   0.761   1.987  11.405 -0.4737 -0.3499  0.4462
 5650TIP3    H138441   0.758   1.933  11.326 -0.1585  0.8867 -0.4382
 5650TIP3    H238442   0.798   2.071  11.376 -0.9044  0.3380  1.7883
 5651TIP3   OH238443   1.629   3.360  46.624 -0.0593 -0.0001  0.0114
 5651TIP3    H138444   1.702   3.421  46.613 -1.0438  1.5192  1.4431
 5651TIP3    H238445   1.610   3.329  46.536  0.3861  1.8965 -0.7996
 5652TIP3   OH238446   1.541   3.262  45.626 -0.3191  0.3240 -0.4106
 5652TIP3    H138447   1.568   3.305  45.545  1.0692  0.5929  0.1620
 5652TIP3    H238448   1.622   3.235  45.667 -0.7464  2.4647  2.1160
 5653TIP3   OH238449   1.918   1.114  16.005  0.4582 -0.3546  0.3723
 5653TIP3    H138450   1.892   1.162  16.084 -0.8099 -0.6919  0.1752
 5653TIP3    H238451   1.980   1.049  16.036  0.1040 -0.3680  1.0716
 5654TIP3   OH238452   1.550   3.276  40.431 -0.2077 -0.2031 -0.4761
 5654TIP3    H138453   1.496   3.205  40.467 -1.3974  1.2644  0.7581
 5654TIP3    H238454   1.637   3.260  40.468 -0.0697 -1.8075 -1.3818
 5655TIP3   OH238455   1.133   3.440  43.319  0.5260  0.2367  0.0570
 5655TIP3    H138456   1.115   3.438  43.412  1.1167  3.5534  0.3502
 5655TIP3    H238457   1.055   3.402  43.278 -0.7885  0.9211  1.8174
 5656TIP3   OH238458   2.845   1.558  32.858  0.7290  0.3143  0.0189
 5656TIP3    H138459   2.870   1.647  32.881 -0.1103  0.3502  0.8855
 5656TIP3    H238460   2.859   1.552  32.763  1.4358  1.1400  0.0642
 5657TIP3   OH238461   3.266   1.749  45.125 -0.4560 -0.4135  0.6338
 5657TIP3    H138462   3.250   1.686  45.055 -0.4743 -0.1061  0.3581
 5657TIP3    H238463   3.342   1.799  45.096 -0.3649 -0.3920  0.9058
 5658TIP3   OH238464   2.540   2.712  30.568 -0.2646 -0.0201  0.1758
 5658TIP3    H138465   2.450   2.708  30.537 -0.7613 -0.5424  1.5905
 5658TIP3    H238466   2.593   2.717  30.488 -1.4413 -1.4760 -0.7495
 5659TIP3   OH238467   2.823   2.371  13.673  0.3027  0.0154  0.0160
 5659TIP3    H138468   2.918   2.381  13.662  0.3947  0.0673  0.8275
 5659TIP3    H238469   2.806   2.396  13.764 -0.0137 -3.3064  0.9916
 5660TIP3   OH238470   1.163   0.951   0.399  0.2139 -0.4202  0.3046
 5660TIP3    H138471   1.194   0.950   0.489  0.9625  1.8081  0.1349
 5660TIP3    H238472   1.081   1.000   0.401  0.7254  0.4926 -0.3352
 5661TIP3   OH238473   4.057   3.925  32.339  0.0400 -0.4405 -0.1209
 5661TIP3    H138474   3.999   3.850  32.329  1.1205 -1.2007 -0.9171
 5661TIP3    H238475   3.999   3.996  32.366 -1.0169 -1.5295  0.6088
 5662TIP3   OH238476   0.180   1.128  41.422 -0.5368 -0.3836 -0.1084
 5662TIP3    H138477   0.260   1.178  41.405 -1.0918  0.1456 -1.3066
 5662TIP3    H238478   0.186   1.052  41.365 -1.6934  0.5887 -1.6062
 5663TIP3   OH238479   1.502   3.508  36.120 -0.0193 -0.1391 -0.2116
 5663TIP3    H138480   1.549   3.592  36.118 -0.1385 -0.0465  0.4118
 5663TIP3    H238481   1.434   3.516  36.053  1.5739 -0.7253 -1.9515
 5664TIP3   OH238482   2.360   0.624  32.456 -0.5682 -0.5612  0.0461
 5664TIP3    H138483   2.336   0.535  32.480  0.5923 -1.3115 -1.3881
 5664TIP3    H238484   2.278   0.672  32.457 -1.5687 -2.1494 -1.1921
 5665TIP3   OH238485   2.070   1.892  19.021  0.2142 -0.3881 -0.7803
 5665TIP3    H138486   2.120   1.970  19.046 -0.3317 -0.4194  0.5047
 5665TIP3    H238487   1.986   1.902  19.067  0.2630 -1.8976 -0.3329
 5666TIP3   OH238488   2.213   3.458   3.823 -0.5036  0.0957  0.4457
 5666TIP3    H138489   2.211   3.401   3.900 -0.3140 -0.1652  0.2618
 5666TIP3    H238490   2.121   3.477   3.806 -0.6763 -1.1422 -0.1928
 5667TIP3   OH238491   1.191   2.650  41.888 -0.1259 -0.1011 -0.1464
 5667TIP3    H138492   1.138   2.587  41.937 -0.8936  0.2141 -0.5554
 5667TIP3    H238493   1.232   2.598  41.819 -0.0981 -0.2996  0.0184
 5668TIP3   OH238494   0.547   0.478  12.261 -0.3736  0.0616  0.2504
 5668TIP3    H138495   0.499   0.410  12.214 -0.7001  1.4499 -1.5514
 5668TIP3    H238496   0.482   0.519  12.318 -0.8883  0.5939 -0.6789
 5669TIP3   OH238497   2.371   0.129  43.221  0.6841 -0.5295 -1.0318
 5669TIP3    H138498   2.341   0.200  43.165 -0.1411 -0.7003 -0.8214
 5669TIP3    H238499   2.317   0.137  43.300  1.3087 -0.7548 -0.5743
 5670TIP3   OH238500   2.893   0.759  25.238 -0.0084 -0.2448  0.1140
 5670TIP3    H138501   2.985   0.776  25.216 -0.0755  2.4343  1.5401
 5670TIP3    H238502   2.885   0.663  25.232  2.1877 -0.3976 -2.4693
 5671TIP3   OH238503   3.893   2.786  37.319 -0.8717 -0.0269 -0.6848
 5671TIP3    H138504   3.871   2.813  37.408  0.2893 -0.1360 -0.3427
 5671TIP3    H238505   3.833   2.835  37.263 -1.9346 -0.3135  0.1716
 5672TIP3   OH238506   0.389   0.931  38.820 -0.4510 -0.3074 -0.6972
 5672TIP3    H138507   0.390   0.853  38.765 -0.9607 -1.1307  0.4223
 5672TIP3    H238508   0.464   0.983  38.790  1.4177 -2.3704  0.1327
 5673TIP3   OH238509   0.646   3.230  42.076  0.1812 -0.3628  0.4671
 5673TIP3    H138510   0.648   3.181  42.158 -1.7321 -0.4227  0.5388
 5673TIP3    H238511   0.694   3.175  42.014  1.3779 -0.4649  1.4425
 5674TIP3   OH238512   0.372   3.147  12.989 -0.9441 -0.0121 -0.3183
 5674TIP3    H138513   0.357   3.240  12.975 -1.6169  0.2541  1.8105
 5674TIP3    H238514   0.284   3.110  13.000 -0.6577 -0.7933 -0.6020
 5675TIP3   OH238515   4.072   3.483  10.745 -0.2569 -0.1846  0.0287
 5675TIP3    H138516   4.073   3.387  10.738  0.1592 -0.2161  0.4015
 5675TIP3    H238517   4.144   3.512  10.688 -0.7413 -0.0547 -0.5236
 5676TIP3   OH238518   0.374   0.555  37.411 -0.7713  0.2347 -0.2365
 5676TIP3    H138519   0.450   0.557  37.354  1.4791  0.4237  2.5379
 5676TIP3    H238520   0.381   0.471  37.457 -2.0722  0.4007  0.3166
 5677TIP3   OH238521   0.390   2.179  39.032  0.0525 -0.1943  0.1508
 5677TIP3    H138522   0.392   2.222  38.947  1.6182  0.9354  0.7015
 5677TIP3    H238523   0.319   2.116  39.026  0.5914 -0.6740 -2.2310
 5678TIP3   OH238524   3.569   3.583  14.562 -0.2913 -0.5499 -0.3064
 5678TIP3    H138525   3.555   3.673  14.594  0.1536 -1.0336  1.3298
 5678TIP3    H238526   3.538   3.527  14.633 -1.1536 -1.7382 -1.5615
 5679TIP3   OH238527   1.437   3.714  12.728  0.0002  0.0817 -0.1065
 5679TIP3    H138528   1.499   3.710  12.801  0.1439  0.5384 -0.2031
 5679TIP3    H238529   1.462   3.641  12.672  0.9723  0.7546 -0.5581
 5680TIP3   OH238530   0.538   1.082   2.669  0.2110  0.6644  0.0473
 5680TIP3    H138531   0.513   1.016   2.604  0.3651  1.1815 -0.5596
 5680TIP3    H238532   0.457   1.131   2.684 -0.3858 -0.7897  1.9031
 5681TIP3   OH238533   1.370   3.908  28.147 -0.2541  0.7694 -0.2154
 5681TIP3    H138534   1.411   3.992  28.168 -0.4096  1.4058 -2.2354
 5681TIP3    H238535   1.289   3.932  28.101  0.5673 -0.4123 -2.4585
 5682TIP3   OH238536   4.093   0.120   6.459 -0.3406  0.4922  0.4986
 5682TIP3    H138537   4.133   0.039   6.490  0.7746  0.9681  0.3638
 5682TIP3    H238538   4.017   0.133   6.515  0.4456  0.2440  1.6510
 5683TIP3   OH238539   3.883   1.462   0.366 -0.3208 -0.4865 -0.2697
 5683TIP3    H138540   3.817   1.395   0.347 -0.0103 -1.4193  1.7420
 5683TIP3    H238541   3.963   1.430   0.325 -0.4416 -0.7706 -0.2834
 5684TIP3   OH238542   1.595   0.799  11.104 -0.0188 -0.1058 -0.3206
 5684TIP3    H138543   1.550   0.858  11.044  0.0694 -0.6273 -0.9186
 5684TIP3    H238544   1.549   0.809  11.187  0.4093  1.2733 -0.2340
 5685TIP3   OH238545   3.525   3.042  36.281  0.0616  0.1375  0.0162
 5685TIP3    H138546   3.565   2.967  36.237 -1.4970  0.3472 -1.9041
 5685TIP3    H238547   3.565   3.043  36.368  2.9839 -0.5756 -1.2006
 5686TIP3   OH238548   2.158   2.991  32.579 -0.3171  0.1003 -0.2008
 5686TIP3    H138549   2.143   3.074  32.626  0.1798 -0.2339  0.5636
 5686TIP3    H238550   2.217   3.015  32.508 -1.9366  0.8278 -1.3632
 5687TIP3   OH238551   3.347   0.337  38.165  0.5584  0.1461 -0.0332
 5687TIP3    H138552   3.406   0.335  38.241  0.7590 -0.1680 -0.1970
 5687TIP3    H238553   3.354   0.249  38.127  1.0054  0.5196 -0.8335
 5688TIP3   OH238554   3.720   1.895  34.961  0.3499 -0.1464  0.7599
 5688TIP3    H138555   3.670   1.877  35.040  0.0768  0.2151  0.6716
 5688TIP3    H238556   3.654   1.904  34.892  0.5267  0.4794  0.6736
 5689TIP3   OH238557   2.043   3.199   7.872 -0.5204 -0.4897 -0.1487
 5689TIP3    H138558   2.033   3.241   7.957 -0.2020 -0.8632  0.0701
 5689TIP3    H238559   2.070   3.110   7.891  0.7788 -0.2304 -0.6664
 5690TIP3   OH238560   1.326   1.310   2.145 -0.0101 -0.5654  0.6619
 5690TIP3    H138561   1.406   1.353   2.114 -1.0500  0.2925 -0.9298
 5690TIP3    H238562   1.295   1.259   2.071 -1.5221 -0.0345  0.8971
 5691TIP3   OH238563   1.015   2.258   5.174  0.4439  0.0922  0.0923
 5691TIP3    H138564   0.997   2.279   5.266  0.9596  2.4261 -0.2858
 5691TIP3    H238565   1.083   2.319   5.149  0.4976 -0.6944 -1.8061
 5692TIP3   OH238566   0.074   1.568  18.153 -0.2143  0.2838  0.1910
 5692TIP3    H138567   0.169   1.582  18.150 -0.4418  1.9475 -0.8452
 5692TIP3    H238568   0.054   1.521  18.072 -0.1081 -1.4847  1.1606
 5693TIP3   OH238569   0.188   1.558   8.327 -0.3474  0.1288 -0.1802
 5693TIP3    H138570   0.101   1.591   8.351 -0.1384  1.0663 -0.6579
 5693TIP3    H238571   0.218   1.618   8.259 -1.0363 -2.5073 -3.0703
 5694TIP3   OH238572   3.801   2.423  37.094 -0.0185 -0.5577 -0.1290
 5694TIP3    H138573   3.780   2.514  37.071 -0.3915 -1.2154 -2.6890
 5694TIP3    H238574   3.854   2.392  37.021  0.8346 -2.1676  1.1146
 5695TIP3   OH238575   1.932   3.128  41.928  0.1600 -0.2395  0.8112
 5695TIP3    H138576   1.906   3.040  41.899 -0.3412  0.6124 -1.5577
 5695TIP3    H238577   2.024   3.136  41.902 -0.0095  0.1811  0.3137
 5696TIP3   OH238578   2.140   0.468   2.820  0.2705 -0.2700  0.0329
 5696TIP3    H138579   2.176   0.479   2.908 -0.5879 -1.8459  0.6133
 5696TIP3    H238580   2.144   0.556   2.782 -0.5972  0.7738  2.1336
 5697TIP3   OH238581   2.904   1.539   2.683 -0.5153 -0.1426 -0.0535
 5697TIP3    H138582   2.943   1.569   2.601 -0.9770  0.0962 -0.1892
 5697TIP3    H238583   2.978   1.530   2.743 -0.1723 -0.3400 -0.5028
 5698TIP3   OH238584   3.262   1.759  44.820 -0.0353  0.5220 -0.1479
 5698TIP3    H138585   3.252   1.854  44.819  0.2841  0.5681 -1.3890
 5698TIP3    H238586   3.172   1.726  44.817 -0.1310  0.8351 -1.8227
 5699TIP3   OH238587   2.259   3.273  45.951 -0.1902 -0.1447 -0.0545
 5699TIP3    H138588   2.242   3.293  46.044  0.3416 -0.0785  0.0332
 5699TIP3    H238589   2.233   3.352  45.904 -1.6595 -0.6299 -0.1018
 5700TIP3   OH238590   2.804   3.438  43.725  0.1040  0.0288 -0.0505
 5700TIP3    H138591   2.749   3.464  43.652 -1.1825 -0.4546  0.7217
 5700TIP3    H238592   2.762   3.361  43.762  1.8562 -0.9839 -0.0431
 5701TIP3   OH238593   0.435   2.446  41.012 -0.0329  0.0449  0.4478
 5701TIP3    H138594   0.496   2.479  40.945 -0.9290  0.2401 -0.2959
 5701TIP3    H238595   0.373   2.517  41.024  0.0679 -0.0279  1.4423
 5702TIP3   OH238596   2.558   2.870   3.611  0.6339  0.1678 -0.0081
 5702TIP3    H138597   2.602   2.870   3.695  1.0812  1.9186 -0.2025
 5702TIP3    H238598   2.558   2.962   3.584  1.3716 -0.4689 -2.3756
 5703TIP3   OH238599   2.054   0.903  11.119  0.3222 -0.4269 -0.4192
 5703TIP3    H138600   2.080   0.845  11.191 -0.2969 -0.9148 -0.5773
 5703TIP3    H238601   2.129   0.961  11.107 -0.1600  0.7343  1.6780
 5704TIP3   OH238602   2.785   2.752  35.363  0.2021  0.1184 -0.2616
 5704TIP3    H138603   2.842   2.748  35.287  0.6438  0.5292  0.0405
 5704TIP3    H238604   2.797   2.668  35.407  0.4487  0.1412 -0.2852
 5705TIP3   OH238605   1.193   0.701  46.195  0.0641 -0.0324  0.2421
 5705TIP3    H138606   1.157   0.640  46.260  0.8499  0.5817  1.2757
 5705TIP3    H238607   1.261   0.651  46.150 -1.5093 -0.9744 -1.2524
 5706TIP3   OH238608   2.563   3.122   3.577  0.1699 -0.1012  0.7236
 5706TIP3    H138609   2.511   3.189   3.621 -0.8376 -1.1738  1.2142
 5706TIP3    H238610   2.651   3.135   3.610 -0.2486  0.1963  1.7620
 5707TIP3   OH238611   0.026   3.787   3.719  0.2192 -0.2575  0.3434
 5707TIP3    H138612  -0.009   3.875   3.704 -2.4789 -1.3825 -0.4344
 5707TIP3    H238613   0.062   3.760   3.635  0.6377 -0.0772  0.4632
 5708TIP3   OH238614   2.476   1.962   7.726 -0.7306  0.1105 -0.1581
 5708TIP3    H138615   2.457   2.009   7.646  2.3236  0.5521 -0.7562
 5708TIP3    H238616   2.488   2.031   7.792  2.7241  0.2997 -0.8039
 5709TIP3   OH238617   2.111   2.010   5.418 -0.1541 -0.0755  0.9134
 5709TIP3    H138618   2.107   2.085   5.477 -0.7916  1.4152 -0.9357
 5709TIP3    H238619   2.019   1.988   5.400  0.0142  0.1732 -0.3218
 5710TIP3   OH238620   0.885   3.662   0.370  0.1405 -0.0208  0.5228
 5710TIP3    H138621   0.920   3.578   0.401 -0.1835 -0.7275 -0.9361
 5710TIP3    H238622   0.862   3.646   0.279  0.4055  1.7777  0.1089
 5711TIP3   OH238623   1.983   0.042   2.214  0.0144 -0.1233 -0.2102
 5711TIP3    H138624   2.074   0.074   2.219  0.2283 -0.6273 -0.7315
 5711TIP3    H238625   1.986  -0.026   2.147 -0.6023 -0.6684  0.3060
 5712TIP3   OH238626   0.804   2.757  43.073 -0.0715 -0.3750  0.1463
 5712TIP3    H138627   0.804   2.810  42.993  2.5992 -2.3413 -1.3267
 5712TIP3    H238628   0.722   2.708  43.069  0.1521 -0.6813 -1.6354
 5713TIP3   OH238629   0.877   3.390   5.158  0.7889  0.3568  0.3776
 5713TIP3    H138630   0.880   3.323   5.227 -0.8786  0.1786  0.3294
 5713TIP3    H238631   0.918   3.347   5.083 -2.3527 -1.6488 -0.3982
 5714TIP3   OH238632   1.817   3.832  33.657  0.2247 -0.0679 -0.1434
 5714TIP3    H138633   1.855   3.846  33.743  0.0707  1.8262 -0.3433
 5714TIP3    H238634   1.733   3.879  33.660 -1.9373 -3.5716  0.0774
 5715TIP3   OH238635   3.686   3.718   4.347 -0.2537  0.4308  0.5334
 5715TIP3    H138636   3.722   3.794   4.300  1.8779 -1.5710 -1.3819
 5715TIP3    H238637   3.598   3.745   4.372 -0.3135  2.8737 -1.7618
 5716TIP3   OH238638   3.936   1.952  35.630 -0.2946  0.2661 -0.4260
 5716TIP3    H138639   3.918   2.021  35.566 -0.2301  0.4747 -0.2210
 5716TIP3    H238640   3.914   1.991  35.715  2.7086  1.1609  0.0580
 5717TIP3   OH238641   3.413   3.464  43.290  0.1484 -0.0387  0.5682
 5717TIP3    H138642   3.357   3.440  43.216  0.2593  0.8459  0.1826
 5717TIP3    H238643   3.352   3.482  43.362  0.0867 -4.4088  1.9194
 5718TIP3   OH238644   2.698   1.899  20.643 -0.4701 -0.0427 -0.5128
 5718TIP3    H138645   2.684   1.933  20.555  0.5869 -0.5820 -0.9068
 5718TIP3    H238646   2.778   1.942  20.674 -1.2803  0.7736  0.5250
 5719TIP3   OH238647   0.500   3.849  29.915 -0.1160 -0.5233  0.1156
 5719TIP3    H138648   0.429   3.785  29.923 -1.2929  0.6815 -0.3814
 5719TIP3    H238649   0.540   3.851  30.003  0.1925 -2.1536  0.0590
 5720TIP3   OH238650   1.995   3.585  33.645  0.0623  0.1027 -0.2306
 5720TIP3    H138651   2.013   3.610  33.554  0.0254  3.3139  0.5191
 5720TIP3    H238652   1.947   3.659  33.681 -0.3146 -1.2701  2.3286
 5721TIP3   OH238653   1.737   0.045  31.069 -0.1574 -0.2714  0.2229
 5721TIP3    H138654   1.666   0.024  31.130  0.5538 -0.9743  0.8257
 5721TIP3    H238655   1.802   0.091  31.122 -0.1928  0.4538 -0.3474
 5722TIP3   OH238656   4.091   1.575  31.241  0.1303  0.2195 -0.0050
 5722TIP3    H138657   4.167   1.533  31.281  0.4091 -0.7313 -1.4380
 5722TIP3    H238658   4.078   1.655  31.291  0.6444 -0.7356  1.7307
 5723TIP3   OH238659   3.019   2.190   1.158  0.7474  0.4591  0.5566
 5723TIP3    H138660   3.051   2.175   1.069 -0.4500  0.3968  0.1206
 5723TIP3    H238661   3.009   2.102   1.195  0.2465  0.4397  0.3815
 5724TIP3   OH238662   3.492   0.079  25.879 -0.1320 -0.4631 -0.1171
 5724TIP3    H138663   3.425   0.129  25.833  1.4262 -0.2240 -2.2644
 5724TIP3    H238664   3.573   0.098  25.832  1.0784 -2.4611  1.0117
 5725TIP3   OH238665   1.385   1.603  12.287  0.2263  0.1925 -0.0668
 5725TIP3    H138666   1.352   1.649  12.209  2.3669 -0.7718 -1.6484
 5725TIP3    H238667   1.312   1.547  12.314 -0.3384  0.0135 -1.8378
 5726TIP3   OH238668   3.229   1.430  37.318  0.3272 -0.2310 -0.5259
 5726TIP3    H138669   3.194   1.442  37.406 -1.0659 -0.8432 -0.9711
 5726TIP3    H238670   3.167   1.372  37.275  2.2918 -1.9983 -1.1479
 5727TIP3   OH238671   3.809   3.710   4.972  0.6387 -0.2000 -0.0507
 5727TIP3    H138672   3.788   3.622   4.943 -0.7541  0.4044 -0.9510
 5727TIP3    H238673   3.779   3.714   5.063 -0.9165 -0.1361 -0.5445
 5728TIP3   OH238674   0.998   3.874   9.121  0.3711 -0.3321  0.0494
 5728TIP3    H138675   1.044   3.874   9.037 -0.6811  0.1566 -0.5418
 5728TIP3    H238676   0.915   3.829   9.103  0.7022 -1.4443  1.1628
 5729TIP3   OH238677   2.868   4.026  25.095  0.1930 -0.0995  0.3942
 5729TIP3    H138678   2.920   4.103  25.120 -0.6734  1.1217 -1.3244
 5729TIP3    H238679   2.807   4.015  25.167  1.0786  0.0888  1.2049
 5730TIP3   OH238680   3.068   0.017  27.298  0.1553  0.0538  0.7388
 5730TIP3    H138681   3.158   0.003  27.326 -0.2569  0.7380  2.5935
 5730TIP3    H238682   3.026  -0.069  27.306  0.8461 -0.4960 -1.1217
 5731TIP3   OH238683   3.102   3.140  44.923  0.5683  0.0829 -0.1730
 5731TIP3    H138684   3.184   3.116  44.968  0.1601 -0.7120  0.1643
 5731TIP3    H238685   3.050   3.061  44.925  0.3436  0.1656 -1.6593
 5732TIP3   OH238686   3.129   2.073  18.229  0.2933 -0.5082  0.4339
 5732TIP3    H138687   3.121   2.157  18.184 -1.0998 -1.7498 -1.7987
 5732TIP3    H238688   3.221   2.049  18.219  1.3708  1.7387  3.2330
 5733TIP3   OH238689   1.675   1.379  10.031 -0.2969  0.1462 -0.1165
 5733TIP3    H138690   1.583   1.371  10.009 -0.2407 -0.0933 -0.2737
 5733TIP3    H238691   1.677   1.431  10.111 -0.6747 -1.1600  0.7850
 5734TIP3   OH238692   3.712   2.189  17.973 -0.0835 -0.2299  0.0248
 5734TIP3    H138693   3.687   2.278  17.999  0.7764  0.3335 -1.0366
 5734TIP3    H238694   3.636   2.156  17.925 -0.4720 -0.1429  0.5682
 5735TIP3   OH238695   0.760   3.630  31.063  0.1922 -0.4027  0.4846
 5735TIP3    H138696   0.849   3.600  31.083 -1.0448 -3.5429  2.0877
 5735TIP3    H238697   0.733   3.575  30.990 -0.9681 -0.7600  1.1597
 5736TIP3   OH238698   2.906   0.061  45.062  0.3898  0.4788  0.3628
 5736TIP3    H138699   2.994   0.092  45.082 -0.4641  1.6499  2.7881
 5736TIP3    H238700   2.871   0.032  45.147 -2.0240  1.3971 -0.2160
 5737TIP3   OH238701   4.009   2.575  13.407  0.0587  0.8549  0.4969
 5737TIP3    H138702   4.081   2.639  13.405 -0.2036  1.2181  1.7825
 5737TIP3    H238703   4.052   2.490  13.405  0.4857  1.0686  0.4122
 5738TIP3   OH238704   3.583   1.301  11.572  0.9370 -0.0405 -0.2247
 5738TIP3    H138705   3.638   1.329  11.646  0.9575  2.4268 -1.0752
 5738TIP3    H238706   3.498   1.281  11.612  0.8115  1.6925  0.4673
 5739TIP3   OH238707   4.036   3.621  34.826  0.1525 -0.8632  0.1218
 5739TIP3    H138708   4.089   3.647  34.750  1.2920 -0.2607  1.0845
 5739TIP3    H238709   3.974   3.692  34.838 -0.1333 -1.0333 -0.3303
 5740TIP3   OH238710   0.178   3.918   8.429 -0.0276 -0.2975 -0.4847
 5740TIP3    H138711   0.161   3.950   8.517 -1.3016  1.1507 -1.2062
 5740TIP3    H238712   0.225   3.836   8.442 -1.7168 -1.0348  1.5529
 5741TIP3   OH238713   1.474   0.477  34.772  0.0134  0.4327 -0.2276
 5741TIP3    H138714   1.550   0.449  34.825  0.4133  0.3004 -0.8591
 5741TIP3    H238715   1.398   0.453  34.826  0.3999 -0.1299  0.0879
 5742TIP3   OH238716   3.153   1.264  45.119 -0.4409 -0.3574 -0.0119
 5742TIP3    H138717   3.061   1.270  45.092 -0.9029  0.2446  1.5875
 5742TIP3    H238718   3.192   1.204  45.056 -2.0419 -1.0296 -0.4243
 5743TIP3   OH238719   2.695   1.261  45.221 -0.1300  0.0825 -0.2503
 5743TIP3    H138720   2.704   1.280  45.315 -2.9346 -0.4930  0.2148
 5743TIP3    H238721   2.651   1.176  45.218  0.8905 -0.4353 -2.1499
 5744TIP3   OH238722   2.184   0.235  13.830 -0.0514 -0.2792  0.2968
 5744TIP3    H138723   2.198   0.222  13.923 -1.0317  0.9290  0.6485
 5744TIP3    H238724   2.095   0.205  13.814  0.8204 -2.5749 -0.7443
 5745TIP3   OH238725   3.175   2.471   5.602 -0.5108 -0.1409  0.3063
 5745TIP3    H138726   3.221   2.555   5.593  1.6922 -1.4141 -1.3349
 5745TIP3    H238727   3.215   2.430   5.679 -0.9204 -0.0779  0.5536
 5746TIP3   OH238728   0.675   2.928  14.423 -0.6394  0.0275  0.3152
 5746TIP3    H138729   0.729   2.925  14.502 -0.7776 -0.7314  0.3893
 5746TIP3    H238730   0.676   3.020  14.397  2.4479 -0.2285 -0.8881
 5747TIP3   OH238731   1.603   3.632  45.713 -0.4070  0.4173 -0.7371
 5747TIP3    H138732   1.643   3.704  45.664  0.0159  0.3985 -0.4333
 5747TIP3    H238733   1.527   3.607  45.662  0.6048 -0.3228 -1.9520
 5748TIP3   OH238734   3.103   2.575  34.387 -0.1645  0.0995  0.4888
 5748TIP3    H138735   3.155   2.526  34.450  2.6432  0.7149 -1.1672
 5748TIP3    H238736   3.144   2.662  34.384  1.1034 -0.4213 -3.3764
 5749TIP3   OH238737   0.341   2.531  41.317 -0.1863 -0.5801 -0.1807
 5749TIP3    H138738   0.418   2.570  41.357  1.0123 -1.3500 -1.6634
 5749TIP3    H238739   0.329   2.579  41.235 -1.0285 -0.7582 -0.1754
 5750TIP3   OH238740   2.528   3.977  36.703  0.0184  0.0859 -0.3768
 5750TIP3    H138741   2.526   3.904  36.642  2.4750 -0.6961  0.3627
 5750TIP3    H238742   2.589   4.040  36.664  1.8893 -0.5750  1.3137
 5751TIP3   OH238743   2.461   0.211   3.732  0.0379  0.4115  0.0897
 5751TIP3    H138744   2.487   0.130   3.687  0.7577  1.2205 -0.9826
 5751TIP3    H238745   2.369   0.222   3.709 -0.4633 -0.7895  1.3393
 5752TIP3   OH238746   1.519   3.311  42.438  0.2024 -0.0950  0.3099
 5752TIP3    H138747   1.517   3.225  42.481 -0.1384 -0.5255 -0.5594
 5752TIP3    H238748   1.512   3.292  42.345 -0.5188  0.9118  0.1439
 5753TIP3   OH238749   3.762   3.296  36.268  0.7186  0.0565  0.6031
 5753TIP3    H138750   3.675   3.267  36.296 -0.6385  2.6981 -0.4435
 5753TIP3    H238751   3.788   3.361  36.334  2.1509 -1.0351  1.1554
 5754TIP3   OH238752   0.215   1.882   2.832 -0.5486  0.6288  0.2599
 5754TIP3    H138753   0.234   1.913   2.920 -2.6293  1.1741  0.5619
 5754TIP3    H238754   0.299   1.852   2.798  0.3927  0.9636  2.2026
 5755TIP3   OH238755   0.619   1.435  46.039  0.6828 -0.0145 -0.3734
 5755TIP3    H138756   0.559   1.502  46.070 -1.1020  0.3798 -4.0605
 5755TIP3    H238757   0.587   1.353  46.077  0.2090  0.6628  0.7282
 5756TIP3   OH238758   2.721   0.144   0.209  0.3142  0.1378  0.1731
 5756TIP3    H138759   2.708   0.167   0.301  1.8574 -2.3748  1.1168
 5756TIP3    H238760   2.735   0.227   0.165  0.7694  1.3237  2.4171
 5757TIP3   OH238761   2.048   3.098  45.395 -0.6072 -0.5002  0.3049
 5757TIP3    H138762   1.980   3.048  45.440 -0.9895 -0.5752 -0.3476
 5757TIP3    H238763   2.121   3.101  45.457 -1.5405  0.4066  1.4166
 5758TIP3   OH238764   0.689   3.965  35.580 -0.1088  0.5858 -0.2837
 5758TIP3    H138765   0.782   3.950  35.562  0.1483  0.3512  1.1242
 5758TIP3    H238766   0.684   3.971  35.676 -1.7370 -0.6883 -0.2531
 5759TIP3   OH238767   3.383   2.581  11.965 -0.2458 -0.3431  0.0099
 5759TIP3    H138768   3.415   2.513  12.025  2.3333  0.8424  0.1250
 5759TIP3    H238769   3.455   2.594  11.903 -1.4284  0.9806 -1.1546
 5760TIP3   OH238770   3.435   1.882  31.915  0.2812  0.4638 -0.1556
 5760TIP3    H138771   3.413   1.828  31.991  0.3698  0.7528  0.0733
 5760TIP3    H238772   3.461   1.966  31.951  2.3433 -0.0368 -0.3894
 5761TIP3   OH238773   3.997   3.928   7.860 -0.4076 -1.1447 -0.3175
 5761TIP3    H138774   3.973   3.845   7.818  0.1053 -1.5709  0.2203
 5761TIP3    H238775   4.032   3.980   7.788 -0.4895 -1.4862 -0.6143
 5762TIP3   OH238776   0.008   3.049  34.693  0.0654  0.2461  0.3779
 5762TIP3    H138777   0.052   3.123  34.735  2.2928 -0.4153 -0.6110
 5762TIP3    H238778   0.013   3.067  34.599 -1.0955 -0.2479  0.2082
 5763TIP3   OH238779   2.129   0.333   0.684  0.1814 -0.2905 -0.2855
 5763TIP3    H138780   2.097   0.314   0.596  0.5300  1.2344 -0.7727
 5763TIP3    H238781   2.148   0.247   0.722 -1.2717 -1.0545 -1.1846
 5764TIP3   OH238782   3.405   2.406   7.803  0.1859 -0.0566  0.2194
 5764TIP3    H138783   3.445   2.372   7.883 -1.0470 -2.2827 -0.0269
 5764TIP3    H238784   3.474   2.401   7.738  0.9400  0.9220  0.9265
 5765TIP3   OH238785   3.776   2.556  39.930  0.0670 -0.2293 -0.2677
 5765TIP3    H138786   3.817   2.524  39.850  1.3837  0.0099  0.2871
 5765TIP3    H238787   3.769   2.650  39.918  2.1327  0.0817  0.6824
 5766TIP3   OH238788   0.833   2.066   6.249  0.1437 -0.0769  0.0603
 5766TIP3    H138789   0.792   2.142   6.208 -1.4329 -0.9340 -0.0087
 5766TIP3    H238790   0.827   1.997   6.184  0.8508 -0.4927  0.4221
 5767TIP3   OH238791   0.456   0.041  31.311  0.2107  0.0317  0.5458
 5767TIP3    H138792   0.455   0.031  31.406 -1.4929  0.6150  0.6194
 5767TIP3    H238793   0.366   0.064  31.288  0.8574  1.1565 -1.0719
 5768TIP3   OH238794   3.289   3.809  11.392  0.4425 -0.3564  0.1774
 5768TIP3    H138795   3.380   3.804  11.421  0.7398  1.0096 -0.4283
 5768TIP3    H238796   3.292   3.860  11.311 -0.8850 -0.0565  0.2857
 5769TIP3   OH238797   4.030   0.708  35.748  0.6603  0.1044 -0.2604
 5769TIP3    H138798   4.104   0.763  35.771  0.4657  0.3167 -0.1380
 5769TIP3    H238799   3.953   0.761  35.768  0.4773 -0.0252 -0.6085
 5770TIP3   OH238800   2.498   1.184   4.122 -0.0361  0.9493  0.2144
 5770TIP3    H138801   2.516   1.090   4.112 -1.6636  0.8216 -3.0435
 5770TIP3    H238802   2.457   1.192   4.207  1.3938 -1.0341  1.1814
 5771TIP3   OH238803   2.485   1.507  11.934 -0.8325 -0.3576 -0.2254
 5771TIP3    H138804   2.456   1.525  12.023 -1.9033  2.6369 -1.0527
 5771TIP3    H238805   2.433   1.431  11.907 -0.3101 -1.4720  1.7205
 5772TIP3   OH238806   3.267   3.924  35.885 -0.0239  0.0548  0.5400
 5772TIP3    H138807   3.259   4.016  35.856 -1.5239  0.0738  0.9007
 5772TIP3    H238808   3.341   3.890  35.835 -1.5893  0.4878 -2.3192
 5773TIP3   OH238809   1.500   2.777   3.467  0.2694  0.2889 -0.2816
 5773TIP3    H138810   1.489   2.692   3.508  1.4336  0.5015  0.5153
 5773TIP3    H238811   1.414   2.819   3.475  0.1870 -0.0836  1.0075
 5774TIP3   OH238812   3.457   1.916  42.048 -0.3475  0.0561 -0.1606
 5774TIP3    H138813   3.512   1.839  42.037  1.8192  1.3147  1.2127
 5774TIP3    H238814   3.463   1.962  41.964 -0.8211 -0.7299 -0.6364
 5775TIP3   OH238815   1.502   0.112  34.815 -0.0058  0.7033  0.1148
 5775TIP3    H138816   1.559   0.046  34.777 -1.4586 -0.7644  0.3670
 5775TIP3    H238817   1.561   0.183  34.840  1.9220 -1.2969  1.6700
 5776TIP3   OH238818   0.119   2.468  11.995  0.0573 -0.0656  0.2535
 5776TIP3    H138819   0.055   2.515  12.048  0.5902 -0.2744  1.1079
 5776TIP3    H238820   0.119   2.514  11.911 -0.0536  0.9334  0.7872
 5777TIP3   OH238821   0.733   3.521   6.148 -0.2474 -0.4410 -0.4461
 5777TIP3    H138822   0.759   3.499   6.238 -0.5206  0.0453 -0.2449
 5777TIP3    H238823   0.654   3.573   6.158  0.6201  1.0233 -0.8838
 5778TIP3   OH238824   3.887   2.463  10.843 -0.1070 -0.2351  0.1763
 5778TIP3    H138825   3.823   2.396  10.867  0.3532 -0.5045  0.6589
 5778TIP3    H238826   3.904   2.511  10.924 -0.4964  0.5308 -0.1799
 5779TIP3   OH238827   1.853   2.484   8.484  0.1249  0.1517  0.0089
 5779TIP3    H138828   1.868   2.567   8.439 -0.4905  0.3985  0.2462
 5779TIP3    H238829   1.769   2.453   8.451  0.3253 -0.3568 -0.0402
 5780TIP3   OH238830   0.214   3.513   9.657  0.1352  0.7823  0.4020
 5780TIP3    H138831   0.241   3.487   9.569  0.4471  0.4632  0.5922
 5780TIP3    H238832   0.119   3.504   9.656  0.2452 -0.5583  0.5161
 5781TIP3   OH238833   0.591   0.057  46.907 -0.4616 -0.0027 -0.2522
 5781TIP3    H138834   0.651   0.132  46.912  0.2909 -0.6700  1.3034
 5781TIP3    H238835   0.635  -0.012  46.957 -1.9980 -0.9014 -0.0915
 5782TIP3   OH238836   2.570   0.001  41.074 -0.2077  0.2272  0.3331
 5782TIP3    H138837   2.561   0.026  40.982  0.2312  0.3103  0.3077
 5782TIP3    H238838   2.543   0.078  41.123  1.0980  0.7724  0.2554
 5783TIP3   OH238839   0.141   2.910   1.412 -0.1324 -0.2293  0.2521
 5783TIP3    H138840   0.100   2.991   1.380 -1.7155 -0.8152  0.6839
 5783TIP3    H238841   0.183   2.936   1.494  0.2599  0.3642 -0.1234
 5784TIP3   OH238842   3.303   2.177  43.612 -0.6287  0.3189  0.2969
 5784TIP3    H138843   3.328   2.189  43.520 -1.2708 -0.7171 -0.0402
 5784TIP3    H238844   3.352   2.243  43.660  1.8951 -0.8902 -0.4421
 5785TIP3   OH238845   2.055   1.132  41.576 -0.1278 -0.0710 -0.3454
 5785TIP3    H138846   1.976   1.097  41.617 -0.8521  0.7601 -0.9678
 5785TIP3    H238847   2.084   1.201  41.636  0.2919 -0.5545  0.0176
 5786TIP3   OH238848   1.385   2.170   1.827  0.1545  0.0562 -0.3784
 5786TIP3    H138849   1.473   2.159   1.791  0.9306  2.3479  0.6466
 5786TIP3    H238850   1.398   2.215   1.910 -1.9835  0.5671 -0.2586
 5787TIP3   OH238851   0.786   0.668  11.694  0.0138  0.2140  0.2740
 5787TIP3    H138852   0.786   0.583  11.649 -1.8129  0.3815 -0.0981
 5787TIP3    H238853   0.827   0.649  11.779 -1.4230 -1.3299  0.6803
 5788TIP3   OH238854   2.106   2.329  31.202 -0.0519  0.3613 -0.1689
 5788TIP3    H138855   2.129   2.237  31.197  2.2647  0.8985 -0.3810
 5788TIP3    H238856   2.077   2.342  31.293 -0.0251 -0.4891 -0.0348
 5789TIP3   OH238857   3.353   4.099  12.314  0.0785 -0.4022  0.5031
 5789TIP3    H138858   3.266   4.132  12.335 -0.6522 -1.5360 -0.6052
 5789TIP3    H238859   3.413   4.153  12.367 -1.0511  2.3965 -0.8485
 5790TIP3   OH238860   3.345   0.137  15.168 -0.6510  0.6564  0.2842
 5790TIP3    H138861   3.311   0.175  15.249 -3.2944  0.3279 -0.5741
 5790TIP3    H238862   3.330   0.043  15.178 -0.7295  0.5829 -0.4644
 5791TIP3   OH238863   3.830   0.095  41.560 -0.0875  0.2245 -0.4023
 5791TIP3    H138864   3.838   0.012  41.513 -0.8629  1.5223 -3.0280
 5791TIP3    H238865   3.742   0.093  41.598 -0.3902  0.1263 -1.0951
 5792TIP3   OH238866   3.217   0.153  40.881 -0.1518  0.4057 -0.4860
 5792TIP3    H138867   3.213   0.244  40.850 -0.6982  0.3210 -0.6711
 5792TIP3    H238868   3.137   0.142  40.931 -1.3270 -0.7136 -2.5004
 5793TIP3   OH238869   0.257   1.312  37.959 -0.3929  0.0520  0.3604
 5793TIP3    H138870   0.210   1.246  37.909  0.0658  1.0128 -1.4615
 5793TIP3    H238871   0.342   1.273  37.977 -1.0047 -0.7793  1.5509
 5794TIP3   OH238872   2.425   2.500  14.878 -0.3803 -0.5600  0.3982
 5794TIP3    H138873   2.429   2.446  14.799 -2.2674  0.1284 -0.2411
 5794TIP3    H238874   2.513   2.496  14.915  0.7403 -0.4223 -2.0707
 5795TIP3   OH238875   3.960   1.994  11.618  0.2870 -0.6351  0.0491
 5795TIP3    H138876   4.014   2.073  11.618 -1.2399  0.4593 -0.0084
 5795TIP3    H238877   3.955   1.967  11.527 -4.1006  2.8460 -1.0643
 5796TIP3   OH238878   4.070   0.198  46.093  0.1320  0.1966 -0.6382
 5796TIP3    H138879   4.062   0.156  46.178 -0.4057  0.7632 -0.4016
 5796TIP3    H238880   4.165   0.203  46.078  0.2882  1.2483  0.5279
 5797TIP3   OH238881   0.820   2.119   0.982 -0.2186 -0.3075 -0.2748
 5797TIP3    H138882   0.828   2.137   1.076 -0.3958  1.1366 -0.5101
 5797TIP3    H238883   0.726   2.109   0.967 -0.2378  0.0335 -0.3894
 5798TIP3   OH238884   0.768   0.102  33.754  0.1566 -0.7241 -0.4226
 5798TIP3    H138885   0.694   0.080  33.810 -1.7230  1.2773 -1.9720
 5798TIP3    H238886   0.734   0.165  33.691  3.9455  3.2424  0.9646
 5799TIP3   OH238887   0.231   0.075  45.663  0.2209  1.2523  0.1011
 5799TIP3    H138888   0.306   0.067  45.604 -0.4678 -0.3087 -0.6229
 5799TIP3    H238889   0.246   0.007  45.729 -0.5903  0.8684 -0.1045
 5800TIP3   OH238890   2.455   3.790  12.280  0.4129 -0.3020  0.2469
 5800TIP3    H138891   2.378   3.838  12.310  0.6499  1.0998 -1.2464
 5800TIP3    H238892   2.421   3.705  12.254 -0.1006 -0.8547  2.4759
 5801TIP3   OH238893   2.334   1.730  18.705 -0.1580 -0.1737  0.3044
 5801TIP3    H138894   2.397   1.779  18.653 -0.3818  0.6141  0.7555
 5801TIP3    H238895   2.369   1.641  18.708  0.2828 -0.0358 -0.4858
 5802TIP3   OH238896   3.536   0.428   4.097  0.2960 -0.5202 -0.4679
 5802TIP3    H138897   3.448   0.390   4.102 -0.0175  0.3475  0.9219
 5802TIP3    H238898   3.576   0.406   4.181  1.2771 -0.5573 -0.9380
 5803TIP3   OH238899   3.922   3.520  15.243 -0.5238 -0.2291 -0.4261
 5803TIP3    H138900   3.872   3.482  15.315  0.0165 -0.5248 -0.1981
 5803TIP3    H238901   3.951   3.445  15.192  0.8169 -0.1642  0.2012
 5804TIP3   OH238902   0.021   0.591  35.997  0.2156  0.1279  0.1965
 5804TIP3    H138903  -0.017   0.562  35.914  0.1881  0.7733 -0.0252
 5804TIP3    H238904  -0.016   0.533  36.063 -1.5363  1.0217  0.0625
 5805TIP3   OH238905   2.082   0.794  36.122 -0.4302  0.0723 -0.1448
 5805TIP3    H138906   2.000   0.798  36.172 -1.0609  1.0000 -1.1937
 5805TIP3    H238907   2.150   0.814  36.186 -1.2357  1.5196  0.3138
 5806TIP3   OH238908   1.675   0.911  16.283  0.3409  0.8384  0.0576
 5806TIP3    H138909   1.770   0.901  16.294  0.1957 -0.3823  0.3378
 5806TIP3    H238910   1.645   0.945  16.367  0.0729 -2.4527  1.4615
 5807TIP3   OH238911   3.267   1.185  18.837 -0.4358 -0.1873  0.3481
 5807TIP3    H138912   3.333   1.158  18.901  1.0101  2.6263  0.2037
 5807TIP3    H238913   3.187   1.193  18.889 -0.4392 -2.4039  0.7872
 5808TIP3   OH238914   3.338   1.176  14.243  0.0342  0.6395  0.4370
 5808TIP3    H138915   3.383   1.096  14.216 -0.5571  0.2238  0.6652
 5808TIP3    H238916   3.407   1.242  14.248  0.4530  0.2666 -0.2332
 5809TIP3   OH238917   0.139   3.122  32.218  0.1845  0.2112 -0.1284
 5809TIP3    H138918   0.234   3.114  32.209  0.0312  0.0738 -1.9232
 5809TIP3    H238919   0.109   3.149  32.131 -1.4726 -0.2536  0.2722
 5810TIP3   OH238920   3.778   1.071  37.146 -0.2583  0.0801  0.0810
 5810TIP3    H138921   3.701   1.068  37.204  0.9772  2.3335  1.9958
 5810TIP3    H238922   3.744   1.108  37.064 -1.3362  0.4916  0.6854
 5811TIP3   OH238923   0.415   1.699  43.023 -0.6714 -0.6636 -0.1053
 5811TIP3    H138924   0.329   1.720  43.058 -1.6182  0.1440 -2.6623
 5811TIP3    H238925   0.455   1.642  43.088 -1.7275  1.6644  2.7694
 5812TIP3   OH238926   3.497   2.572  39.039 -0.2342  0.3000 -0.1825
 5812TIP3    H138927   3.520   2.654  38.996  0.3389 -1.1274 -2.7939
 5812TIP3    H238928   3.571   2.553  39.096 -0.8350  2.0403  1.2815
 5813TIP3   OH238929   3.618   3.062  11.299  0.9927  0.5141  0.5801
 5813TIP3    H138930   3.622   3.084  11.392 -0.5032 -0.5233  0.9269
 5813TIP3    H238931   3.694   3.005  11.285  0.7940  0.0484  1.3483
 5814TIP3   OH238932   0.330   0.111   4.049  0.4816  0.1732 -0.4126
 5814TIP3    H138933   0.368   0.024   4.055 -1.1690 -0.6837 -1.5647
 5814TIP3    H238934   0.242   0.103   4.087  0.4713  1.4656 -0.0860
 5815TIP3   OH238935   2.998   2.606  33.533  0.1332 -0.3130  0.1779
 5815TIP3    H138936   3.066   2.673  33.528 -0.1178 -0.1323 -1.1389
 5815TIP3    H238937   2.959   2.619  33.620 -0.9154  2.2769 -0.5807
 5816TIP3   OH238938   1.897   4.106   1.629 -0.2298 -0.6224 -0.1120
 5816TIP3    H138939   1.976   4.122   1.577  0.3506 -0.3707  0.8325
 5816TIP3    H238940   1.854   4.192   1.635 -1.0858 -0.9205 -1.3904
 5817TIP3   OH238941   0.286   3.113   4.659 -0.7099 -0.9929 -0.2352
 5817TIP3    H138942   0.285   3.039   4.598 -0.3646  0.6725 -2.4236
 5817TIP3    H238943   0.203   3.158   4.642 -0.6900 -0.6043  0.6850
 5818TIP3   OH238944   2.709   2.258  33.718  0.3008 -0.5979  0.0622
 5818TIP3    H138945   2.701   2.299  33.804 -1.4371  1.2043 -0.8716
 5818TIP3    H238946   2.794   2.286  33.685  0.5646 -0.5137  0.8019
 5819TIP3   OH238947   0.778   1.244   0.269 -0.2882 -0.1554 -0.6027
 5819TIP3    H138948   0.771   1.293   0.187  0.0695  0.1257 -0.4663
 5819TIP3    H238949   0.764   1.309   0.338  1.0293 -0.0543 -0.3919
 5820TIP3   OH238950   2.933   3.451  15.195 -0.7064  0.2470 -1.0603
 5820TIP3    H138951   2.892   3.536  15.213 -0.0596  1.0246 -2.9745
 5820TIP3    H238952   2.863   3.387  15.209 -2.0554  1.3642 -2.2849
 5821TIP3   OH238953   2.024   2.931  44.604 -0.6064 -0.0112 -0.0058
 5821TIP3    H138954   1.988   2.866  44.544 -1.4726 -0.0155  0.5109
 5821TIP3    H238955   2.056   2.881  44.679  0.9920 -0.0628 -0.6672
 5822TIP3   OH238956   2.876   1.738   5.791  0.4733  0.1274 -0.4171
 5822TIP3    H138957   2.950   1.746   5.850  0.3368  2.5362 -0.4941
 5822TIP3    H238958   2.802   1.717   5.848  0.8711 -0.4527 -0.1113
 5823TIP3   OH238959   0.660   1.773  39.839 -0.3071 -0.5052 -0.2902
 5823TIP3    H138960   0.586   1.722  39.872 -0.5436 -0.7047 -1.1069
 5823TIP3    H238961   0.707   1.713  39.780 -0.4486  0.1305 -1.0707
 5824TIP3   OH238962   2.793   3.951  30.304 -0.6324 -0.2192 -0.1472
 5824TIP3    H138963   2.886   3.949  30.281 -0.2103  1.3924  1.2109
 5824TIP3    H238964   2.776   4.043  30.325 -2.0988 -0.7937  1.3473
 5825TIP3   OH238965   2.693   0.414  15.614  0.2813 -1.0552 -0.2734
 5825TIP3    H138966   2.745   0.338  15.586  4.3071  1.7242 -1.2393
 5825TIP3    H238967   2.725   0.433  15.702  0.9962  0.7491 -0.8910
 5826TIP3   OH238968   3.543   3.811  30.821 -0.2984 -0.0659  0.1567
 5826TIP3    H138969   3.547   3.901  30.853  0.5641 -0.0647  0.0679
 5826TIP3    H238970   3.562   3.817  30.728  0.0720 -0.3687  0.2071
 5827TIP3   OH238971   0.129   1.801   0.182 -0.1043 -0.3262 -0.1995
 5827TIP3    H138972   0.192   1.760   0.122  0.7421 -0.0953  0.4979
 5827TIP3    H238973   0.102   1.730   0.240 -1.2507 -0.6484 -1.0926
 5828TIP3   OH238974   1.756   3.401   3.574  0.0908 -0.4630 -0.4137
 5828TIP3    H138975   1.735   3.475   3.517 -0.2429 -1.1260 -1.1878
 5828TIP3    H238976   1.709   3.327   3.534  0.8577 -1.1995  0.0191
 5829TIP3   OH238977   0.572   0.211   3.050 -0.1837 -0.0349  0.3328
 5829TIP3    H138978   0.522   0.254   3.120  0.2573 -0.5830  0.9949
 5829TIP3    H238979   0.574   0.119   3.075  0.9093 -0.0642  0.1540
 5830TIP3   OH238980   4.107   0.478   7.993 -0.0866  0.1613 -0.0218
 5830TIP3    H138981   4.198   0.505   7.979 -0.5017  0.8670 -1.5791
 5830TIP3    H238982   4.099   0.394   7.948 -0.2093  0.1164  0.0837
 5831TIP3   OH238983   2.420   3.629  45.053  0.3781  0.2885  0.0239
 5831TIP3    H138984   2.401   3.537  45.069 -0.1257  0.1489 -1.2339
 5831TIP3    H238985   2.376   3.648  44.970  1.8082  1.2481 -0.5446
 5832TIP3   OH238986   3.622   3.096  32.006 -0.1861 -0.9738 -0.6062
 5832TIP3    H138987   3.701   3.045  31.988  0.1727 -1.5860  2.3547
 5832TIP3    H238988   3.645   3.150  32.081 -1.7199  1.0055 -1.4665
 5833TIP3   OH238989   0.407   4.005   7.137 -0.0629 -0.4123  0.1765
 5833TIP3    H138990   0.440   4.000   7.227 -1.7942  0.6083  0.9007
 5833TIP3    H238991   0.412   3.915   7.105 -0.5665 -1.0173  1.7246
 5834TIP3   OH238992   3.056   0.079  34.591 -0.5358 -0.5931 -0.3887
 5834TIP3    H138993   3.029   0.164  34.627 -0.8138 -0.2807 -1.2865
 5834TIP3    H238994   3.144   0.095  34.558 -0.5948 -0.6471 -0.5721
 5835TIP3   OH238995   2.061   0.882  35.163 -0.3499 -0.1409 -0.2999
 5835TIP3    H138996   2.106   0.901  35.245 -0.3697 -0.5268 -0.2006
 5835TIP3    H238997   2.018   0.798  35.178 -2.1318  0.7799  0.0469
 5836TIP3   OH238998   1.016   0.465  44.779  0.0803  0.5296  0.5138
 5836TIP3    H138999   1.003   0.550  44.737  2.0707  1.4394  1.6178
 5836TIP3    H239000   1.035   0.486  44.870 -0.5749 -1.1916  1.0811
 5837TIP3   OH239001   1.454   0.835  14.289 -0.1132 -0.0956 -0.4012
 5837TIP3    H139002   1.402   0.840  14.209  0.2320  1.5514 -0.5557
 5837TIP3    H239003   1.500   0.752  14.283 -2.4096 -1.4606 -0.4312
 5838TIP3   OH239004   2.766   0.665  12.829  0.1741 -0.1840  0.2380
 5838TIP3    H139005   2.678   0.689  12.800 -0.1161 -1.1656  0.2531
 5838TIP3    H239006   2.819   0.743  12.815 -1.1352  1.1296  2.1440
 5839TIP3   OH239007   0.362   3.170  11.249  0.4497 -0.3063  0.3301
 5839TIP3    H139008   0.320   3.149  11.165 -0.4624  3.3753 -0.2953
 5839TIP3    H239009   0.411   3.091  11.271  0.7591 -1.4720 -3.6845
 5840TIP3   OH239010   0.211   0.836  44.969 -0.5579  0.5345 -0.3442
 5840TIP3    H139011   0.302   0.845  44.998 -0.2656 -2.0435 -0.2114
 5840TIP3    H239012   0.159   0.856  45.046  0.0368 -0.8544  0.4628
 5841TIP3   OH239013   0.349   0.014  25.248 -0.2257 -0.5580 -0.0829
 5841TIP3    H139014   0.298   0.084  25.208  0.9793  0.6506  0.3951
 5841TIP3    H239015   0.286  -0.056  25.263 -1.5415  0.5229 -0.3154
 5842TIP3   OH239016   1.902   3.932   2.719  0.1620  0.8128  1.0184
 5842TIP3    H139017   1.940   3.916   2.632 -1.3869 -0.9379  0.5963
 5842TIP3    H239018   1.896   3.845   2.758 -2.8928  1.0292  1.2377
 5843TIP3   OH239019   3.635   3.319  36.559  0.5776  0.4368  0.0300
 5843TIP3    H139020   3.683   3.299  36.639  1.8550  2.5295 -0.1402
 5843TIP3    H239021   3.579   3.394  36.582  0.2903  0.4876 -0.7836
 5844TIP3   OH239022   0.802   0.987  16.023  0.0682  0.1977  0.6530
 5844TIP3    H139023   0.723   0.955  15.978  0.9883  0.5196 -1.3226
 5844TIP3    H239024   0.769   1.053  16.084 -1.2615 -0.0862  0.2829
 5845TIP3   OH239025   1.759   2.794   8.747 -0.1820 -0.3271 -0.4212
 5845TIP3    H139026   1.755   2.890   8.743  2.4003 -0.1629 -0.9051
 5845TIP3    H239027   1.737   2.765   8.658 -3.7212 -0.4537  0.3486
 5846TIP3   OH239028   3.820   3.046   0.753 -0.3868 -0.0189 -0.1060
 5846TIP3    H139029   3.812   2.965   0.704 -1.3160 -0.1453  0.2250
 5846TIP3    H239030   3.757   3.037   0.825 -0.3967  0.9214  0.0239
 5847TIP3   OH239031   1.785   1.033   0.127  0.0211 -0.3771  0.1062
 5847TIP3    H139032   1.699   1.063   0.157  0.7527  1.2770  0.6773
 5847TIP3    H239033   1.845   1.105   0.149  1.7928 -2.0058  0.8553
 5848TIP3   OH239034   1.694   0.002  39.955 -0.0956 -0.2408 -1.0791
 5848TIP3    H139035   1.683  -0.080  39.907 -1.1369  0.6349 -2.3946
 5848TIP3    H239036   1.633  -0.005  40.029 -0.5442 -0.4439 -1.4677
 5849TIP3   OH239037   2.989   3.180  13.898  0.1752 -0.4023  0.1878
 5849TIP3    H139038   2.994   3.275  13.911  1.0372 -0.4530  0.2481
 5849TIP3    H239039   2.985   3.168  13.803  0.7186 -0.3378  0.1583
 5850TIP3   OH239040   2.760   1.260  44.061 -0.1416  0.2518  0.3303
 5850TIP3    H139041   2.715   1.314  43.996 -1.0704 -0.2836  0.5081
 5850TIP3    H239042   2.697   1.253  44.133 -0.0745 -1.1643  0.2644
 5851TIP3   OH239043   1.013   3.803   1.492 -0.1230  0.1760 -0.3456
 5851TIP3    H139044   0.976   3.753   1.419 -0.2805 -1.2011  0.6219
 5851TIP3    H239045   0.983   3.893   1.478 -0.5005 -0.1398 -1.7301
 5852TIP3   OH239046   1.402   1.570   5.075  0.3762  0.1095 -0.1308
 5852TIP3    H139047   1.357   1.623   5.010  1.0677 -0.4234 -1.0723
 5852TIP3    H239048   1.334   1.545   5.138  0.0263  2.0678  0.3316
 5853TIP3   OH239049   1.403   2.645   4.753  0.3614  0.2159 -0.3727
 5853TIP3    H139050   1.341   2.662   4.682  1.6882  2.6605 -1.0647
 5853TIP3    H239051   1.489   2.661   4.714  1.3439 -1.3838  1.0108
 5854TIP3   OH239052   0.711   3.579  40.336 -0.5167  0.5139 -0.0641
 5854TIP3    H139053   0.660   3.527  40.275 -0.2320  0.1763 -0.0208
 5854TIP3    H239054   0.744   3.652  40.284 -2.7602  1.9370  0.3766
 5855TIP3   OH239055   1.341   2.625  13.491 -0.4098  0.3481  0.1680
 5855TIP3    H139056   1.368   2.708  13.531  4.0447 -0.6885 -0.1942
 5855TIP3    H239057   1.352   2.638  13.397 -0.4070 -0.3960  0.0576
 5856TIP3   OH239058   2.892   0.430  12.945 -0.5321  0.2834 -0.1284
 5856TIP3    H139059   2.845   0.491  12.889 -1.2534  0.0792  0.2507
 5856TIP3    H239060   2.867   0.343  12.912  0.1856  0.1721 -0.4161
 5857TIP3   OH239061   0.128   3.291   8.364 -0.0688 -0.1179 -0.3313
 5857TIP3    H139062   0.169   3.213   8.402  0.0087 -0.0610 -0.2970
 5857TIP3    H239063   0.057   3.257   8.310  0.2816 -0.2392 -0.7172
 5858TIP3   OH239064   0.679   0.063  13.467  0.2575 -0.2337  0.6543
 5858TIP3    H139065   0.726  -0.019  13.482  0.1584 -0.5802 -0.8077
 5858TIP3    H239066   0.588   0.037  13.458  0.2329  0.0378  0.1336
 5859TIP3   OH239067   0.906   2.925   2.433 -0.3734  0.1427  0.3028
 5859TIP3    H139068   0.933   2.837   2.460  1.1088  0.6764  0.6610
 5859TIP3    H239069   0.944   2.983   2.499  0.2559  1.1959 -0.9390
 5860TIP3   OH239070   1.282   1.534  38.990 -0.8068  0.4848 -0.5150
 5860TIP3    H139071   1.235   1.477  39.051 -0.4389  1.9771  1.2258
 5860TIP3    H239072   1.274   1.622  39.027  2.8013  0.9264 -0.4651
 5861TIP3   OH239073   3.221   2.371  33.553 -0.1933 -0.0875  0.2705
 5861TIP3    H139074   3.127   2.385  33.539 -0.4646 -2.0103  0.0086
 5861TIP3    H239075   3.262   2.409  33.475 -0.6110  1.9317  0.9741
 5862TIP3   OH239076   0.274   1.334  46.263  0.2224  0.3776 -0.1861
 5862TIP3    H139077   0.348   1.309  46.208 -1.1602  0.2145 -2.0705
 5862TIP3    H239078   0.252   1.423  46.235  0.9057  1.2255  1.7682
 5863TIP3   OH239079   0.076   3.489   8.977  0.1054 -0.0774 -0.2585
 5863TIP3    H139080   0.003   3.462   8.920  2.5119 -1.1304 -3.0795
 5863TIP3    H239081   0.068   3.584   8.982 -2.0966 -0.2421  0.5382
 5864TIP3   OH239082   0.261   0.812  35.566 -0.1527 -0.4455 -0.1592
 5864TIP3    H139083   0.176   0.816  35.610 -1.3565 -0.2508 -2.3365
 5864TIP3    H239084   0.324   0.840  35.632 -2.0827  1.9816  0.8004
 5865TIP3   OH239085   3.840   2.389   3.488  0.2512  0.7266  0.5944
 5865TIP3    H139086   3.763   2.356   3.533 -0.4765 -0.3921 -1.3643
 5865TIP3    H239087   3.912   2.334   3.519 -0.5485 -1.2459 -0.8640
 5866TIP3   OH239088   0.976   1.190  16.695  0.2877  0.0324 -0.0287
 5866TIP3    H139089   0.898   1.246  16.704 -0.5870 -0.4687 -3.4398
 5866TIP3    H239090   0.959   1.115  16.752 -0.4917  1.1460  1.2586
 5867TIP3   OH239091   0.475   0.069  44.121  0.1217  0.0310 -0.3064
 5867TIP3    H139092   0.506  -0.022  44.121  2.2135  0.6870  0.2071
 5867TIP3    H239093   0.530   0.113  44.056 -0.6835  1.0039 -0.3599
 5868TIP3   OH239094   1.789   3.428  36.485  0.4604 -0.2668  0.2525
 5868TIP3    H139095   1.747   3.397  36.405 -1.9667  3.3037 -0.0847
 5868TIP3    H239096   1.849   3.497  36.456 -1.5519  2.1467  1.3921
 5869TIP3   OH239097   0.564   0.747  45.680 -0.0266  0.3388 -0.2332
 5869TIP3    H139098   0.630   0.773  45.617 -0.0152 -0.2950 -0.4945
 5869TIP3    H239099   0.613   0.701  45.749 -0.3221 -1.4077 -1.1343
 5870TIP3   OH239100   1.302   1.182   0.694 -0.3905  0.1315  0.0303
 5870TIP3    H139101   1.360   1.255   0.671 -1.0239  1.2161  1.7243
 5870TIP3    H239102   1.214   1.220   0.696 -0.5788 -0.2482  2.4238
 5871TIP3   OH239103   0.996   0.879  36.842  0.1744  0.2172  0.0158
 5871TIP3    H139104   1.018   0.804  36.897  1.2764  1.1421  0.8703
 5871TIP3    H239105   0.912   0.909  36.875  0.1875 -0.0471  0.2924
 5872TIP3   OH239106   1.153   2.299  37.495 -0.2755  0.3840 -0.5239
 5872TIP3    H139107   1.059   2.292  37.475 -0.6256  2.9054 -0.1164
 5872TIP3    H239108   1.186   2.360  37.430  1.0351 -0.2262 -0.4492
 5873TIP3   OH239109   2.880   3.049  45.722  0.4803  0.0691  0.3464
 5873TIP3    H139110   2.957   3.101  45.746  1.1610 -0.6584 -0.2066
 5873TIP3    H239111   2.850   3.087  45.640  1.1053 -0.5170 -0.1690
 5874TIP3   OH239112   1.837   2.893   6.953 -0.2628 -0.7008 -0.1536
 5874TIP3    H139113   1.799   2.895   6.865  0.0759  0.2257 -0.2895
 5874TIP3    H239114   1.785   2.827   6.999 -0.0082 -1.6952 -1.2333
 5875TIP3   OH239115   0.086   0.906   4.642 -0.1740  0.1716  0.9619
 5875TIP3    H139116   0.160   0.952   4.683  0.7620  0.5263 -0.9565
 5875TIP3    H239117   0.075   0.951   4.558 -2.2961 -0.1974  1.0051
 5876TIP3   OH239118   0.780   1.921   2.845  0.1820  0.2902 -0.3516
 5876TIP3    H139119   0.862   1.965   2.821  1.4280 -2.2874 -1.2105
 5876TIP3    H239120   0.712   1.981   2.816  1.7498  1.7415 -1.2482
 5877TIP3   OH239121   3.393   0.337   0.332  0.0989 -0.5527 -0.1894
 5877TIP3    H139122   3.468   0.285   0.360  2.0979  2.1639 -0.0666
 5877TIP3    H239123   3.430   0.398   0.267 -1.9945  0.9155 -0.0763
 5878TIP3   OH239124   3.374   2.269  46.125  0.0200 -0.2419  0.1201
 5878TIP3    H139125   3.450   2.257  46.068 -0.1839  1.2275 -0.4951
 5878TIP3    H239126   3.410   2.305  46.206  0.3081 -2.3152  0.9970
 5879TIP3   OH239127   2.548   2.112  32.970  0.3781  0.1882 -0.6197
 5879TIP3    H139128   2.519   2.176  33.035  0.0992  1.3857 -1.8856
 5879TIP3    H239129   2.633   2.146  32.939  0.1317  0.0741 -1.4509
 5880TIP3   OH239130   2.259   2.437  15.702 -0.1719 -0.5419  0.3513
 5880TIP3    H139131   2.292   2.498  15.635  0.2560 -0.1677  0.8976
 5880TIP3    H239132   2.164   2.446  15.697 -0.1736 -0.8883 -0.5466
 5881TIP3   OH239133   0.476   1.337  36.218 -0.3002  0.0821 -0.3814
 5881TIP3    H139134   0.488   1.273  36.288  0.7369 -1.5880 -2.0143
 5881TIP3    H239135   0.564   1.371  36.202 -0.2511 -0.6510 -1.8348
 5882TIP3   OH239136   2.423   1.739  11.410 -0.2708  0.1029  0.0907
 5882TIP3    H139137   2.499   1.716  11.358 -1.3392 -1.5338 -0.8291
 5882TIP3    H239138   2.355   1.763  11.346 -0.0771  3.4349  0.9113
 5883TIP3   OH239139   1.495   0.338  43.780 -0.0788 -0.0824 -0.3622
 5883TIP3    H139140   1.499   0.348  43.875  0.0645 -1.5899 -0.1779
 5883TIP3    H239141   1.489   0.427  43.746 -2.0211  0.4405  1.1442
 5884TIP3   OH239142   3.561   1.396  40.417 -0.0187 -0.4217  0.4856
 5884TIP3    H139143   3.655   1.397  40.437  0.3594 -0.8353 -1.1417
 5884TIP3    H239144   3.519   1.400  40.503  1.4652  0.7396  1.2200
 5885TIP3   OH239145   0.050   1.357   0.475 -0.1093  0.1210 -0.1009
 5885TIP3    H139146  -0.016   1.298   0.438 -1.0765 -0.2017  1.9996
 5885TIP3    H239147   0.098   1.302   0.537 -0.7044  1.3687  1.5316
 5886TIP3   OH239148   1.125   0.019  38.709 -0.6693 -0.4023  0.0819
 5886TIP3    H139149   1.045   0.039  38.758 -0.3119 -0.7504  0.8274
 5886TIP3    H239150   1.147   0.101  38.665 -0.8221  0.0283  0.7796
 5887TIP3   OH239151   3.998   0.178  37.653  0.1208  0.3370  0.0043
 5887TIP3    H139152   4.074   0.130  37.620 -0.0144  1.6212 -2.4351
 5887TIP3    H239153   4.028   0.269  37.660 -1.2134  0.9172 -1.2405
 5888TIP3   OH239154   1.615   0.568  40.745 -0.4088 -0.1270 -0.3471
 5888TIP3    H139155   1.539   0.598  40.795  0.2077  0.5841  0.1935
 5888TIP3    H239156   1.610   0.473  40.747  0.5280 -0.2188  2.6100
 5889TIP3   OH239157   2.468   1.992  21.801  0.4964 -0.3320  0.0950
 5889TIP3    H139158   2.425   2.077  21.799 -1.2790 -1.1937 -1.9204
 5889TIP3    H239159   2.560   2.011  21.781 -0.2186  0.9824 -2.3327
 5890TIP3   OH239160   3.231   3.983  12.662  0.1792 -0.2852 -0.6539
 5890TIP3    H139161   3.287   4.060  12.657 -1.6249  1.3626  2.0276
 5890TIP3    H239162   3.165   3.998  12.594  0.0909  0.3174 -0.4392
 5891TIP3   OH239163   3.292   2.416   8.115 -0.1420 -0.5547 -0.6512
 5891TIP3    H139164   3.356   2.360   8.071  1.0385  0.8468 -0.7575
 5891TIP3    H239165   3.344   2.472   8.172 -1.0783  1.7717 -1.9648
 5892TIP3   OH239166   4.051   0.326  33.016 -0.0027  1.4977  0.1843
 5892TIP3    H139167   4.031   0.391  33.083  2.3523 -0.1395  2.7149
 5892TIP3    H239168   4.145   0.336  33.001 -0.3045  1.2278 -2.3534
 5893TIP3   OH239169   1.675   0.434   0.564  0.2590  0.2510 -0.7698
 5893TIP3    H139170   1.614   0.413   0.493 -0.2317  0.4039 -0.3933
 5893TIP3    H239171   1.625   0.491   0.623 -0.0980 -1.7067  0.9093
 5894TIP3   OH239172   0.369   1.191  45.777  0.3189  0.5190 -0.0399
 5894TIP3    H139173   0.306   1.262  45.787  1.7999  1.7966  0.7429
 5894TIP3    H239174   0.378   1.155  45.865  1.7706  1.3745  0.1950
 5895TIP3   OH239175   0.294   2.889  15.221  0.0659  0.0180 -0.1092
 5895TIP3    H139176   0.290   2.803  15.264  0.0798  0.1556  0.1680
 5895TIP3    H239177   0.205   2.922  15.226  0.2672  0.4669  0.7076
 5896TIP3   OH239178   3.485   3.446  38.596 -0.0980 -0.5957  0.1859
 5896TIP3    H139179   3.548   3.399  38.650  1.6300  0.3288 -0.9071
 5896TIP3    H239180   3.466   3.386  38.523 -2.8035 -2.0423  1.9082
 5897TIP3   OH239181   2.899   2.329   8.333  0.2666  0.0536 -0.0174
 5897TIP3    H139182   2.853   2.376   8.402  0.4926  0.8677 -0.4140
 5897TIP3    H239183   2.883   2.237   8.353  0.9496  0.2409  1.5560
 5898TIP3   OH239184   1.176   3.135  36.161  0.3016  0.3098  0.6648
 5898TIP3    H139185   1.271   3.149  36.158  0.3923 -0.2579  0.6721
 5898TIP3    H239186   1.156   3.089  36.079 -0.1338  1.3198  0.1770
 5899TIP3   OH239187   2.531   1.802   7.085  0.0500 -0.1143 -0.1614
 5899TIP3    H139188   2.499   1.811   7.174 -0.4171 -3.5270  0.1611
 5899TIP3    H239189   2.452   1.796   7.031  0.3094  0.3338 -0.6068
 5900TIP3   OH239190   3.697   1.048  47.157  0.2696  0.1807  0.6674
 5900TIP3    H139191   3.701   1.117  47.091  2.1472  0.5753  1.1286
 5900TIP3    H239192   3.728   0.970  47.112  0.5124  0.2110  0.7763
 5901TIP3   OH239193   0.217   0.978  45.737  0.1027  0.0779 -0.1369
 5901TIP3    H139194   0.242   0.904  45.792 -1.1811  0.5710  1.1879
 5901TIP3    H239195   0.299   1.025  45.721  0.6326 -0.5430  0.6684
 5902TIP3   OH239196   3.417   2.750  38.031 -0.1890  0.2320 -0.4533
 5902TIP3    H139197   3.436   2.753  37.937  1.0001 -0.1919 -0.2523
 5902TIP3    H239198   3.323   2.735  38.036 -0.4545  1.3196 -1.5633
 5903TIP3   OH239199   0.621   0.907  10.345 -0.1233  0.1762 -0.4949
 5903TIP3    H139200   0.662   0.869  10.423 -0.7432 -0.6538 -0.5615
 5903TIP3    H239201   0.547   0.957  10.379 -1.8747 -2.1380 -0.6573
 5904TIP3   OH239202   1.828   2.670  37.035  0.1172 -0.3705  0.3337
 5904TIP3    H139203   1.860   2.740  37.092 -0.8150  1.4182 -1.2274
 5904TIP3    H239204   1.783   2.610  37.094  0.9118  0.3461  1.7190
 5905TIP3   OH239205   1.096   2.603   6.670  0.0163  0.1532  0.3076
 5905TIP3    H139206   1.136   2.530   6.623  1.4476  0.9567  0.2231
 5905TIP3    H239207   1.107   2.678   6.613 -1.6715  0.4272  0.2839
 5906TIP3   OH239208   0.023   2.357   1.987  0.0321 -0.7996  0.1654
 5906TIP3    H139209   0.081   2.433   1.989  1.3287 -1.7237 -0.5368
 5906TIP3    H239210   0.064   2.298   1.923 -1.0718 -1.9800  0.5114
 5907TIP3   OH239211   0.778   3.635  24.704  0.1792  0.3172 -0.5702
 5907TIP3    H139212   0.872   3.643  24.719  0.5653 -0.5453 -2.3296
 5907TIP3    H239213   0.766   3.543  24.680 -0.9598  0.6629 -1.3614
 5908TIP3   OH239214   2.107   1.462  41.064 -0.1065 -0.6003 -0.0911
 5908TIP3    H139215   2.156   1.388  41.026  0.3711  0.2536 -1.2046
 5908TIP3    H239216   2.095   1.438  41.156  0.2332 -1.9583 -0.3735
 5909TIP3   OH239217   1.585   3.819  15.093 -0.0899 -0.0495 -0.2446
 5909TIP3    H139218   1.648   3.885  15.063 -1.2569  0.8958 -0.7022
 5909TIP3    H239219   1.526   3.868  15.152 -0.4131 -0.9030  0.1587
 5910TIP3   OH239220   0.059   2.182   4.226  0.9214 -0.2622 -0.3004
 5910TIP3    H139221   0.024   2.270   4.220  4.2541  1.3853  1.5409
 5910TIP3    H239222  -0.012   2.130   4.266 -1.6003  1.1015 -2.6685
 5911TIP3   OH239223   0.883   1.040   0.136 -0.0278  0.1987 -0.2613
 5911TIP3    H139224   0.849   1.123   0.172 -0.3436  0.3274 -0.8497
 5911TIP3    H239225   0.978   1.055   0.129  0.1922 -0.1825  1.4452
 5912TIP3   OH239226   2.175   2.931  35.215  0.6073 -0.6446  0.0758
 5912TIP3    H139227   2.191   2.867  35.146  2.0357  1.1511 -1.3792
 5912TIP3    H239228   2.262   2.954  35.247  0.2435  1.2909 -0.1865
 5913TIP3   OH239229   1.286   3.011  39.894  0.4170 -0.7881 -0.2495
 5913TIP3    H139230   1.276   2.995  39.988  0.1081 -0.1611 -0.1756
 5913TIP3    H239231   1.363   3.068  39.888  0.7293 -1.2233 -0.4180
 5914TIP3   OH239232   0.770   1.657  33.372 -0.2031  0.0801  0.4601
 5914TIP3    H139233   0.679   1.682  33.354  0.1981  0.0663 -1.8060
 5914TIP3    H239234   0.763   1.588  33.438 -1.7436  0.9828  1.2943
 5915TIP3   OH239235   4.030   2.869  34.867 -0.1366 -0.2583  0.0613
 5915TIP3    H139236   4.046   2.936  34.801 -4.2731 -0.5605 -1.5095
 5915TIP3    H239237   4.019   2.788  34.818 -2.5385 -0.6422  1.0916
 5916TIP3   OH239238   3.072   0.098  40.211 -0.1205  0.0345 -0.0580
 5916TIP3    H139239   3.002   0.034  40.195  1.2131 -1.7922  1.0140
 5916TIP3    H239240   3.133   0.086  40.138  0.9202 -1.1222  0.9482
 5917TIP3   OH239241   0.492   3.261  45.742  0.2956  0.0199  0.2130
 5917TIP3    H139242   0.519   3.345  45.779  0.2774  1.2368 -2.3634
 5917TIP3    H239243   0.522   3.197  45.806 -0.2682  1.9780  2.5863
 5918TIP3   OH239244   2.668   3.892  30.083 -0.0148 -0.4406  0.2832
 5918TIP3    H139245   2.703   3.914  30.170  0.2650 -0.8894  0.2874
 5918TIP3    H239246   2.601   3.958  30.067 -2.0689 -1.9497  2.0491
 5919TIP3   OH239247   1.449   1.025  45.344 -0.2571  0.4644  0.0274
 5919TIP3    H139248   1.538   1.040  45.314  0.0504 -2.1358 -0.5986
 5919TIP3    H239249   1.434   1.094  45.409  1.6635  1.8118 -0.8545
 5920TIP3   OH239250   0.991   0.753  41.736  0.1995 -0.1744 -0.1694
 5920TIP3    H139251   1.060   0.770  41.672  1.0415 -0.9220  0.5014
 5920TIP3    H239252   0.998   0.826  41.798  1.0689 -0.7454  0.4388
 5921TIP3   OH239253   3.529   3.699  43.982  0.0070 -0.7643 -0.0577
 5921TIP3    H139254   3.517   3.604  43.976  3.1323 -1.2955  0.3937
 5921TIP3    H239255   3.490   3.733  43.902  0.0415 -2.5955 -0.9020
 5922TIP3   OH239256   0.686   1.080  33.550 -0.3724  0.0530  0.2648
 5922TIP3    H139257   0.659   0.988  33.556  1.7144 -0.7333 -1.1295
 5922TIP3    H239258   0.648   1.110  33.467  0.2865 -0.0708 -0.0889
 5923TIP3   OH239259   3.330   3.311  32.760  0.5094  0.3149 -0.2523
 5923TIP3    H139260   3.417   3.273  32.747  0.2211  0.0728 -1.6921
 5923TIP3    H239261   3.275   3.265  32.697 -0.7833  0.1187  0.9869
 5924TIP3   OH239262   2.711   3.576   1.265 -0.4032  0.3851  0.0180
 5924TIP3    H139263   2.632   3.572   1.319  0.3043 -1.0065  1.0273
 5924TIP3    H239264   2.706   3.497   1.211 -0.1928  0.8206 -0.6476
 5925TIP3   OH239265   3.188   0.028  14.170 -0.5102  0.4521 -0.4222
 5925TIP3    H139266   3.150   0.032  14.082 -0.7592  0.8489 -0.2971
 5925TIP3    H239267   3.191  -0.066  14.190 -0.6243  0.3691 -0.7763
 5926TIP3   OH239268   1.380   3.330  30.672  0.8342  0.1648 -0.2071
 5926TIP3    H139269   1.405   3.412  30.716 -1.6749  1.3952 -0.8801
 5926TIP3    H239270   1.311   3.293  30.726  0.0085 -0.0281 -1.3638
 5927TIP3   OH239271   3.944   3.593  35.709  0.1144  0.3029  0.0679
 5927TIP3    H139272   3.984   3.506  35.707  0.0088  0.2411  0.5788
 5927TIP3    H239273   3.850   3.575  35.712 -0.0846  0.4373 -2.6947
 5928TIP3   OH239274   3.327   0.542  37.930 -0.0891  0.2687 -0.2170
 5928TIP3    H139275   3.284   0.457  37.927 -1.9137  1.1347  0.0181
 5928TIP3    H239276   3.281   0.595  37.865  0.8345  1.1713 -0.1777
 5929TIP3   OH239277   0.449   3.439  43.701 -0.0252  0.0595  0.0046
 5929TIP3    H139278   0.457   3.359  43.648  1.0500 -1.0992  1.7851
 5929TIP3    H239279   0.521   3.432  43.764 -0.6521  1.8589  0.9685
 5930TIP3   OH239280   2.242   3.849   9.933  0.4003 -0.1947  0.4946
 5930TIP3    H139281   2.182   3.921   9.952  1.3934  0.2055  2.3187
 5930TIP3    H239282   2.309   3.888   9.877 -0.5616 -0.4555 -0.9039
 5931TIP3   OH239283   3.906   2.439  16.871 -0.1083 -0.6374 -0.2479
 5931TIP3    H139284   3.822   2.396  16.863 -1.2861  1.5110 -0.1893
 5931TIP3    H239285   3.903   2.483  16.956  0.1547  1.2371 -1.1475
 5932TIP3   OH239286   1.223   2.386  14.272 -0.4498  0.4080  0.3045
 5932TIP3    H139287   1.279   2.310  14.262 -0.6584  0.4890 -2.1186
 5932TIP3    H239288   1.246   2.443  14.199 -2.3135  1.3274  0.3583
 5933TIP3   OH239289   0.251   0.337   9.044  0.1151  0.4054 -0.5710
 5933TIP3    H139290   0.165   0.298   9.028 -0.3491  0.2469  1.8759
 5933TIP3    H239291   0.256   0.411   8.983 -1.1471 -0.4063 -1.7192
 5934TIP3   OH239292   2.439   0.345  34.514 -0.5393  0.0019  0.1770
 5934TIP3    H139293   2.361   0.308  34.555 -1.0411  0.3326 -0.4549
 5934TIP3    H239294   2.448   0.432  34.554 -0.5353 -0.0074  0.1978
 5935TIP3   OH239295   3.847   0.847  12.665  0.0853  0.1836 -0.1677
 5935TIP3    H139296   3.773   0.792  12.689  0.0236 -0.3571 -1.4971
 5935TIP3    H239297   3.822   0.935  12.694 -0.9778 -0.0375 -0.3652
 5936TIP3   OH239298   0.907   1.238  46.776 -0.2406 -0.5146  0.2212
 5936TIP3    H139299   0.993   1.197  46.772 -0.0568 -0.3966  1.9416
 5936TIP3    H239300   0.851   1.172  46.817 -0.8574 -0.4261 -0.4732
 5937TIP3   OH239301   3.496   1.896  41.424 -0.0591  0.0298  0.0530
 5937TIP3    H139302   3.588   1.919  41.434  0.1191 -0.6811  0.0652
 5937TIP3    H239303   3.480   1.902  41.330  0.0815 -0.1531  0.0163
 5938TIP3   OH239304   0.754   3.562  14.195  0.8115  0.7496  0.3585
 5938TIP3    H139305   0.808   3.637  14.218  1.4315  1.3775 -2.8271
 5938TIP3    H239306   0.690   3.596  14.133 -0.2007 -0.9596  0.4080
 5939TIP3   OH239307   3.083   1.734  40.383  0.2824  0.9184  0.3550
 5939TIP3    H139308   3.126   1.655  40.350  0.3772  0.9040  0.5127
 5939TIP3    H239309   3.000   1.704  40.418  0.7302  0.7489  1.2876
 5940TIP3   OH239310   1.358   2.820  37.796 -0.0416 -0.1597 -0.6092
 5940TIP3    H139311   1.370   2.824  37.891 -0.1475 -0.4706 -0.5827
 5940TIP3    H239312   1.264   2.828  37.783  0.1272  2.3944 -0.8215
 5941TIP3   OH239313   4.007   1.710  45.424  0.7223  0.4532 -0.4069
 5941TIP3    H139314   4.012   1.614  45.426 -1.4693  0.2987 -0.0232
 5941TIP3    H239315   3.934   1.729  45.365 -0.6624  1.7424  1.5735
 5942TIP3   OH239316   1.189   1.968  35.960 -0.0680  0.1288 -0.6754
 5942TIP3    H139317   1.276   2.007  35.957  0.6158 -0.9431  2.2649
 5942TIP3    H239318   1.136   2.024  35.904  2.4852  0.7027 -2.7604
 5943TIP3   OH239319   2.445   0.588   6.400 -0.3463 -0.5553 -0.0218
 5943TIP3    H139320   2.352   0.572   6.418 -0.3950 -0.8240 -0.4822
 5943TIP3    H239321   2.447   0.677   6.365 -0.3809 -0.4110  0.3382
 5944TIP3   OH239322   3.328   3.525   2.014 -0.4221 -0.1703  0.2107
 5944TIP3    H139323   3.245   3.501   2.055 -1.1151 -0.4524 -1.2640
 5944TIP3    H239324   3.306   3.599   1.958 -0.1653 -1.4356 -1.6792
 5945TIP3   OH239325   0.105   1.827  39.774  0.7953 -0.3175 -0.2473
 5945TIP3    H139326   0.039   1.886  39.810 -0.0723 -0.6140 -1.2965
 5945TIP3    H239327   0.180   1.836  39.833  0.1175  0.6395  0.5037
 5946TIP3   OH239328   0.691   3.895  39.811 -0.4872 -0.0245  0.2977
 5946TIP3    H139329   0.669   3.822  39.869  0.3373  0.4695  1.2498
 5946TIP3    H239330   0.787   3.893  39.806 -0.4530  1.0668  0.4178
 5947TIP3   OH239331   3.982   0.282   3.239  0.0404  0.5133 -0.2597
 5947TIP3    H139332   3.890   0.305   3.228 -0.3191  0.7530  2.5366
 5947TIP3    H239333   3.981   0.205   3.296  1.5474  1.4636  1.1346
 5948TIP3   OH239334   2.093   0.666  16.026 -0.0443  0.0583 -0.1408
 5948TIP3    H139335   2.143   0.696  16.102 -0.9373  1.4858 -0.0757
 5948TIP3    H239336   2.120   0.575  16.014  1.4168  0.3239  0.8106
 5949TIP3   OH239337   3.232   1.326  40.030  0.3164 -0.0436  0.7007
 5949TIP3    H139338   3.293   1.295  39.963  1.1602 -1.0055  1.8537
 5949TIP3    H239339   3.286   1.377  40.090 -0.7564  2.3209 -0.2396
 5950TIP3   OH239340   3.261   4.047  28.882 -0.2170  0.0762  0.3395
 5950TIP3    H139341   3.301   3.967  28.849 -1.5896 -0.4835 -0.0349
 5950TIP3    H239342   3.169   4.039  28.859 -0.3281  1.9139  0.0208
 5951TIP3   OH239343   3.527   2.537  46.653  0.0205 -0.0584  0.1435
 5951TIP3    H139344   3.450   2.516  46.601  0.1354 -0.2137  0.0350
 5951TIP3    H239345   3.571   2.453  46.667  1.6389  0.3193 -2.1244
 5952TIP3   OH239346   2.257   4.095  32.066 -0.1579 -0.0627  0.4190
 5952TIP3    H139347   2.224   4.114  31.978  0.0366  0.7073  0.4985
 5952TIP3    H239348   2.215   4.161  32.122  2.3487  1.7306  0.3441
 5953TIP3   OH239349   3.020   0.616   7.886 -0.1162  0.3309 -0.6908
 5953TIP3    H139350   3.087   0.550   7.903  0.0356  0.6238 -0.1540
 5953TIP3    H239351   2.965   0.576   7.818  0.7127  0.1714 -1.2939
 5954TIP3   OH239352   1.569   0.760   3.263  0.5678  0.2112 -0.3003
 5954TIP3    H139353   1.508   0.814   3.312  1.7352  0.8111  0.5229
 5954TIP3    H239354   1.535   0.671   3.271 -0.4149  0.5850 -0.2189
 5955TIP3   OH239355   3.331   1.120  14.875  0.2869  0.3532  0.2933
 5955TIP3    H139356   3.333   1.154  14.965  1.5243  0.9569  0.0565
 5955TIP3    H239357   3.322   1.025  14.886  2.1219  0.2239  1.1446
 5956TIP3   OH239358   2.208   3.787  10.202 -0.0422 -0.1106 -0.0604
 5956TIP3    H139359   2.192   3.760  10.112  1.1684  1.3156 -0.7458
 5956TIP3    H239360   2.234   3.878  10.196 -1.4417  0.5026  1.9038
 5957TIP3   OH239361   1.158   2.592  12.289 -0.4836 -0.0699 -0.1738
 5957TIP3    H139362   1.245   2.594  12.327  0.4103  1.1445 -2.1346
 5957TIP3    H239363   1.138   2.499  12.279 -0.3221 -0.4260  2.0969
 5958TIP3   OH239364   1.898   0.152  40.785  0.2926 -1.0130 -0.5884
 5958TIP3    H139365   1.824   0.178  40.840  1.7387  0.7021  0.6563
 5958TIP3    H239366   1.956   0.103  40.844  1.0436 -0.6877 -1.0492
 5959TIP3   OH239367   3.064   3.352  38.892  0.3905 -0.1062 -0.0027
 5959TIP3    H139368   2.973   3.375  38.875  0.2194 -0.4552  0.4404
 5959TIP3    H239369   3.101   3.429  38.934  0.4975  0.3105 -0.8336
 5960TIP3   OH239370   0.869   2.847  35.212 -0.4174 -0.1741  0.0885
 5960TIP3    H139371   0.867   2.816  35.302 -2.6261  0.1591  0.2231
 5960TIP3    H239372   0.929   2.921  35.212  0.1231 -0.5980  1.1211
 5961TIP3   OH239373   3.314   0.991  47.044 -0.3601  0.2159 -0.2024
 5961TIP3    H139374   3.362   0.910  47.029 -0.5342 -0.3317  1.8502
 5961TIP3    H239375   3.246   0.992  46.977 -1.3519 -2.1660  0.6624
 5962TIP3   OH239376   3.380   2.310  10.543  0.1380  0.3439 -0.5389
 5962TIP3    H139377   3.285   2.298  10.552  0.2246 -0.8481 -1.0389
 5962TIP3    H239378   3.391   2.353  10.458  0.1540 -1.6649 -1.6056
 5963TIP3   OH239379   2.412   4.097  14.347 -0.0845  0.3681  0.1047
 5963TIP3    H139380   2.440   4.189  14.345  0.9820  0.0515 -0.3858
 5963TIP3    H239381   2.457   4.056  14.274 -1.3626 -0.3450 -0.3186
 5964TIP3   OH239382   3.944   0.857   4.990 -0.3661  0.3436 -0.1748
 5964TIP3    H139383   4.002   0.808   4.932 -1.5296 -0.3011 -0.8415
 5964TIP3    H239384   3.994   0.870   5.070 -0.5305 -3.5050  0.7430
 5965TIP3   OH239385   3.366   2.326  20.749  0.1429 -0.7368 -0.2143
 5965TIP3    H139386   3.406   2.256  20.801 -0.5081 -0.7783  0.2494
 5965TIP3    H239387   3.422   2.402  20.764 -0.1158 -0.7046  0.6954
 5966TIP3   OH239388   2.558   2.682  14.535  0.0671  0.2622 -0.4902
 5966TIP3    H139389   2.557   2.600  14.485 -2.7983  0.0943 -0.3621
 5966TIP3    H239390   2.602   2.745  14.478  1.7004 -1.1614 -0.8788
 5967TIP3   OH239391   2.643   1.893  42.362  0.6590 -0.5666  0.1767
 5967TIP3    H139392   2.590   1.971  42.378 -0.5826 -1.6528  1.7467
 5967TIP3    H239393   2.724   1.908  42.411  0.3431 -0.3231  0.6293
 5968TIP3   OH239394   1.045   1.923  39.184 -0.4568  0.2583 -0.2938
 5968TIP3    H139395   0.982   1.863  39.144 -1.0039 -0.5095  1.6334
 5968TIP3    H239396   1.038   2.003  39.132 -2.4094 -0.0974 -0.6490
 5969TIP3   OH239397   2.559   1.348  15.076 -0.4053  0.0514  0.2534
 5969TIP3    H139398   2.613   1.312  15.006 -1.9531 -2.9503  0.4628
 5969TIP3    H239399   2.580   1.295  15.153 -1.6735  0.6045  1.0218
 5970TIP3   OH239400   2.838   3.572   0.836 -0.4876 -0.0861  0.3121
 5970TIP3    H139401   2.784   3.639   0.878  0.0542 -0.2819  1.3373
 5970TIP3    H239402   2.783   3.494   0.834  0.3666 -0.8797  3.1888
 5971TIP3   OH239403   2.377   3.893   6.379  0.0394 -0.5867  0.1397
 5971TIP3    H139404   2.452   3.878   6.322  0.6648  0.2226  0.7334
 5971TIP3    H239405   2.311   3.931   6.321  0.9047  0.8666  0.0592
 5972TIP3   OH239406   1.718   1.898  21.757 -0.2609 -0.0815  0.1616
 5972TIP3    H139407   1.783   1.920  21.690 -1.4956  2.1511 -0.3904
 5972TIP3    H239408   1.770   1.874  21.833  1.2473  1.1805 -0.4086
 5973TIP3   OH239409   1.062   0.816  42.667 -0.2027  0.3059 -0.0481
 5973TIP3    H139410   1.019   0.809  42.581 -0.0428  0.7987 -0.1718
 5973TIP3    H239411   1.099   0.904  42.668 -1.2837  0.7727  1.0413
 5974TIP3   OH239412   3.106   3.636  41.555  0.2343  0.0755  0.1867
 5974TIP3    H139413   3.114   3.556  41.607  0.6431 -0.0669 -0.0914
 5974TIP3    H239414   3.046   3.691  41.605  2.4485  0.9335  2.0568
 5975TIP3   OH239415   3.898   1.406  32.541  0.4563 -0.0386 -0.3274
 5975TIP3    H139416   3.955   1.335  32.511 -0.4027  0.7369 -4.4008
 5975TIP3    H239417   3.952   1.485  32.534  0.3559  0.1448  0.7888
 5976TIP3   OH239418   3.793   0.637  31.307 -0.5874  0.9200 -0.0582
 5976TIP3    H139419   3.697   0.638  31.296 -0.6332  1.4399  0.3543
 5976TIP3    H239420   3.822   0.717  31.262 -0.4633  1.3645  0.7939
 5977TIP3   OH239421   1.607   3.825  35.044 -0.1535 -0.4011  0.0492
 5977TIP3    H139422   1.630   3.789  34.958  0.1931  2.1390 -0.9941
 5977TIP3    H239423   1.691   3.843  35.086 -0.3222 -1.0293  0.6814
 5978TIP3   OH239424   3.115   0.367   9.717 -0.1602 -0.7232  0.3887
 5978TIP3    H139425   3.143   0.275   9.727  0.1999 -0.6137  0.4020
 5978TIP3    H239426   3.185   0.417   9.759  0.4613 -0.3505 -1.0191
 5979TIP3   OH239427   2.503   2.457  15.290  0.2085  0.2065  0.4961
 5979TIP3    H139428   2.434   2.515  15.323  0.2802  0.8445 -0.4256
 5979TIP3    H239429   2.459   2.399  15.228 -0.0436 -1.3993  2.1051
 5980TIP3   OH239430   2.979   2.382   5.262 -0.4241 -0.3943 -0.2675
 5980TIP3    H139431   2.889   2.380   5.228 -0.6529 -0.2651  0.3107
 5980TIP3    H239432   3.030   2.331   5.199 -0.7607  0.1736 -1.0133
 5981TIP3   OH239433   0.718   0.181   3.679  0.5417  0.1416 -0.1705
 5981TIP3    H139434   0.672   0.112   3.631 -1.6687 -0.2688  2.3213
 5981TIP3    H239435   0.793   0.135   3.718 -0.2884 -0.6248  0.5659
 5982TIP3   OH239436   3.776   0.468   8.417 -0.1334 -0.4318  0.3318
 5982TIP3    H139437   3.838   0.444   8.486  1.3433 -0.0767 -0.8040
 5982TIP3    H239438   3.696   0.493   8.463  1.2863  1.2807  1.9932
 5983TIP3   OH239439   1.650   0.946   5.891 -0.0276  0.0979  0.5253
 5983TIP3    H139440   1.660   0.931   5.797  1.2737 -0.9609  0.8008
 5983TIP3    H239441   1.565   0.989   5.899  0.4609  1.5243 -1.2583
 5984TIP3   OH239442   1.322   0.069   3.742 -0.0021 -0.3788  0.2446
 5984TIP3    H139443   1.234   0.102   3.727  1.3426  2.5012 -2.5530
 5984TIP3    H239444   1.337   0.007   3.671  0.2773 -0.7816  0.6511
 5985TIP3   OH239445   4.077   4.074   9.757  0.1617 -0.3548 -0.1652
 5985TIP3    H139446   4.144   4.008   9.734  0.9823 -0.4263  2.1824
 5985TIP3    H239447   3.994   4.027   9.747  0.5941 -1.0185 -0.7966
 5986TIP3   OH239448   3.007   3.478  13.804  0.2443 -0.1624 -0.1937
 5986TIP3    H139449   3.093   3.471  13.763  0.2065 -0.3338 -0.2449
 5986TIP3    H239450   2.949   3.507  13.735  0.3688  0.4999 -0.0219
 5987TIP3   OH239451   1.874   0.300  14.608 -0.4638 -0.7222 -0.5689
 5987TIP3    H139452   1.830   0.267  14.686  1.3165  0.1801  0.9188
 5987TIP3    H239453   1.946   0.239  14.594 -0.0410 -0.1935 -0.7339
 5988TIP3   OH239454   3.159   0.491  44.016  0.0874 -0.2524 -0.4818
 5988TIP3    H139455   3.148   0.400  43.990 -0.8733 -0.2115 -0.2314
 5988TIP3    H239456   3.160   0.539  43.933  0.1209 -0.4356 -0.5873
 5989TIP3   OH239457   0.663   3.512  13.205 -0.0507  0.3304  0.0598
 5989TIP3    H139458   0.615   3.592  13.186 -1.3500 -0.3899  0.2001
 5989TIP3    H239459   0.712   3.532  13.285 -0.2915  1.0066  0.0478
 5990TIP3   OH239460   0.943   0.357   3.001  0.0023  0.6727 -0.1979
 5990TIP3    H139461   0.998   0.317   2.935  0.1891  1.7604 -0.7342
 5990TIP3    H239462   0.905   0.284   3.049  0.3572 -0.1222 -1.0977
 5991TIP3   OH239463   0.737   0.557  12.499  0.8867 -0.3786  0.3394
 5991TIP3    H139464   0.695   0.525  12.419 -0.0701  0.8501  0.3209
 5991TIP3    H239465   0.829   0.568  12.475  0.6792 -0.3831 -0.4798
 5992TIP3   OH239466   1.924   1.192   0.688  0.1051 -0.2748 -0.2064
 5992TIP3    H139467   1.901   1.135   0.615  0.3313  0.0915 -0.5703
 5992TIP3    H239468   1.951   1.274   0.647 -2.1349  0.8147  0.3554
 5993TIP3   OH239469   0.446   2.101   6.358  0.2349 -0.4886 -0.5081
 5993TIP3    H139470   0.459   2.015   6.319 -0.3990 -1.1828  0.7290
 5993TIP3    H239471   0.491   2.162   6.300 -0.0421 -1.5501 -1.8777
 5994TIP3   OH239472   0.768   0.082   1.096 -0.1947 -0.2717  0.1266
 5994TIP3    H139473   0.672   0.087   1.102 -0.2801 -0.8942 -0.5675
 5994TIP3    H239474   0.785  -0.008   1.071  0.5048  0.1660 -1.0302
 5995TIP3   OH239475   2.366   0.267  25.286 -0.0491 -0.1748  0.0852
 5995TIP3    H139476   2.376   0.316  25.368 -0.1069  1.2776 -0.7486
 5995TIP3    H239477   2.286   0.302  25.247  1.2176  0.8734 -1.7210
 5996TIP3   OH239478   3.107   2.210   2.781  0.0806 -0.0278 -0.2477
 5996TIP3    H139479   3.126   2.153   2.707  1.0372 -0.8461  0.5910
 5996TIP3    H239480   3.153   2.169   2.855 -0.5758  0.9386  0.7261
 5997TIP3   OH239481   1.132   1.900  31.454 -0.1884 -0.4009  0.5564
 5997TIP3    H139482   1.222   1.894  31.420 -0.0023 -0.0746  0.9802
 5997TIP3    H239483   1.085   1.951  31.388  0.0430 -0.2272  0.5213
 5998TIP3   OH239484   0.856   2.700   4.398 -0.1453 -0.2956  0.0229
 5998TIP3    H139485   0.854   2.794   4.384 -0.0234  0.1507  2.4715
 5998TIP3    H239486   0.764   2.675   4.405 -0.1601 -0.1164  0.5522
 5999TIP3   OH239487   1.415   0.617   2.397  0.0155 -0.4873 -0.0180
 5999TIP3    H139488   1.401   0.532   2.438 -2.5397 -0.7658 -1.2751
 5999TIP3    H239489   1.340   0.670   2.425  0.1713  0.4904 -1.3294
 6000TIP3   OH239490   2.852   1.507   5.522  0.3177 -1.1941  0.0734
 6000TIP3    H139491   2.905   1.536   5.596 -1.6784  2.3798  0.3391
 6000TIP3    H239492   2.776   1.466   5.562 -2.0789  3.0464  0.4712
 6001TIP3   OH239493   2.193   2.671  33.046 -0.1931  0.0850 -0.0329
 6001TIP3    H139494   2.165   2.614  33.118  3.8984 -2.6115 -0.2156
 6001TIP3    H239495   2.116   2.679  32.990 -2.9248  0.5514  3.4346
 6002TIP3   OH239496   1.952   2.574  32.484 -0.7291 -0.2478 -0.4885
 6002TIP3    H139497   2.033   2.623  32.469 -0.0871 -1.3294 -0.6784
 6002TIP3    H239498   1.887   2.618  32.429  0.0410 -0.1381 -1.3308
 6003TIP3   OH239499   2.111   2.088  37.598  0.1647 -0.1852 -0.2872
 6003TIP3    H139500   2.087   2.119  37.685  0.6571  0.9401 -0.5416
 6003TIP3    H239501   2.125   1.994  37.610  0.4494 -0.0105  0.8934
 6004TIP3   OH239502   3.902   2.077  17.764 -0.3014  0.1807 -0.0134
 6004TIP3    H139503   3.848   2.075  17.685  0.5423  0.6529 -0.6196
 6004TIP3    H239504   3.846   2.114  17.832 -0.5196  1.3056 -0.8028
 6005TIP3   OH239505   1.390   2.300  35.309  0.0714 -0.4590 -0.2958
 6005TIP3    H139506   1.363   2.380  35.263  1.1301  0.1159  0.0250
 6005TIP3    H239507   1.472   2.325  35.353  1.1496 -2.0916 -1.2528
 6006TIP3   OH239508   3.458   2.737  46.433  0.3372  0.0386 -0.1492
 6006TIP3    H139509   3.502   2.814  46.469 -0.2011  0.2954 -0.0356
 6006TIP3    H239510   3.432   2.763  46.345 -1.2158  0.5354  0.4278
 6007TIP3   OH239511   3.107   2.211  39.597  0.2778 -0.1923 -0.2638
 6007TIP3    H139512   3.159   2.138  39.563 -1.3950 -1.2815 -0.5772
 6007TIP3    H239513   3.018   2.178  39.600 -0.3000  1.3527  1.0574
 6008TIP3   OH239514   0.500   3.506   1.896 -0.1679 -0.2574  1.3052
 6008TIP3    H139515   0.450   3.428   1.873  0.6692 -0.7783  1.1952
 6008TIP3    H239516   0.503   3.557   1.815  2.8033 -2.1040  0.0608
 6009TIP3   OH239517   3.974   1.547  35.785  0.2414  0.2949  0.0054
 6009TIP3    H139518   3.888   1.578  35.758  0.2859  0.8124  0.4484
 6009TIP3    H239519   4.012   1.510  35.706 -0.0226  0.8995 -0.4111
 6010TIP3   OH239520   0.380   0.284  36.684 -0.1062  0.5445 -0.6519
 6010TIP3    H139521   0.409   0.369  36.716  1.0544 -0.0789  0.0181
 6010TIP3    H239522   0.373   0.295  36.589  1.1571  1.0740 -0.7056
 6011TIP3   OH239523   4.091   2.111   9.699  0.1513  0.0575 -0.0711
 6011TIP3    H139524   4.027   2.135   9.765  0.7610 -0.0009  0.5494
 6011TIP3    H239525   4.039   2.077   9.626 -0.4943 -0.6093  0.6798
 6012TIP3   OH239526   1.196   3.169   0.110 -0.0353  0.0542  0.0892
 6012TIP3    H139527   1.213   3.075   0.115 -0.6720 -0.0075  2.2035
 6012TIP3    H239528   1.120   3.177   0.052 -0.2479 -0.7891  0.2388
 6013TIP3   OH239529   2.984   3.814  42.883  0.1468  0.2746  0.3522
 6013TIP3    H139530   3.079   3.820  42.883  0.2894 -1.3907 -0.0511
 6013TIP3    H239531   2.955   3.879  42.947  1.6130  0.0780  1.2495
 6014TIP3   OH239532   1.848   2.997  33.166 -0.2625 -0.0273 -0.0445
 6014TIP3    H139533   1.941   2.975  33.170 -0.1936 -0.5941 -2.8402
 6014TIP3    H239534   1.822   3.009  33.257  2.4417 -0.2547  0.8323
 6015TIP3   OH239535   0.375   4.005  25.698 -0.4284 -0.3242  0.4012
 6015TIP3    H139536   0.465   4.025  25.672 -0.2142 -1.7093 -0.0325
 6015TIP3    H239537   0.338   3.961  25.621 -1.5133  0.3061  0.5445
 6016TIP3   OH239538   0.505   2.981   8.470 -0.0685  0.3378  0.2213
 6016TIP3    H139539   0.557   2.956   8.394 -1.3972  0.7881 -0.8777
 6016TIP3    H239540   0.452   2.904   8.489 -0.5484  0.6053 -0.0213
 6017TIP3   OH239541   1.744   0.643  39.726 -0.1804  0.1463  0.4221
 6017TIP3    H139542   1.773   0.551  39.723 -0.7091 -0.0639 -3.2032
 6017TIP3    H239543   1.656   0.642  39.688  0.1872  2.2145 -0.6621
 6018TIP3   OH239544   0.075   0.012   7.691  0.1129  0.1855  0.3095
 6018TIP3    H139545   0.147  -0.023   7.745  1.7093  0.8921 -1.2777
 6018TIP3    H239546   0.117   0.042   7.611 -2.3651 -2.5890 -2.2753
 6019TIP3   OH239547   1.260   3.775  13.809 -0.1105 -0.2316 -0.0346
 6019TIP3    H139548   1.343   3.763  13.764  0.4551  1.2441  0.5493
 6019TIP3    H239549   1.278   3.750  13.899  0.2154  1.6570  0.4745
 6020TIP3   OH239550   2.998   1.984   0.920 -0.2721 -0.3856  0.7794
 6020TIP3    H139551   2.951   1.963   0.839 -0.5574 -0.0102  0.8417
 6020TIP3    H239552   2.948   1.940   0.989  0.1817 -1.0054  0.7108
 6021TIP3   OH239553   0.154   1.522  12.580 -0.4322  0.0071  0.0212
 6021TIP3    H139554   0.223   1.458  12.564 -1.2314 -0.8765  0.0172
 6021TIP3    H239555   0.185   1.602  12.538  1.6992  0.3661  2.0400
 6022TIP3   OH239556   2.288   3.049  38.033 -0.2953 -0.4348 -0.6891
 6022TIP3    H139557   2.237   3.117  37.988 -0.1232  0.0549 -0.1546
 6022TIP3    H239558   2.378   3.080  38.027 -0.3602  0.1053  0.7696
 6023TIP3   OH239559   2.568   2.785  34.950  0.0241  0.5991 -0.6358
 6023TIP3    H139560   2.490   2.837  34.930 -0.2260  0.1145 -0.9576
 6023TIP3    H239561   2.534   2.701  34.980  0.4197  0.3610 -0.8347
 6024TIP3   OH239562   2.160   3.505  46.188 -0.2714  0.1416 -0.0959
 6024TIP3    H139563   2.193   3.586  46.228 -0.3990  0.3011 -0.3176
 6024TIP3    H239564   2.095   3.534  46.124 -0.6737 -0.1573  0.1657
 6025TIP3   OH239565   4.010   0.689  13.234  0.3219 -0.4083  0.7968
 6025TIP3    H139566   4.060   0.613  13.204  0.7031 -0.9879  2.7534
 6025TIP3    H239567   4.069   0.734  13.295  0.0797  1.4525 -0.2762
 6026TIP3   OH239568   1.022   2.836  14.353  0.7123 -0.0138  0.3577
 6026TIP3    H139569   1.025   2.894  14.429 -0.2955 -0.4934  0.7865
 6026TIP3    H239570   1.073   2.760  14.378  0.5309 -0.0926  0.4896
 6027TIP3   OH239571   2.486   1.737   1.130  0.1638  0.6014 -0.0518
 6027TIP3    H139572   2.390   1.739   1.132  0.1433  1.7501 -1.0084
 6027TIP3    H239573   2.507   1.695   1.047  0.4813  1.0836 -0.2147
 6028TIP3   OH239574   1.695   2.756  37.769 -0.0695 -0.2406  0.3276
 6028TIP3    H139575   1.722   2.792  37.853  1.9427 -1.0732  0.1079
 6028TIP3    H239576   1.608   2.793  37.753 -0.0967  0.6647  2.3102
 6029TIP3   OH239577   4.087   2.897   3.909 -0.7361 -0.3644 -0.3495
 6029TIP3    H139578   4.057   2.988   3.910 -2.3389 -0.8611 -0.8146
 6029TIP3    H239579   4.178   2.902   3.939 -0.3597  1.5438 -1.5778
 6030TIP3   OH239580   1.130   3.595  42.513 -0.1476  0.0064  0.3129
 6030TIP3    H139581   1.076   3.536  42.461  0.9546 -0.9367  0.2247
 6030TIP3    H239582   1.117   3.565  42.603  0.6450 -0.5817  0.2411
 6031TIP3   OH239583   2.097   1.543  43.524  0.1562  0.4607  0.6483
 6031TIP3    H139584   2.040   1.617  43.544  0.7656  1.1409 -0.0519
 6031TIP3    H239585   2.047   1.490  43.463  0.9550  2.0771 -1.5382
 6032TIP3   OH239586   0.555   3.362  29.603  0.3846 -0.1269 -0.4355
 6032TIP3    H139587   0.497   3.408  29.664  0.8392 -0.8413  0.5619
 6032TIP3    H239588   0.555   3.417  29.524  0.3990  1.2433  0.4836
 6033TIP3   OH239589   3.032   0.954  44.128 -0.6062  0.1753  0.0744
 6033TIP3    H139590   3.046   0.975  44.221  0.5914 -0.5880  0.0845
 6033TIP3    H239591   3.118   0.963  44.088 -1.0503  0.1576 -0.9003
 6034TIP3   OH239592   3.649   3.061   5.728 -0.4396  0.2996 -0.2766
 6034TIP3    H139593   3.685   2.986   5.775 -1.1694  0.0609 -0.0849
 6034TIP3    H239594   3.725   3.104   5.690  0.1176  0.2397  0.7478
 6035TIP3   OH239595   2.634   2.926  29.866  0.3279  0.7816  0.8948
 6035TIP3    H139596   2.711   2.978  29.842 -0.0931  1.6463  1.3815
 6035TIP3    H239597   2.565   2.957  29.806  0.7255 -1.1169 -0.6502
 6036TIP3   OH239598   1.131   1.474  12.363 -0.5100  0.0401 -0.2377
 6036TIP3    H139599   1.058   1.535  12.361  0.2158  0.9283 -0.1453
 6036TIP3    H239600   1.093   1.392  12.393 -1.7556  0.0784 -1.6024
 6037TIP3   OH239601   3.301   1.825  10.221  0.0585  0.5543  0.2002
 6037TIP3    H139602   3.300   1.843  10.127  1.9040 -1.6720 -0.3285
 6037TIP3    H239603   3.278   1.733  10.228  1.0968  0.3813  1.8322
 6038TIP3   OH239604   0.306   2.148   7.658 -0.0095  0.4666  0.5316
 6038TIP3    H139605   0.273   2.218   7.714 -0.7888  1.8393 -1.5278
 6038TIP3    H239606   0.391   2.181   7.627  0.1223  0.0188  0.4175
 6039TIP3   OH239607   2.033   1.588  43.078  0.0113  0.0039 -0.6011
 6039TIP3    H139608   2.019   1.672  43.036  2.4814  0.7124 -0.1233
 6039TIP3    H239609   2.069   1.532  43.009 -1.6893 -0.7532 -0.9382
 6040TIP3   OH239610   4.025   2.401  44.366 -0.0089 -0.1457  0.0922
 6040TIP3    H139611   4.085   2.461  44.409 -0.7166  0.1069  0.7487
 6040TIP3    H239612   3.956   2.457  44.330 -0.2828 -0.4966  0.0563
 6041TIP3   OH239613   2.056   3.528  40.606  0.0809  0.0821  0.2374
 6041TIP3    H139614   2.090   3.606  40.649 -1.0028  1.2026 -0.8200
 6041TIP3    H239615   1.997   3.488  40.671  1.5246 -0.5608  1.2087
 6042TIP3   OH239616   0.999   2.582  21.337 -0.6385  0.2243  0.4583
 6042TIP3    H139617   1.092   2.565  21.349  0.5246  3.0861 -2.8619
 6042TIP3    H239618   0.972   2.623  21.420  2.0706  2.6044  0.3396
 6043TIP3   OH239619   0.862   3.259  14.459 -0.6156  0.2352 -1.0612
 6043TIP3    H139620   0.895   3.348  14.465 -0.1977  0.0284 -0.0441
 6043TIP3    H239621   0.921   3.214  14.398  0.5043  0.0858  0.1085
 6044TIP3   OH239622   3.934   2.234   4.655  0.6628  0.1786 -0.1435
 6044TIP3    H139623   3.839   2.234   4.646  0.7582 -0.3309 -1.2635
 6044TIP3    H239624   3.962   2.320   4.624  0.6883 -0.2374 -1.2896
 6045TIP3   OH239625   1.925   0.075   2.607 -0.1337 -0.8883 -0.6060
 6045TIP3    H139626   1.862   0.016   2.649  0.4054 -0.4152  0.9193
 6045TIP3    H239627   1.998   0.081   2.669  0.2088  0.6867 -1.1134
 6046TIP3   OH239628   3.726   0.344   3.227 -0.3953  0.4172 -0.5835
 6046TIP3    H139629   3.694   0.414   3.171 -0.3895  0.8682 -0.0279
 6046TIP3    H239630   3.656   0.279   3.227 -0.7008  0.7446 -0.5347
 6047TIP3   OH239631   2.193   2.847  14.328  0.1606 -0.0689 -0.0223
 6047TIP3    H139632   2.242   2.880  14.253 -1.5738  2.0477 -0.3072
 6047TIP3    H239633   2.223   2.899  14.402  0.2249 -0.5863  0.3240
 6048TIP3   OH239634   3.622   1.646  40.090 -0.4385  0.8391  0.1202
 6048TIP3    H139635   3.619   1.554  40.061 -2.4511  0.3565  1.6494
 6048TIP3    H239636   3.657   1.642  40.179 -0.5220  1.5580  0.1914
 6049TIP3   OH239637   1.382   4.102  26.926 -0.2660 -0.5178 -0.0294
 6049TIP3    H139638   1.446   4.070  26.864 -2.1915 -2.9603 -0.9325
 6049TIP3    H239639   1.298   4.091  26.882 -1.7486 -2.4562  2.9576
 6050TIP3   OH239640   3.045   1.474  11.214 -0.1710 -0.3369  0.1763
 6050TIP3    H139641   3.074   1.388  11.245 -0.2568 -0.1427  0.8181
 6050TIP3    H239642   3.098   1.491  11.136 -0.5112 -1.1920 -0.2468
 6051TIP3   OH239643   2.174   3.561  41.256  0.4283  0.4229  0.1335
 6051TIP3    H139644   2.220   3.566  41.172  0.8598 -3.1822 -0.0173
 6051TIP3    H239645   2.236   3.516  41.314 -0.9090  0.3203  1.5322
 6052TIP3   OH239646   3.183   3.815  37.198 -0.3177  0.3457 -0.2752
 6052TIP3    H139647   3.197   3.908  37.181 -0.1366  0.8688  2.3112
 6052TIP3    H239648   3.088   3.802  37.190 -0.1946  0.3397 -2.2070
 6053TIP3   OH239649   0.383   3.208   1.046  0.7892 -0.2672  0.6296
 6053TIP3    H139650   0.392   3.118   1.077  1.1024 -1.0310 -1.4863
 6053TIP3    H239651   0.448   3.215   0.976  0.2283  1.3589  0.2441
 6054TIP3   OH239652   1.514   0.960  40.325 -0.0098  0.3308 -0.0551
 6054TIP3    H139653   1.517   0.971  40.230  0.5590  1.1627  0.0485
 6054TIP3    H239654   1.550   0.872  40.340 -2.1139 -0.7179 -0.7303
 6055TIP3   OH239655   2.304   2.809  32.759 -0.0301  0.4667 -0.1742
 6055TIP3    H139656   2.252   2.853  32.692 -1.0439  1.1293  1.0063
 6055TIP3    H239657   2.322   2.877  32.824  0.5418 -0.2677  0.4578
 6056TIP3   OH239658   2.861   0.321   5.561  0.0058 -0.4907  0.0866
 6056TIP3    H139659   2.957   0.320   5.566 -0.0096  0.5721  0.9603
 6056TIP3    H239660   2.834   0.381   5.630 -1.4173 -2.5570  1.4532
 6057TIP3   OH239661   1.506   0.148  39.416 -1.0569 -0.4796 -0.0161
 6057TIP3    H139662   1.543   0.062  39.393 -1.8081 -0.8167  0.0041
 6057TIP3    H239663   1.434   0.127  39.477 -0.1394  0.2848  1.3828
 6058TIP3   OH239664   4.082   1.700   3.612 -0.1362  0.4947 -0.3416
 6058TIP3    H139665   4.147   1.768   3.596  1.7033 -0.7269  1.4517
 6058TIP3    H239666   4.042   1.724   3.696 -0.2208 -0.0635 -0.2176
 6059TIP3   OH239667   1.594   2.611  33.819  0.0370  0.3036 -0.0920
 6059TIP3    H139668   1.634   2.698  33.823  0.5015  0.1021 -0.2967
 6059TIP3    H239669   1.659   2.553  33.857  0.3669 -0.1801 -1.3456
 6060TIP3   OH239670   1.483   1.583   8.721 -0.1226  0.2946  0.0529
 6060TIP3    H139671   1.468   1.525   8.795  0.8182  1.5260  1.2567
 6060TIP3    H239672   1.480   1.671   8.758  0.0867  0.9553 -1.4315
 6061TIP3   OH239673   2.706   0.893  12.169  0.0300  0.2711 -0.2455
 6061TIP3    H139674   2.794   0.924  12.152  0.4143  0.4166  1.7894
 6061TIP3    H239675   2.657   0.971  12.196 -0.7719  0.2104 -1.4253
 6062TIP3   OH239676   3.143   0.200   0.783 -0.5427 -0.4141  0.6169
 6062TIP3    H139677   3.115   0.109   0.773 -0.8196 -0.2207 -0.5255
 6062TIP3    H239678   3.088   0.249   0.722 -0.7287  0.5938  1.5604
 6063TIP3   OH239679   3.556   4.086   5.496  0.7151 -0.8364  0.0314
 6063TIP3    H139680   3.557   3.993   5.475 -0.0496 -0.9147  0.2825
 6063TIP3    H239681   3.560   4.089   5.592  4.0545 -0.4916 -0.0080
 6064TIP3   OH239682   2.972   0.607  45.413  0.4368  0.6572  0.7029
 6064TIP3    H139683   2.990   0.648  45.328 -1.7942 -0.1648 -0.2446
 6064TIP3    H239684   3.013   0.520  45.407 -0.8677  0.0747 -0.1102
 6065TIP3   OH239685   1.281   0.595  31.674  0.4236  0.2168 -0.6315
 6065TIP3    H139686   1.233   0.546  31.742 -1.1404  0.9494 -1.1684
 6065TIP3    H239687   1.368   0.556  31.674 -0.2652 -1.4188  0.1389
 6066TIP3   OH239688   2.053   3.969  29.523  0.3645  0.0571  0.0344
 6066TIP3    H139689   2.046   3.918  29.603 -0.7230  2.2366  1.4326
 6066TIP3    H239690   2.012   3.915  29.456 -1.7744 -0.4888  1.6789
 6067TIP3   OH239691   2.457   4.097   4.375  0.1696  0.4491  0.3484
 6067TIP3    H139692   2.426   4.007   4.362 -0.3635  0.9405 -2.2870
 6067TIP3    H239693   2.378   4.150   4.374  0.6697  1.1910 -0.8790
 6068TIP3   OH239694   0.779   0.523  10.726  0.7843  0.2782  0.5654
 6068TIP3    H139695   0.867   0.527  10.689  0.9479 -1.4492  0.6842
 6068TIP3    H239696   0.779   0.442  10.778 -1.5526 -0.9860 -1.2483
 6069TIP3   OH239697   3.214   1.931  15.428 -0.0601  0.3412 -0.1308
 6069TIP3    H139698   3.191   1.923  15.335  0.2551 -1.6212 -0.0643
 6069TIP3    H239699   3.303   1.899  15.434  0.2697  1.3479  0.7327
 6070TIP3   OH239700   0.260   2.304  42.874  0.5874 -0.4492  0.1702
 6070TIP3    H139701   0.302   2.268  42.951  0.3934 -0.5822  0.2157
 6070TIP3    H239702   0.252   2.230  42.814 -0.0253 -0.5424  0.3578
 6071TIP3   OH239703   3.394   3.122  13.189  0.0159  0.3797 -0.2339
 6071TIP3    H139704   3.380   3.029  13.177 -0.3295  0.3161  0.6250
 6071TIP3    H239705   3.307   3.159  13.200  0.1589  0.7878 -0.4266
 6072TIP3   OH239706   1.570   0.191  42.510  0.6152  0.2109  0.0110
 6072TIP3    H139707   1.491   0.243  42.517  0.3296  0.1380 -2.0173
 6072TIP3    H239708   1.571   0.160  42.419  2.5756 -0.4049  0.1788
 6073TIP3   OH239709   2.986   2.271  45.958 -0.1959  0.1245 -0.1696
 6073TIP3    H139710   2.941   2.338  45.907 -1.1568  0.2580  0.8278
 6073TIP3    H239711   2.972   2.296  46.049  1.0466 -0.3961  0.1901
 6074TIP3   OH239712   1.580   2.101  40.272 -0.8922  0.0841  0.6153
 6074TIP3    H139713   1.590   2.140  40.359 -0.0552 -1.2766  1.1618
 6074TIP3    H239714   1.492   2.063  40.274 -1.0693  0.4911  0.6786
 6075TIP3   OH239715   2.619   4.076  34.412 -0.4132  0.1492  0.8102
 6075TIP3    H139716   2.584   4.009  34.353 -2.9902  1.4444  0.6885
 6075TIP3    H239717   2.697   4.109  34.368  0.0398 -1.6692  0.1476
 6076TIP3   OH239718   3.963   1.372  42.848 -0.7205  0.4911  0.3376
 6076TIP3    H139719   3.897   1.441  42.840 -0.7598  0.5291  0.8911
 6076TIP3    H239720   4.025   1.406  42.913  0.1756  0.7024 -0.6208
 6077TIP3   OH239721   3.744   1.413  17.089 -0.3150 -0.3264 -0.3768
 6077TIP3    H139722   3.665   1.413  17.144 -0.4911 -0.9001 -0.6274
 6077TIP3    H239723   3.784   1.498  17.107 -0.7907 -0.1775  0.0368
 6078TIP3   OH239724   3.447   3.888  38.538 -0.3851 -0.3478 -0.1592
 6078TIP3    H139725   3.368   3.935  38.564 -1.0210 -1.2038 -0.5219
 6078TIP3    H239726   3.438   3.876  38.443  0.2878 -0.2704 -0.2441
 6079TIP3   OH239727   0.142   0.191  31.674 -0.2331 -0.2592 -0.1339
 6079TIP3    H139728   0.143   0.248  31.750  0.1197 -1.8845  1.1517
 6079TIP3    H239729   0.081   0.121  31.697 -1.0399 -0.1798 -1.8551
 6080TIP3   OH239730   2.706   3.991  13.736  0.3377  0.3931  0.2893
 6080TIP3    H139731   2.759   3.964  13.660 -0.1222 -0.1656  0.1654
 6080TIP3    H239732   2.652   4.063  13.703  1.2064  1.1666  0.4918
 6081TIP3   OH239733   1.600   3.972  33.005  0.3243 -0.6429 -0.2808
 6081TIP3    H139734   1.540   4.026  33.057  0.1475 -1.5055  0.4466
 6081TIP3    H239735   1.631   4.030  32.935  1.6286  0.9923  1.5526
 6082TIP3   OH239736   1.350   3.630   8.432 -0.0841 -0.4239  0.6571
 6082TIP3    H139737   1.432   3.602   8.390 -0.4334 -1.4448  0.6458
 6082TIP3    H239738   1.371   3.632   8.525  0.8721  2.4189  0.5092
 6083TIP3   OH239739   1.918   0.407   9.824 -0.1977 -0.1281  0.5483
 6083TIP3    H139740   1.827   0.378   9.826 -0.2463 -0.2914 -1.3670
 6083TIP3    H239741   1.966   0.341   9.874 -0.9846 -0.7294  0.5288
 6084TIP3   OH239742   2.573   2.661   8.341  0.4209  0.3327 -0.1347
 6084TIP3    H139743   2.496   2.717   8.329 -0.7134 -1.0364  0.3811
 6084TIP3    H239744   2.571   2.600   8.267  0.3155 -0.4465  0.4893
 6085TIP3   OH239745   0.290   2.464  33.039  0.7217 -0.3604 -0.1965
 6085TIP3    H139746   0.288   2.430  32.949 -4.1645 -1.8272  0.1744
 6085TIP3    H239747   0.350   2.405  33.085  2.1445 -0.5210 -2.0945
 6086TIP3   OH239748   2.893   3.725   2.294 -0.0600  0.1342 -0.3213
 6086TIP3    H139749   2.916   3.789   2.227  1.6907 -1.3116 -1.2040
 6086TIP3    H239750   2.807   3.693   2.268 -0.1565  0.8242 -0.8915
 6087TIP3   OH239751   3.292   0.338  35.902 -0.1623  0.5359  0.0797
 6087TIP3    H139752   3.325   0.260  35.947  0.8942  0.7135 -0.3617
 6087TIP3    H239753   3.298   0.317  35.809 -0.4330  0.9176 -0.0285
 6088TIP3   OH239754   0.164   3.235  34.846 -0.0741 -0.2305 -0.6442
 6088TIP3    H139755   0.078   3.277  34.851 -0.1233 -0.1326 -2.0156
 6088TIP3    H239756   0.218   3.286  34.907 -0.3274  1.4289 -1.7156
 6089TIP3   OH239757   2.578   1.000  14.109  0.1491  0.3514 -0.0140
 6089TIP3    H139758   2.579   0.915  14.153 -2.3694  0.9766  1.5171
 6089TIP3    H239759   2.488   1.030  14.119  0.0112  1.6261 -3.7242
 6090TIP3   OH239760   3.918   2.746  35.925 -0.5676 -0.3084 -0.0524
 6090TIP3    H139761   3.887   2.836  35.922  0.0221 -0.1182 -1.8378
 6090TIP3    H239762   3.855   2.697  35.871  0.2736 -0.5549 -0.8371
 6091TIP3   OH239763   0.602   3.772  45.936  0.3929  0.3960 -0.0935
 6091TIP3    H139764   0.654   3.738  46.008  1.4897  0.9159 -0.6107
 6091TIP3    H239765   0.521   3.803  45.976 -0.0954 -1.5999  0.5585
 6092TIP3   OH239766   3.974   3.226  39.081 -0.0646 -0.0672  1.0072
 6092TIP3    H139767   3.991   3.237  39.174  0.6939 -1.9043  1.1296
 6092TIP3    H239768   3.895   3.278  39.064  1.8730  3.4319  1.8107
 6093TIP3   OH239769   3.819   3.226  44.247  0.1955  0.0774 -0.0176
 6093TIP3    H139770   3.754   3.275  44.297 -0.0526  1.5171 -1.6617
 6093TIP3    H239771   3.777   3.141  44.230 -0.0726 -0.0824  1.3722
 6094TIP3   OH239772   1.664   0.952  46.826 -0.6193 -0.3004  0.0614
 6094TIP3    H139773   1.659   0.869  46.778 -0.7216 -0.3985  0.2418
 6094TIP3    H239774   1.612   1.013  46.773 -0.6440 -0.3816 -0.0088
 6095TIP3   OH239775   1.552   1.803  32.405 -0.6756 -0.6455 -0.0435
 6095TIP3    H139776   1.566   1.847  32.489 -1.6141  1.0993 -0.7552
 6095TIP3    H239777   1.640   1.788  32.371 -0.2982  1.3557 -0.0701
 6096TIP3   OH239778   3.518   2.816   9.129  0.0041 -0.2419 -0.1012
 6096TIP3    H139779   3.538   2.845   9.040  3.0684  1.6786  1.0687
 6096TIP3    H239780   3.598   2.833   9.178 -0.6465 -3.6881  2.5114
 6097TIP3   OH239781   1.238   0.805  40.583 -0.4876 -0.0619 -0.5511
 6097TIP3    H139782   1.238   0.896  40.553 -1.2077 -0.5477 -2.1000
 6097TIP3    H239783   1.152   0.771  40.558 -0.5696 -0.9255  0.8207
 6098TIP3   OH239784   1.960   2.026   2.932  0.4778  0.3109 -0.0065
 6098TIP3    H139785   1.991   2.025   3.023  1.4216 -0.0176 -0.3242
 6098TIP3    H239786   1.977   1.937   2.901 -0.8199  0.1086 -0.1921
 6099TIP3   OH239787   3.475   1.241  39.204  0.5502 -0.1668  0.5366
 6099TIP3    H139788   3.522   1.300  39.263 -1.8467  0.1268  2.3007
 6099TIP3    H239789   3.411   1.198  39.260 -0.0959 -1.8528 -1.4015
 6100TIP3   OH239790   2.219   2.200  43.354 -0.7668  0.1057  0.0877
 6100TIP3    H139791   2.272   2.152  43.417  0.0805  0.6629 -0.1846
 6100TIP3    H239792   2.157   2.135  43.321 -0.1883 -0.5870  0.3379
 6101TIP3   OH239793   1.827   0.561  33.466  0.0241  0.0830  0.2879
 6101TIP3    H139794   1.854   0.618  33.394 -0.9499 -1.5134 -1.4140
 6101TIP3    H239795   1.900   0.499  33.476  0.2565  0.4386  0.8508
 6102TIP3   OH239796   1.016   0.133  24.711  0.2094  0.2532  0.5365
 6102TIP3    H139797   1.011   0.124  24.807 -1.8037 -3.4558  0.2850
 6102TIP3    H239798   0.942   0.189  24.689 -0.0239  0.1854  1.1228
 6103TIP3   OH239799   1.486   1.716   6.839  0.3641 -0.1571  0.2402
 6103TIP3    H139800   1.456   1.790   6.786 -1.9641 -1.2993 -0.1419
 6103TIP3    H239801   1.561   1.682   6.790  1.4317  1.8291  0.3754
 6104TIP3   OH239802   1.485   0.694  15.361  0.0405  0.2145 -0.0890
 6104TIP3    H139803   1.579   0.715  15.361  0.0221  0.3159  0.3540
 6104TIP3    H239804   1.450   0.741  15.285  0.2744  0.5381 -0.0017
 6105TIP3   OH239805   2.767   1.922  20.929  0.0676  0.4639  0.0505
 6105TIP3    H139806   2.675   1.897  20.923 -0.1280  0.8202  1.2831
 6105TIP3    H239807   2.791   1.902  21.020  0.7624  1.8389  0.1855
 6106TIP3   OH239808   1.481   0.222  32.650  0.1041  0.2448  0.2859
 6106TIP3    H139809   1.448   0.306  32.683 -1.1127 -0.4296  0.8679
 6106TIP3    H239810   1.402   0.169  32.639  0.9921 -1.6318  2.2440
 6107TIP3   OH239811   1.447   0.642  42.761  0.1444 -0.0746 -0.2495
 6107TIP3    H139812   1.421   0.733  42.770  2.2429  0.3735  2.6028
 6107TIP3    H239813   1.511   0.642  42.690  1.5845  1.1120  0.9801
 6108TIP3   OH239814   2.952   1.338   1.758  0.2332  0.1258  0.0743
 6108TIP3    H139815   2.878   1.376   1.711 -1.3043 -1.4223  1.1255
 6108TIP3    H239816   2.979   1.263   1.705 -0.1412 -0.3909  0.6159
 6109TIP3   OH239817   0.811   1.624  46.884 -0.4353  0.3096  0.0832
 6109TIP3    H139818   0.795   1.560  46.815 -0.1245  0.3379 -0.0177
 6109TIP3    H239819   0.865   1.691  46.843 -2.4336  1.7148 -0.4138
 6110TIP3   OH239820   3.591   1.994  40.066  0.1716 -0.2736 -0.4104
 6110TIP3    H139821   3.680   1.967  40.043  0.6051  1.1982 -0.5542
 6110TIP3    H239822   3.536   1.920  40.039  1.6253 -2.8346  2.8320
 6111TIP3   OH239823   0.513   0.305  28.866  0.1639 -0.0255  0.1959
 6111TIP3    H139824   0.438   0.362  28.849  0.5764  0.6701  0.6786
 6111TIP3    H239825   0.513   0.293  28.961  2.7337  2.9426  0.7269
 6112TIP3   OH239826   0.845   1.581  17.903 -0.5714  0.1265  0.1573
 6112TIP3    H139827   0.840   1.676  17.890  0.0556  0.1878  0.3412
 6112TIP3    H239828   0.910   1.552  17.839  1.1103  0.1630  1.7891
 6113TIP3   OH239829   1.605   1.540  19.741  0.4247  0.1609 -0.0125
 6113TIP3    H139830   1.651   1.520  19.823  0.5079  1.4989  0.2974
 6113TIP3    H239831   1.540   1.606  19.766 -1.2335 -1.1875 -0.5677
 6114TIP3   OH239832   1.848   4.019   7.195 -0.3130  0.1784 -0.1172
 6114TIP3    H139833   1.893   4.086   7.144 -1.3163  1.5749  0.7420
 6114TIP3    H239834   1.758   4.052   7.204 -0.8701 -1.3438  0.2487
 6115TIP3   OH239835   2.043   0.627  32.718  0.1507  0.0250 -0.1801
 6115TIP3    H139836   2.125   0.588  32.746  0.5829  0.7830 -0.3801
 6115TIP3    H239837   1.993   0.641  32.799 -0.2640 -1.4600 -0.1460
 6116TIP3   OH239838   1.046   3.264  45.524 -0.0800 -0.2382  0.2994
 6116TIP3    H139839   0.961   3.234  45.490  0.2202 -0.7201 -0.0477
 6116TIP3    H239840   1.067   3.341  45.472 -0.1385 -0.3275  0.1441
 6117TIP3   OH239841   3.228   1.699   1.551  0.2959  0.2507 -0.3582
 6117TIP3    H139842   3.188   1.613   1.536  1.3280 -0.1215 -1.0951
 6117TIP3    H239843   3.192   1.755   1.482  0.3697  0.1489 -0.4798
 6118TIP3   OH239844   2.693   3.886   5.977  0.1508  0.0724  0.3482
 6118TIP3    H139845   2.688   3.852   6.067  0.1157 -0.6532  0.0838
 6118TIP3    H239846   2.610   3.861   5.937 -0.3124  1.3961  0.4401
 6119TIP3   OH239847   0.741   0.559  40.156  0.0450 -0.8537 -0.1193
 6119TIP3    H139848   0.818   0.597  40.199 -0.6565 -1.1207  1.4511
 6119TIP3    H239849   0.762   0.561  40.063  0.6484  1.9938 -0.0119
 6120TIP3   OH239850   1.926   1.299  11.121  1.2687 -0.3747  0.3432
 6120TIP3    H139851   1.999   1.287  11.060  0.3360  3.1141 -1.7576
 6120TIP3    H239852   1.951   1.375  11.173 -0.1943 -0.0261  0.5835
 6121TIP3   OH239853   3.085   3.914  14.707  0.3913  0.3800 -0.4004
 6121TIP3    H139854   3.109   3.825  14.680  0.1805  0.2848 -0.2692
 6121TIP3    H239855   3.094   3.966  14.627  0.0317  0.1469 -0.5910
 6122TIP3   OH239856   3.838   1.528  43.265 -0.2569  0.3898  0.0330
 6122TIP3    H139857   3.852   1.558  43.354 -1.1848 -1.9090  1.0335
 6122TIP3    H239858   3.924   1.496  43.237 -0.4950 -1.4296  1.1947
 6123TIP3   OH239859   0.320   2.743  13.620  0.6478  0.1250  0.2089
 6123TIP3    H139860   0.282   2.656  13.626 -0.1879  0.4985  0.5038
 6123TIP3    H239861   0.256   2.794  13.570  0.5755  0.8525  1.0239
 6124TIP3   OH239862   4.070   2.076  10.961 -0.2330 -0.8598 -0.1676
 6124TIP3    H139863   4.030   2.163  10.955  1.1681 -0.0718  1.2162
 6124TIP3    H239864   4.163   2.092  10.943  0.0816 -2.0310  0.3539
 6125TIP3   OH239865   0.224   3.831   9.335  0.6878  0.1482 -0.1887
 6125TIP3    H139866   0.195   3.848   9.425  0.0122 -0.0598 -0.3612
 6125TIP3    H239867   0.270   3.910   9.309 -0.4038  0.8073 -0.1754
 6126TIP3   OH239868   0.432   3.609   2.710  0.0627  0.6555  0.3040
 6126TIP3    H139869   0.508   3.562   2.743 -1.5284 -0.9786  1.8953
 6126TIP3    H239870   0.464   3.696   2.689  3.2403 -0.9861 -2.8840
 6127TIP3   OH239871   0.803   1.889   4.499  0.5019 -0.2628  0.5330
 6127TIP3    H139872   0.869   1.907   4.433  1.3839  0.9622  1.7198
 6127TIP3    H239873   0.722   1.875   4.448  1.1909  0.4189 -0.7993
 6128TIP3   OH239874   2.838   2.086  14.298 -0.0787 -0.0021 -0.0472
 6128TIP3    H139875   2.867   2.056  14.384 -0.3614  1.0295  0.4288
 6128TIP3    H239876   2.891   2.036  14.236 -1.1989 -2.1851  0.6455
 6129TIP3   OH239877   1.009   1.762  20.700  0.5475  0.0307 -0.2350
 6129TIP3    H139878   1.034   1.725  20.614  1.0085  0.6128 -0.3573
 6129TIP3    H239879   1.088   1.753  20.753 -0.8470 -4.2322  1.5575
 6130TIP3   OH239880   2.817   1.946   4.235  0.2841  0.3405 -0.1119
 6130TIP3    H139881   2.856   2.027   4.203  0.0504  0.2700 -0.5766
 6130TIP3    H239882   2.837   1.945   4.329 -0.5424  1.4125  0.0972
 6131TIP3   OH239883   2.979   1.862  32.044  0.1366  0.0614  0.3478
 6131TIP3    H139884   2.993   1.777  32.084  1.6483  0.0518 -0.1451
 6131TIP3    H239885   3.056   1.914  32.070  0.6771  0.3622 -1.6694
 6132TIP3   OH239886   1.604   0.135  36.106 -0.0882  0.1131  0.1227
 6132TIP3    H139887   1.639   0.163  36.191 -2.5011 -0.8598  1.5427
 6132TIP3    H239888   1.517   0.174  36.102 -0.7267 -1.3476 -1.0826
 6133TIP3   OH239889   1.261   4.082  34.299 -0.0386  0.1547  0.1105
 6133TIP3    H139890   1.329   4.120  34.354 -0.6015  1.0989  0.1724
 6133TIP3    H239891   1.183   4.135  34.316 -1.4697 -2.2582  1.7984
 6134TIP3   OH239892   1.789   3.516  44.992  0.5345  0.0117 -0.1509
 6134TIP3    H139893   1.791   3.422  45.009 -1.2605 -0.3640 -1.7241
 6134TIP3    H239894   1.800   3.556  45.078 -0.1686 -1.6612  0.7526
 6135TIP3   OH239895   0.237   1.598  16.239  0.1109  0.1000  0.1458
 6135TIP3    H139896   0.240   1.636  16.326 -0.1011  0.7699 -0.1302
 6135TIP3    H239897   0.182   1.520  16.248 -0.6886  0.6930  0.4120
 6136TIP3   OH239898   1.478   2.475  39.823  0.0149  0.6243 -0.2622
 6136TIP3    H139899   1.455   2.492  39.731  0.0081 -0.3953 -0.4512
 6136TIP3    H239900   1.413   2.526  39.873  0.9276  2.4143 -0.7873
 6137TIP3   OH239901   0.924   2.652  35.030  0.5943  0.5762  0.5727
 6137TIP3    H139902   0.915   2.691  34.943 -3.3630  1.6729  1.2797
 6137TIP3    H239903   0.911   2.726  35.090  0.1169 -0.6412  2.0292
 6138TIP3   OH239904   1.579   1.443   2.081 -0.3335 -0.5702 -0.8426
 6138TIP3    H139905   1.581   1.469   2.174 -1.5658 -0.7663 -0.7440
 6138TIP3    H239906   1.542   1.519   2.036  1.5707  0.0813 -1.4079
 6139TIP3   OH239907   2.557   3.808  43.614 -0.4025  0.2063 -0.2759
 6139TIP3    H139908   2.614   3.807  43.691 -2.1876  0.4312  1.1130
 6139TIP3    H239909   2.617   3.819  43.540  1.4142 -0.4948  1.0186
 6140TIP3   OH239910   3.316   0.757  30.657  0.0320 -0.2094 -0.4314
 6140TIP3    H139911   3.370   0.679  30.643 -0.5639 -0.5415 -0.9561
 6140TIP3    H239912   3.378   0.826  30.679  0.6842 -0.5234 -1.2581
 6141TIP3   OH239913   2.356   3.540  40.978  0.2915  0.1780 -0.2859
 6141TIP3    H139914   2.278   3.517  40.928 -0.8763  0.5483  1.2662
 6141TIP3    H239915   2.345   3.634  40.997  0.2049 -0.1465  1.4080
 6142TIP3   OH239916   0.479   2.515  12.505 -0.2992 -0.4081 -0.5013
 6142TIP3    H139917   0.530   2.556  12.436  0.0679 -1.0978 -0.6526
 6142TIP3    H239918   0.420   2.584  12.537  0.4946  0.3035 -0.5479
 6143TIP3   OH239919   0.238   3.395  27.380 -0.0718  0.1384 -0.1300
 6143TIP3    H139920   0.188   3.338  27.438  0.1075 -0.8047 -0.8952
 6143TIP3    H239921   0.200   3.482  27.395 -1.1127 -0.3507  0.2082
 6144TIP3   OH239922   0.471   3.405   4.922  0.0994  0.5284  0.1631
 6144TIP3    H139923   0.522   3.335   4.882 -0.6111 -0.0635  0.2787
 6144TIP3    H239924   0.535   3.454   4.975  0.7786  0.5294 -0.6384
 6145TIP3   OH239925   0.474   2.812  12.827  0.3756 -0.2081  0.5804
 6145TIP3    H139926   0.427   2.743  12.781  0.7499 -1.7740  2.3823
 6145TIP3    H239927   0.448   2.893  12.783 -1.5841 -1.2996 -0.4179
 6146TIP3   OH239928   1.602   0.028   6.757  0.0341  0.0884  0.1645
 6146TIP3    H139929   1.670  -0.034   6.784 -0.2988 -0.3420  0.0141
 6146TIP3    H239930   1.569   0.065   6.839  0.9938  0.8935  0.2107
 6147TIP3   OH239931   0.780   1.584  38.123 -1.3193  0.4405 -0.0382
 6147TIP3    H139932   0.734   1.555  38.202  0.2463  0.1397  0.8050
 6147TIP3    H239933   0.855   1.634  38.156 -0.7933  0.5608 -1.3584
 6148TIP3   OH239934   1.854   3.453  45.300 -1.1337 -0.2302 -0.2331
 6148TIP3    H139935   1.790   3.523  45.312  0.6270  2.0559 -2.7169
 6148TIP3    H239936   1.939   3.494  45.319 -0.0766 -1.8131 -1.2168
 6149TIP3   OH239937   3.206   0.359  25.996  0.0467  0.3316 -0.6364
 6149TIP3    H139938   3.133   0.330  26.051 -0.7395 -0.4227 -2.0263
 6149TIP3    H239939   3.185   0.326  25.909  2.3980 -0.5092 -0.9555
 6150TIP3   OH239940   3.352   2.497  43.138  0.7909  0.5742  0.1447
 6150TIP3    H139941   3.360   2.518  43.231  2.1168 -1.1883  0.4942
 6150TIP3    H239942   3.435   2.454  43.116 -0.7018 -2.0118 -0.9930
 6151TIP3   OH239943   1.458   2.117  46.164  0.3907  0.1826 -0.0063
 6151TIP3    H139944   1.386   2.053  46.161 -0.7454  1.4067  0.1453
 6151TIP3    H239945   1.537   2.064  46.168 -0.5852 -1.2834  2.7860
 6152TIP3   OH239946   2.112   1.605  37.245  0.0145 -0.7112  1.2230
 6152TIP3    H139947   2.031   1.633  37.203 -1.4270  2.6178  5.4628
 6152TIP3    H239948   2.093   1.518  37.279  0.2581 -2.2296 -2.1676
 6153TIP3   OH239949   1.432   2.188   3.308  0.0635  0.3616 -0.1103
 6153TIP3    H139950   1.477   2.201   3.391 -0.9719 -1.2274  0.7454
 6153TIP3    H239951   1.499   2.156   3.248  0.5796  0.4122  0.4414
 6154TIP3   OH239952   0.350   0.923   0.150 -0.0209  0.0390  0.7010
 6154TIP3    H139953   0.426   0.882   0.191  0.4883 -1.0120 -1.1704
 6154TIP3    H239954   0.277   0.866   0.170  0.6729 -1.9578 -1.8487
 6155TIP3   OH239955   3.944   2.087  45.815 -0.5829  0.0427 -0.0557
 6155TIP3    H139956   4.022   2.143  45.808 -0.3957 -0.1415  0.4662
 6155TIP3    H239957   3.958   2.017  45.752  0.6315 -1.0993  1.4121
 6156TIP3   OH239958   3.370   1.579  15.435 -0.4677 -0.0606 -0.3227
 6156TIP3    H139959   3.429   1.653  15.420  1.0689 -0.9167  1.0976
 6156TIP3    H239960   3.375   1.563  15.530  0.4988 -2.9302 -0.7565
 6157TIP3   OH239961   0.241   0.510   0.680 -0.0522 -0.5036  0.3090
 6157TIP3    H139962   0.321   0.465   0.651 -0.4314 -1.1547  0.2680
 6157TIP3    H239963   0.204   0.547   0.599  0.3252  0.0010  0.3606
 6158TIP3   OH239964   3.743   2.519   2.789 -0.1933  0.4561  0.1547
 6158TIP3    H139965   3.725   2.564   2.707 -0.6027  0.6671  0.3562
 6158TIP3    H239966   3.783   2.436   2.763 -1.3292  0.0351 -0.3009
 6159TIP3   OH239967   4.019   0.911   9.927  0.0539  0.1063 -0.1060
 6159TIP3    H139968   4.057   0.900  10.014 -1.6506  1.7430  0.9078
 6159TIP3    H239969   3.973   0.828   9.911 -0.8676  0.3337  1.2206
 6160TIP3   OH239970   2.730   2.162  19.334 -0.1001 -0.4665 -0.4342
 6160TIP3    H139971   2.705   2.220  19.405 -0.9241 -0.7536 -0.4814
 6160TIP3    H239972   2.732   2.074  19.373  2.2817 -0.3150 -0.0769
 6161TIP3   OH239973   3.396   0.164   2.707  0.8078 -0.0507 -0.0127
 6161TIP3    H139974   3.402   0.221   2.783  0.4579  0.4072 -0.3196
 6161TIP3    H239975   3.433   0.081   2.736  2.3241  0.6428  0.1320
 6162TIP3   OH239976   2.218   1.942  20.189  0.1084 -0.3508  0.2570
 6162TIP3    H139977   2.194   1.914  20.100  1.3549 -1.6347  0.2976
 6162TIP3    H239978   2.215   2.038  20.185 -0.3450 -0.3969 -1.0310
 6163TIP3   OH239979   3.513   0.106  11.999 -0.1529 -0.0567 -0.0996
 6163TIP3    H139980   3.568   0.095  11.922 -0.5177 -1.1988 -0.2196
 6163TIP3    H239981   3.494   0.200  12.003  0.2230  0.0686 -1.1467
 6164TIP3   OH239982   1.733   1.505   8.496 -0.7443 -0.5088  0.1929
 6164TIP3    H139983   1.803   1.545   8.445 -1.7313 -0.3141 -1.0763
 6164TIP3    H239984   1.657   1.561   8.479 -1.1402 -0.5211  1.7976
 6165TIP3   OH239985   2.625   1.562  19.508  0.1031 -0.6557 -0.5060
 6165TIP3    H139986   2.663   1.586  19.423  0.7246  1.1979  0.2595
 6165TIP3    H239987   2.700   1.532  19.560 -0.1363 -0.8896 -0.2924
 6166TIP3   OH239988   2.071   2.461  34.465 -0.0616 -0.0132  0.1281
 6166TIP3    H139989   2.149   2.405  34.460  0.3389  0.5962 -1.1093
 6166TIP3    H239990   2.096   2.540  34.416 -0.6967  1.1393  1.5905
 6167TIP3   OH239991   0.383   2.235  12.255  0.1232  0.1634  0.0469
 6167TIP3    H139992   0.461   2.178  12.255  0.9688  1.2099 -2.2007
 6167TIP3    H239993   0.372   2.260  12.347  1.9485 -0.6706  0.5485
 6168TIP3   OH239994   2.872   1.574  38.845  0.3084  0.8888  0.0843
 6168TIP3    H139995   2.785   1.542  38.869  1.2850 -0.7998  1.5752
 6168TIP3    H239996   2.886   1.650  38.901  0.8494 -0.4814  1.8860
 6169TIP3   OH239997   0.927   2.668   2.812 -0.1407 -0.1920  0.1621
 6169TIP3    H139998   0.934   2.685   2.718  0.9505 -0.6620  0.1448
 6169TIP3    H239999   0.872   2.590   2.818  0.1676 -0.4366 -0.1211
 6170TIP3   OH240000   3.828   1.406  37.108  0.2140  0.1304 -0.1959
 6170TIP3    H140001   3.825   1.368  37.020 -3.0880  1.5698 -0.8647
 6170TIP3    H240002   3.788   1.492  37.098 -1.3873 -0.1130  2.8866
 6171TIP3   OH240003   0.220   2.807  47.388  0.0481 -0.7709  0.1181
 6171TIP3    H140004   0.156   2.764  47.444 -1.2389  1.1611  0.2302
 6171TIP3    H240005   0.168   2.852  47.322  1.0971  1.8782  0.9200
 6172TIP3   OH240006   3.323   3.285  46.469 -0.8812 -0.1785  0.9813
 6172TIP3    H140007   3.301   3.235  46.548 -1.5130 -1.9571 -0.2443
 6172TIP3    H240008   3.250   3.267  46.408 -1.4930  2.8261  0.6717
 6173TIP3   OH240009   0.352   4.084  37.447  0.3398  0.6415 -0.1831
 6173TIP3    H140010   0.388   4.154  37.393  1.3375 -0.4249 -0.9666
 6173TIP3    H240011   0.311   4.024  37.384  1.3458 -0.5174  0.2145
 6174TIP3   OH240012   2.458   2.768  42.785  0.6588  0.6603  0.2576
 6174TIP3    H140013   2.479   2.772  42.879 -2.7124 -1.8075  1.3290
 6174TIP3    H240014   2.430   2.677  42.771  0.2065  1.1877 -2.9876
 6175TIP3   OH240015   3.762   0.317  35.443 -0.1402 -0.4731 -0.0093
 6175TIP3    H140016   3.675   0.289  35.473  0.2303  0.2875  1.9038
 6175TIP3    H240017   3.791   0.380  35.509  1.9083 -0.7721 -0.5641
 6176TIP3   OH240018   1.430   2.549   4.310 -0.1082  0.6472  0.0044
 6176TIP3    H140019   1.459   2.500   4.233  2.4683  0.3847  1.0306
 6176TIP3    H240020   1.505   2.546   4.370 -2.0188  0.7513  2.5906
 6177TIP3   OH240021   0.471   1.841  15.653 -0.4362 -0.1950  0.6682
 6177TIP3    H140022   0.434   1.823  15.740 -0.1887 -0.2940  0.7533
 6177TIP3    H240023   0.428   1.923  15.625 -0.3664 -0.0556  0.9685
 6178TIP3   OH240024   1.971   2.590  33.467  0.1573 -0.1141 -0.0162
 6178TIP3    H140025   1.969   2.673  33.515  2.9529  0.1337 -0.1349
 6178TIP3    H240026   2.000   2.526  33.532  0.7776 -0.4130 -0.5707
 6179TIP3   OH240027   1.991   1.744  13.582 -0.7659  0.0480  0.5449
 6179TIP3    H140028   1.969   1.832  13.613 -0.2832  0.2490  0.3295
 6179TIP3    H240029   2.087   1.743  13.576 -0.8225  0.0090 -0.8919
 6180TIP3   OH240030   1.989   1.640   6.399  0.2201 -0.1047 -0.6581
 6180TIP3    H140031   2.045   1.563   6.406  1.1112  0.3195 -2.5008
 6180TIP3    H240032   1.903   1.606   6.374  0.5304 -0.5348 -1.1482
 6181TIP3   OH240033   0.506   2.551   9.829 -0.1094 -0.2541 -0.8911
 6181TIP3    H140034   0.435   2.610   9.853  0.4658  0.2755 -0.4444
 6181TIP3    H240035   0.500   2.480   9.892  0.3960  0.3228 -0.1708
 6182TIP3   OH240036   1.183   2.015  13.654 -0.1673 -0.6151  0.4102
 6182TIP3    H140037   1.143   2.061  13.728 -0.3116  0.3563 -0.2611
 6182TIP3    H240038   1.226   2.084  13.603  0.3392 -1.3377 -0.1545
 6183TIP3   OH240039   2.798   3.195  35.645 -0.8347  0.0484  1.1199
 6183TIP3    H140040   2.767   3.171  35.732  0.7909  0.1829  1.7833
 6183TIP3    H240041   2.893   3.203  35.655 -0.8260  2.3600 -0.0912
 6184TIP3   OH240042   0.011   1.912  17.815 -0.3529 -0.0733  0.0780
 6184TIP3    H140043   0.067   1.990  17.807  0.8257 -1.0534 -2.2662
 6184TIP3    H240044  -0.072   1.937  17.774  0.1701 -0.1304 -1.0588
 6185TIP3   OH240045   2.014   2.747  46.453 -0.1012 -0.0184  0.8932
 6185TIP3    H140046   1.973   2.690  46.388 -0.9685  0.2936  1.1528
 6185TIP3    H240047   2.059   2.687  46.512 -0.5493 -0.4020  0.8511
 6186TIP3   OH240048   2.808   2.276  42.935 -0.1656  0.3128 -0.4687
 6186TIP3    H140049   2.713   2.270  42.945 -0.1517 -0.1017 -0.5675
 6186TIP3    H240050   2.842   2.197  42.976  0.0005 -0.5474 -2.1676
 6187TIP3   OH240051   0.707   1.104  46.923 -0.5236 -0.1108  0.1895
 6187TIP3    H140052   0.758   1.069  46.996  0.9608  0.8877 -0.3377
 6187TIP3    H240053   0.660   1.028  46.888  0.4945 -1.0293  0.7700
 6188TIP3   OH240054   3.706   0.510   9.842 -0.3392 -0.2157 -0.1904
 6188TIP3    H140055   3.762   0.492   9.766  2.1082  2.3643  0.8224
 6188TIP3    H240056   3.676   0.424   9.870  2.2161 -1.6831 -1.5376
 6189TIP3   OH240057   0.073   1.600  10.621 -0.2057  0.2709  0.2549
 6189TIP3    H140058   0.112   1.687  10.630 -0.4239  0.6029 -1.6197
 6189TIP3    H240059   0.009   1.609  10.550 -0.5098 -1.3310  0.2823
 6190TIP3   OH240060   4.104   0.310   0.686  0.4018  0.1040 -0.1882
 6190TIP3    H140061   4.072   0.257   0.613  0.0633  0.9023 -0.6246
 6190TIP3    H240062   4.134   0.391   0.646 -0.1172  0.6966  0.5962
 6191TIP3   OH240063   3.630   3.635   3.685  0.3301  0.3453 -0.9827
 6191TIP3    H140064   3.554   3.661   3.633  0.9939  0.7302 -1.7761
 6191TIP3    H240065   3.658   3.715   3.729  0.5558  0.3089 -1.0582
 6192TIP3   OH240066   0.895   3.613  32.735 -0.1861 -0.1795  0.4816
 6192TIP3    H140067   0.818   3.640  32.786 -0.2976 -2.0960  1.4321
 6192TIP3    H240068   0.862   3.602  32.646 -0.4187  1.3910  0.3388
 6193TIP3   OH240069   1.094   4.060  26.085  0.6016 -0.1082 -0.4670
 6193TIP3    H140070   1.087   3.967  26.106 -0.4452  0.2670  1.0005
 6193TIP3    H240071   1.157   4.094  26.147 -2.1712  0.9184  2.0365
 6194TIP3   OH240072   1.174   0.594  31.375 -0.1820 -0.1628  0.4227
 6194TIP3    H140073   1.225   0.596  31.293 -0.6161 -0.8209  0.1237
 6194TIP3    H240074   1.209   0.519  31.423 -1.0421 -0.7992  0.0878
 6195TIP3   OH240075   1.890   2.582  42.008 -0.5130  0.1940  0.4611
 6195TIP3    H140076   1.980   2.585  42.040 -0.2377 -0.2192 -0.2640
 6195TIP3    H240077   1.848   2.513  42.059 -0.3566  0.2317  0.6426
 6196TIP3   OH240078   0.248   2.640  34.468 -0.0941  0.8394  0.0049
 6196TIP3    H140079   0.180   2.704  34.447 -0.7312  0.3571  0.5886
 6196TIP3    H240080   0.231   2.614  34.558 -1.8304 -2.5119 -1.1136
 6197TIP3   OH240081   3.080   2.465  33.845 -0.4960  0.3834  0.4069
 6197TIP3    H140082   3.059   2.466  33.938  2.0609 -0.9084  1.1037
 6197TIP3    H240083   3.124   2.549  33.830 -0.0505  0.1869  0.6038
 6198TIP3   OH240084   1.391   3.206   7.493 -0.2590 -0.3486 -0.0348
 6198TIP3    H140085   1.429   3.235   7.410 -0.5923 -0.2867 -0.1646
 6198TIP3    H240086   1.388   3.284   7.547 -0.4944 -0.2875 -0.1355
 6199TIP3   OH240087   1.824   0.750   8.301 -0.8192 -0.4568  0.2888
 6199TIP3    H140088   1.795   0.764   8.391  1.0619  1.3735  0.7164
 6199TIP3    H240089   1.762   0.688   8.265 -3.1248  0.6246  2.0900
 6200TIP3   OH240090   2.351   0.875  36.131  0.0682  0.2848 -0.1957
 6200TIP3    H140091   2.362   0.783  36.154  0.1886  0.0892 -1.0127
 6200TIP3    H240092   2.434   0.899  36.089  0.5478  1.1339  1.1764
 6201TIP3   OH240093   3.495   2.791   4.830 -0.0855 -0.2401  0.3910
 6201TIP3    H140094   3.543   2.780   4.912 -2.3731  0.4016  1.9041
 6201TIP3    H240095   3.533   2.869   4.790  0.1887  0.2155  1.5025
 6202TIP3   OH240096   1.368   1.071  13.415  0.7793  0.6193  0.2877
 6202TIP3    H140097   1.315   1.143  13.450 -1.2766 -0.6050 -0.1176
 6202TIP3    H240098   1.361   1.080  13.320  0.0585 -0.3901  0.2307
 6203TIP3   OH240099   0.712   0.662   1.214 -0.0215  0.3560 -0.4069
 6203TIP3    H140100   0.626   0.688   1.181  0.0769  4.2301  1.8278
 6203TIP3    H240101   0.695   0.620   1.298  0.2074  3.1001  1.1119
 6204TIP3   OH240102   2.398   1.801  36.072  0.3697  0.2817 -0.5096
 6204TIP3    H140103   2.384   1.723  36.127  0.6562  0.8921  0.4473
 6204TIP3    H240104   2.316   1.850  36.080  0.9125  1.0607  0.5223
 6205TIP3   OH240105   3.668   3.330  43.187 -0.3593  0.6509 -0.6726
 6205TIP3    H140106   3.588   3.359  43.231 -0.2802 -1.0263  0.6913
 6205TIP3    H240107   3.637   3.275  43.115 -0.4345  1.3169 -1.1641
 6206TIP3   OH240108   0.302   3.789  10.210  0.2483  0.0415 -0.3394
 6206TIP3    H140109   0.234   3.726  10.187 -1.5794  1.9980 -0.5704
 6206TIP3    H240110   0.346   3.809  10.127  1.3273 -1.3729 -0.1576
 6207TIP3   OH240111   3.664   2.578   2.170  0.4692 -0.5574 -0.8342
 6207TIP3    H140112   3.756   2.574   2.142  0.6753 -0.1346 -0.2472
 6207TIP3    H240113   3.657   2.662   2.216  0.5425 -1.8253  1.6916
 6208TIP3   OH240114   1.476   3.541   4.508  0.1138  0.0371  0.3149
 6208TIP3    H140115   1.521   3.602   4.565 -0.3215 -1.4329  2.3450
 6208TIP3    H240116   1.384   3.566   4.513  0.2493  0.9383 -1.1386
 6209TIP3   OH240117   1.343   2.274  11.293  0.0399  0.1457 -0.5315
 6209TIP3    H140118   1.310   2.231  11.214 -0.2868 -0.6539  0.0273
 6209TIP3    H240119   1.330   2.209  11.362  1.9017  0.1548 -0.1185
 6210TIP3   OH240120   1.016   3.289  38.602 -0.2522 -0.0289 -0.0365
 6210TIP3    H140121   0.993   3.360  38.542 -0.2251  0.2152  0.2439
 6210TIP3    H240122   1.062   3.332  38.674 -0.3450 -0.3136  0.1945
 6211TIP3   OH240123   3.506   4.068  32.437 -0.1089  0.1712 -0.4388
 6211TIP3    H140124   3.562   4.118  32.378  0.3980  0.2214  0.0729
 6211TIP3    H240125   3.566   4.012  32.486 -0.4280  0.7010  0.5871
 6212TIP3   OH240126   3.721   2.413  44.647 -0.6855 -0.0229 -0.4806
 6212TIP3    H140127   3.804   2.446  44.681 -0.1921 -0.6955 -1.0032
 6212TIP3    H240128   3.697   2.474  44.578 -1.4915  1.1254  0.7709
 6213TIP3   OH240129   0.360   3.917  29.667 -0.1583  0.6412  0.2768
 6213TIP3    H140130   0.322   3.964  29.741 -1.2552 -1.8371  1.4038
 6213TIP3    H240131   0.454   3.918  29.684 -0.3485  0.6462  1.4085
 6214TIP3   OH240132   1.854   2.002  31.136  0.2352 -0.4516 -0.1687
 6214TIP3    H140133   1.762   1.982  31.119  0.2648 -0.5944 -0.1586
 6214TIP3    H240134   1.872   2.078  31.081 -0.4789  0.9169  1.3852
 6215TIP3   OH240135   1.602   2.684  43.629 -0.2921 -0.2064  0.2587
 6215TIP3    H140136   1.692   2.661  43.652 -0.3628 -0.3707  0.3718
 6215TIP3    H240137   1.549   2.611  43.662 -0.4874 -0.0193  0.3671
 6216TIP3   OH240138   0.522   1.187  37.903 -0.6814 -0.2680 -0.0056
 6216TIP3    H140139   0.464   1.186  37.826 -2.4071  1.3693  1.1829
 6216TIP3    H240140   0.561   1.275  37.903 -1.6372  0.2027  1.5923
 6217TIP3   OH240141   1.219   0.207  12.634 -0.1471  0.2777  0.0917
 6217TIP3    H140142   1.244   0.262  12.708  1.4090 -0.6929  0.3327
 6217TIP3    H240143   1.145   0.253  12.594 -0.8419  0.9691  2.0498
 6218TIP3   OH240144   0.412   0.293  38.075  0.0401  0.0094 -0.1380
 6218TIP3    H140145   0.330   0.245  38.058  0.3161 -1.7259  2.7400
 6218TIP3    H240146   0.472   0.262  38.008 -0.4802 -2.0379  0.2625
 6219TIP3   OH240147   3.337   1.799   9.394  0.1051  0.0823 -0.2896
 6219TIP3    H140148   3.353   1.705   9.393  0.0902  0.0783 -0.1629
 6219TIP3    H240149   3.401   1.833   9.457 -0.9580 -0.0328  0.8746
 6220TIP3   OH240150   3.704   3.787  14.027 -0.0946 -0.0050  0.1536
 6220TIP3    H140151   3.642   3.715  14.011  0.3787 -0.9198  2.1953
 6220TIP3    H240152   3.654   3.866  14.005 -1.3405 -0.8236 -0.0779
 6221TIP3   OH240153   4.009   1.980  47.062  0.2048 -0.1787 -0.4939
 6221TIP3    H140154   4.082   2.000  47.121  0.7074 -0.6881 -0.9257
 6221TIP3    H240155   4.051   1.968  46.977 -0.6446  1.7290 -1.2290
 6222TIP3   OH240156   3.023   0.345   2.189 -0.4035  0.1749  0.1091
 6222TIP3    H140157   3.005   0.400   2.113  1.4081  0.1258 -0.4025
 6222TIP3    H240158   3.035   0.408   2.261 -0.1693  0.3366 -0.0712
 6223TIP3   OH240159   3.293   2.831  38.501  0.1516 -0.4526 -0.1164
 6223TIP3    H140160   3.217   2.776  38.484  0.9307 -1.8857  0.8504
 6223TIP3    H240161   3.318   2.865  38.416 -2.1806  0.9268 -0.3431
 6224TIP3   OH240162   3.026   2.972   7.834  0.4996  0.6162 -0.4492
 6224TIP3    H140163   2.977   3.054   7.835 -2.8068 -1.1460 -1.4861
 6224TIP3    H240164   3.016   2.939   7.745  0.3391 -1.6613  0.3471
 6225TIP3   OH240165   3.835   1.337   8.721 -0.5589 -0.2869  0.2657
 6225TIP3    H140166   3.799   1.250   8.708 -1.9739 -0.2023  2.8662
 6225TIP3    H240167   3.810   1.360   8.811  3.3186  1.1372  1.1552
 6226TIP3   OH240168   1.585   1.131  41.282  0.4905  0.5252 -0.1656
 6226TIP3    H140169   1.601   1.045  41.244  0.2264  0.5546 -0.3494
 6226TIP3    H240170   1.661   1.147  41.338 -1.1462 -1.4054  2.8457
 6227TIP3   OH240171   1.414   3.471  35.542 -0.1613 -0.1847 -0.2769
 6227TIP3    H140172   1.488   3.441  35.490  0.3571 -0.6204  0.6929
 6227TIP3    H240173   1.337   3.447  35.491  0.3593  0.6678 -1.5130
 6228TIP3   OH240174   0.180   2.290  43.273 -0.6321 -0.7384 -0.1276
 6228TIP3    H140175   0.145   2.325  43.191 -1.4362  0.6584  0.7702
 6228TIP3    H240176   0.267   2.329  43.281  1.1183 -3.7894 -2.0935
 6229TIP3   OH240177   3.176   1.644  32.951 -0.1208 -0.6541 -0.0649
 6229TIP3    H140178   3.203   1.711  32.889  1.1992 -0.6727  0.4492
 6229TIP3    H240179   3.131   1.692  33.021  0.6164 -0.3034  0.1882
 6230TIP3   OH240180   1.402   0.088  35.220 -0.1285 -0.3122  0.4233
 6230TIP3    H140181   1.453   0.015  35.255 -1.4783 -0.9289  1.2017
 6230TIP3    H240182   1.311   0.062  35.234 -0.6700  0.7627 -0.8881
 6231TIP3   OH240183   0.525   0.047   0.569  0.3230  0.2329  0.3956
 6231TIP3    H140184   0.578   0.037   0.649 -0.0575  0.2643  0.6544
 6231TIP3    H240185   0.482   0.132   0.579  1.0475  0.6975 -0.3124
 6232TIP3   OH240186   3.017   3.221  36.112 -0.6734  0.6112 -0.0726
 6232TIP3    H140187   3.035   3.130  36.132  0.8615  0.5429 -1.5219
 6232TIP3    H240188   2.960   3.251  36.183 -0.0254 -1.0628  1.2145
 6233TIP3   OH240189   2.083   1.146   8.255  0.0888  0.2944  0.0362
 6233TIP3    H140190   2.102   1.109   8.169  1.0677  1.7209 -0.4025
 6233TIP3    H240191   2.004   1.100   8.284 -0.1028 -0.4097 -1.4967
 6234TIP3   OH240192   0.938   2.213  41.456 -0.1795  0.3168 -0.4074
 6234TIP3    H140193   0.941   2.304  41.427  1.1396  0.3003 -0.3982
 6234TIP3    H240194   0.961   2.162  41.379  0.1790  0.0663 -0.1379
 6235TIP3   OH240195   1.061   3.557  45.729  0.5246 -0.6702 -0.8198
 6235TIP3    H140196   0.984   3.564  45.785  1.4390 -0.9136  0.5218
 6235TIP3    H240197   1.109   3.481  45.763  1.6603 -0.1601 -1.2089
 6236TIP3   OH240198   3.290   2.912   9.285  0.3478  0.6357 -0.3451
 6236TIP3    H140199   3.360   2.870   9.235 -0.1943  0.2248 -0.7603
 6236TIP3    H240200   3.214   2.856   9.272 -0.5652  2.0615 -1.4192
 6237TIP3   OH240201   2.391   2.371   5.360  0.1067  0.3570 -0.1337
 6237TIP3    H140202   2.366   2.341   5.272 -0.3656  1.1514 -0.2873
 6237TIP3    H240203   2.325   2.437   5.382  0.1629  0.0924  0.8666
 6238TIP3   OH240204   2.578   1.698  31.726 -0.0808 -0.3490 -0.0049
 6238TIP3    H140205   2.491   1.658  31.722  0.8121 -2.4787  0.2865
 6238TIP3    H240206   2.564   1.789  31.698 -2.4427 -0.4979  0.4529
 6239TIP3   OH240207   3.328   1.523  12.845  0.8609  0.2042 -0.1961
 6239TIP3    H140208   3.307   1.499  12.755 -1.2793 -2.1830  0.8340
 6239TIP3    H240209   3.412   1.479  12.862  0.9239  0.0791 -0.8135
 6240TIP3   OH240210   2.482   2.610  40.632 -0.1822  0.0630 -0.0511
 6240TIP3    H140211   2.528   2.528  40.617  1.0180  0.4788  1.1721
 6240TIP3    H240212   2.515   2.670  40.565 -0.7248 -0.3123 -0.6601
 6241TIP3   OH240213   1.840   0.847   4.059 -0.4938  0.3110  0.1396
 6241TIP3    H140214   1.866   0.777   4.119 -1.7244  0.3988  0.8115
 6241TIP3    H240215   1.922   0.878   4.021  0.2103 -0.4575  0.9894
 6242TIP3   OH240216   1.085   0.979  41.936  0.1178  0.5884 -0.1814
 6242TIP3    H140217   1.134   1.041  41.882 -1.3050  0.6283 -1.4915
 6242TIP3    H240218   1.147   0.953  42.005  0.6914  3.6058  0.5696
 6243TIP3   OH240219   3.949   2.390   6.439 -0.4051 -0.3461 -0.2484
 6243TIP3    H140220   3.989   2.371   6.354  0.2082 -0.3373  0.0376
 6243TIP3    H240221   3.878   2.326   6.446  1.1871 -2.1343  0.3832
 6244TIP3   OH240222   1.334   3.411  45.785 -0.3509 -0.4326  0.3444
 6244TIP3    H140223   1.393   3.348  45.745  0.1397  0.0414  0.3110
 6244TIP3    H240224   1.341   3.489  45.729  1.9468  1.0127  2.4561
 6245TIP3   OH240225   3.877   1.923  46.552  0.1336 -0.4377  0.0031
 6245TIP3    H140226   3.800   1.881  46.591  0.2831  0.3760  1.2362
 6245TIP3    H240227   3.901   1.866  46.479 -0.4424 -1.7705  0.8130
 6246TIP3   OH240228   2.321   3.752  31.273  0.1158  0.0933  0.3975
 6246TIP3    H140229   2.336   3.658  31.274 -0.0709  0.0291 -0.9911
 6246TIP3    H240230   2.372   3.784  31.199  0.9260  1.2316  1.4119
 6247TIP3   OH240231   0.137   0.199  14.388 -0.3818  0.8979  0.1617
 6247TIP3    H140232   0.125   0.124  14.329 -0.0003  1.2970 -0.4269
 6247TIP3    H240233   0.071   0.185  14.456 -0.4924  0.1622 -0.0785
 6248TIP3   OH240234   1.898   2.543  45.000  0.3692 -0.4143  0.3405
 6248TIP3    H140235   1.919   2.575  45.087 -0.9682 -1.7140  1.1851
 6248TIP3    H240236   1.982   2.517  44.963  0.8408 -0.8811  1.6793
 6249TIP3   OH240237   2.006   1.718   4.645  0.4278  0.1656  0.3151
 6249TIP3    H140238   2.058   1.690   4.570 -0.8325 -0.2853 -0.4369
 6249TIP3    H240239   1.920   1.739   4.607 -0.7147 -1.5150  1.8022
 6250TIP3   OH240240   1.650   3.458  47.044 -0.1811 -0.7641  0.2695
 6250TIP3    H140241   1.592   3.385  47.023  1.7787 -2.6744  1.0684
 6250TIP3    H240242   1.721   3.418  47.095  0.6536  1.8334  1.3137
 6251TIP3   OH240243   0.827   1.405  41.209 -0.2900  0.0018 -0.0287
 6251TIP3    H140244   0.847   1.424  41.301  1.0886 -0.5129 -0.1873
 6251TIP3    H240245   0.858   1.483  41.163 -0.2698 -0.0669 -0.1300
 6252TIP3   OH240246   0.296   0.032   0.771  0.3536  0.2832  0.0850
 6252TIP3    H140247   0.284  -0.057   0.804  0.5868  0.8282  1.7825
 6252TIP3    H240248   0.380   0.029   0.724 -1.9622 -1.5523 -4.5363
 6253TIP3   OH240249   1.124   1.690  32.501  0.5990 -0.7701  0.3423
 6253TIP3    H140250   1.074   1.771  32.513 -0.3757 -1.0090 -1.7087
 6253TIP3    H240251   1.186   1.689  32.574 -0.6334  0.8682  1.4839
 6254TIP3   OH240252   0.325   2.607   7.995  0.0264  0.5611  0.1154
 6254TIP3    H140253   0.421   2.605   7.992 -0.0091 -0.8793 -1.1106
 6254TIP3    H240254   0.302   2.548   8.067  0.0351 -0.4387 -0.6948
 6255TIP3   OH240255   1.759   3.581  42.959  0.4496 -0.0077 -0.0420
 6255TIP3    H140256   1.742   3.641  43.032  0.8412  0.1635 -0.0852
 6255TIP3    H240257   1.851   3.555  42.972  0.3753 -0.3505 -0.2035
 6256TIP3   OH240258   2.737   3.044  34.721  0.6520  0.1153 -0.3392
 6256TIP3    H140259   2.647   3.075  34.728  1.2374  1.5921  2.3822
 6256TIP3    H240260   2.778   3.102  34.658  0.8087  2.8011  2.0298
 6257TIP3   OH240261   3.661   1.781  15.252  0.2714  0.0910  0.3901
 6257TIP3    H140262   3.663   1.698  15.204 -0.2259 -0.3376  1.0981
 6257TIP3    H240263   3.654   1.848  15.184  1.7140 -0.3717 -0.2527
 6258TIP3   OH240264   2.421   1.062   3.871 -0.0799 -0.2905 -0.2628
 6258TIP3    H140265   2.515   1.076   3.864 -0.0568 -1.1937 -2.3575
 6258TIP3    H240266   2.392   1.126   3.936  1.8461  0.5035 -0.1211
 6259TIP3   OH240267   0.537   2.235   3.882 -0.2023 -0.0125 -0.4278
 6259TIP3    H140268   0.540   2.325   3.917 -0.3981  0.2887 -1.1752
 6259TIP3    H240269   0.506   2.182   3.956  0.1217  0.4978  0.0840
 6260TIP3   OH240270   2.718   2.766  42.515  0.3285  0.1800  0.1642
 6260TIP3    H140271   2.739   2.688  42.464  0.6252  0.5587 -0.2985
 6260TIP3    H240272   2.622   2.770  42.514  0.3371  0.3358 -0.6010
 6261TIP3   OH240273   0.458   1.285  35.575 -0.8972 -0.0726  0.5024
 6261TIP3    H140274   0.499   1.366  35.606 -0.5908 -0.2236  0.5057
 6261TIP3    H240275   0.382   1.313  35.526  0.3329  0.3273 -1.2615
 6262TIP3   OH240276   3.164   3.123  45.751 -0.5186  0.5210  0.3044
 6262TIP3    H140277   3.244   3.128  45.803 -0.1935  2.0702 -0.3137
 6262TIP3    H240278   3.144   3.029  45.748  2.3407 -0.1719 -1.1153
 6263TIP3   OH240279   3.217   4.031  40.712 -0.0095  0.2374  0.1396
 6263TIP3    H140280   3.224   4.042  40.617 -0.0231 -1.6259 -0.0995
 6263TIP3    H240281   3.229   4.120  40.747  0.4787  0.8773 -1.5641
 6264TIP3   OH240282   0.953   2.527  31.458 -0.3934  0.3092  0.2416
 6264TIP3    H140283   0.955   2.493  31.547  0.6829  2.6992  1.2080
 6264TIP3    H240284   0.861   2.521  31.432 -0.5060 -1.7376  0.8946
 6265TIP3   OH240285   3.618   3.018   1.711  0.0584 -0.0372  0.4505
 6265TIP3    H140286   3.535   2.997   1.668  0.7034  0.8289 -1.3059
 6265TIP3    H240287   3.619   3.114   1.715  1.5182  0.0234 -0.7387
 6266TIP3   OH240288   0.669   1.766  10.803 -0.5536  0.1654  0.1213
 6266TIP3    H140289   0.671   1.791  10.711 -0.7312  0.5076  0.2080
 6266TIP3    H240290   0.675   1.849  10.851 -0.8088  0.0193  0.4131
 6267TIP3   OH240291   1.715   2.466  34.235  0.1371  0.1794 -0.3579
 6267TIP3    H140292   1.748   2.387  34.278 -0.7016  1.0111  2.0158
 6267TIP3    H240293   1.744   2.538  34.291 -0.6397  1.4126 -1.4640
 6268TIP3   OH240294   1.213   2.837  44.693  0.7384 -0.0146  0.3614
 6268TIP3    H140295   1.196   2.930  44.680  1.0532 -0.0224 -0.1185
 6268TIP3    H240296   1.149   2.792  44.638  1.8452 -0.0500 -0.9676
 6269TIP3   OH240297   0.054   0.856  36.055  0.4010  0.0969  0.4144
 6269TIP3    H140298   0.039   0.764  36.035  0.1378  0.0919  0.6387
 6269TIP3    H240299  -0.031   0.890  36.082  0.1655  0.7687 -1.0524
 6270TIP3   OH240300   2.495   3.394  13.645  0.1943 -0.0575  0.2969
 6270TIP3    H140301   2.512   3.413  13.553  1.2599  1.6465  0.8044
 6270TIP3    H240302   2.502   3.479  13.689 -2.5878 -0.4158  1.6456
 6271TIP3   OH240303   2.723   0.483  14.783 -0.0194  0.2580 -0.2535
 6271TIP3    H140304   2.645   0.533  14.805  0.1505  0.4493 -0.0840
 6271TIP3    H240305   2.796   0.538  14.811  0.2329 -1.9004  4.2222
 6272TIP3   OH240306   3.444   3.210  40.169 -0.1059 -0.6432  0.3263
 6272TIP3    H140307   3.470   3.297  40.139  0.1729 -1.3875 -1.7128
 6272TIP3    H240308   3.448   3.216  40.265 -0.8762  1.8135  0.2813
 6273TIP3   OH240309   1.745   0.599  44.427 -0.9838 -0.0695  0.4148
 6273TIP3    H140310   1.694   0.626  44.351  1.7808  0.2018 -1.4913
 6273TIP3    H240311   1.730   0.669  44.492 -1.0886  1.2726 -1.0033
 6274TIP3   OH240312   1.996   3.306  12.205 -0.1408 -0.3638 -0.1005
 6274TIP3    H140313   2.066   3.262  12.157 -0.4302  0.5620 -1.3932
 6274TIP3    H240314   2.040   3.376  12.253 -0.2780  0.9134 -1.7643
 6275TIP3   OH240315   0.694   1.511   9.381 -0.2448  0.2652 -0.0660
 6275TIP3    H140316   0.667   1.603   9.388 -0.6324  0.1482 -0.0224
 6275TIP3    H240317   0.762   1.511   9.314  0.8204  0.8175  0.9752
 6276TIP3   OH240318   3.997   1.802   4.688 -0.0677 -0.5009 -0.0404
 6276TIP3    H140319   4.083   1.844   4.679  0.7799 -1.9728  0.8811
 6276TIP3    H240320   3.995   1.738   4.617 -0.7768  0.1060 -0.5819
 6277TIP3   OH240321   1.065   1.460  14.049  0.3665  0.2151 -0.0902
 6277TIP3    H140322   1.002   1.499  14.110  0.7853 -0.4336  0.7886
 6277TIP3    H240323   1.013   1.403  13.993  0.1581 -0.3649  0.6722
 6278TIP3   OH240324   3.866   1.987   0.435 -0.1003 -0.2846  0.2661
 6278TIP3    H140325   3.808   2.063   0.428 -1.9561 -1.7466 -2.7970
 6278TIP3    H240326   3.824   1.931   0.500 -1.4864 -0.7530 -0.9858
 6279TIP3   OH240327   0.225   2.398  14.980  0.5533 -0.2614 -0.8149
 6279TIP3    H140328   0.237   2.463  14.910  3.6128 -0.8391 -0.9721
 6279TIP3    H240329   0.228   2.314  14.934  0.6824 -0.6034 -0.1825
 6280TIP3   OH240330   1.093   0.626   9.629  0.3600 -0.0509  0.9121
 6280TIP3    H140331   1.017   0.648   9.684  1.2153  0.7600  1.8122
 6280TIP3    H240332   1.059   0.626   9.540 -0.9110 -0.6747  1.3701
 6281TIP3   OH240333   0.034   0.238  37.331 -0.2434 -0.2730 -0.3030
 6281TIP3    H140334   0.093   0.313  37.326  1.3780 -1.4717 -0.0546
 6281TIP3    H240335   0.052   0.188  37.251 -3.2694  0.8883 -1.8976
 6282TIP3   OH240336   0.162   3.609  10.547 -0.6864 -0.5551  0.1760
 6282TIP3    H140337   0.087   3.576  10.498  0.5765 -1.0015 -1.5490
 6282TIP3    H240338   0.127   3.684  10.596 -2.6405 -1.8203  0.8615
 6283TIP3   OH240339   1.553   1.583  15.136 -0.7620 -0.3942  0.0318
 6283TIP3    H140340   1.485   1.546  15.080 -1.5350  0.9792  0.0052
 6283TIP3    H240341   1.552   1.530  15.215 -2.1091 -0.1870  0.1655
 6284TIP3   OH240342   3.187   0.232  34.859 -0.1797  0.1085  0.3568
 6284TIP3    H140343   3.147   0.164  34.913  0.5456 -0.7508 -0.1497
 6284TIP3    H240344   3.281   0.222  34.874  0.0118  0.0934 -0.7746
 6285TIP3   OH240345   3.273   4.107   8.378  0.1515 -0.0771  0.1773
 6285TIP3    H140346   3.210   4.134   8.445 -2.2760 -3.4041 -0.4740
 6285TIP3    H240347   3.232   4.134   8.296  0.1059 -1.2933 -0.2078
 6286TIP3   OH240348   0.772   1.773  31.262 -0.2235  0.1780  0.0124
 6286TIP3    H140349   0.722   1.762  31.181  2.7492 -2.6955 -1.6612
 6286TIP3    H240350   0.820   1.855  31.250 -0.4409  0.2020 -0.7151
 6287TIP3   OH240351   1.809   0.635  37.817  0.2176 -0.4742  0.4599
 6287TIP3    H140352   1.774   0.591  37.894 -0.6761 -0.9856 -0.2184
 6287TIP3    H240353   1.771   0.589  37.743  1.1213 -0.0436 -0.3052
 6288TIP3   OH240354   2.069   3.503  43.367 -0.6733 -0.1544  0.9379
 6288TIP3    H140355   2.062   3.414  43.403 -0.7871 -0.7501 -0.4647
 6288TIP3    H240356   2.153   3.535  43.399 -0.4227 -0.9442  1.1071
 6289TIP3   OH240357   3.532   0.407  11.753  0.3242 -0.0753 -0.1514
 6289TIP3    H140358   3.468   0.339  11.734 -0.9611  1.1831 -0.5558
 6289TIP3    H240359   3.546   0.401  11.848  0.0425 -0.7334 -0.1485
 6290TIP3   OH240360   0.230   0.630  31.819  0.1225 -0.2843 -0.6237
 6290TIP3    H140361   0.225   0.643  31.914 -0.9059 -1.0268 -0.5449
 6290TIP3    H240362   0.184   0.705  31.782  1.3511  0.5048 -0.5992
 6291TIP3   OH240363   3.509   3.899  35.723  0.0403  0.0457 -0.1567
 6291TIP3    H140364   3.588   3.850  35.749 -0.2089  0.2368  1.0180
 6291TIP3    H240365   3.477   3.852  35.646  0.5597 -0.8418  0.1412
 6292TIP3   OH240366   0.198   2.329  21.308 -1.0909 -0.6076  0.0329
 6292TIP3    H140367   0.267   2.394  21.314 -1.7047  0.0454  0.0975
 6292TIP3    H240368   0.208   2.275  21.386 -0.9222 -0.2430  0.2644
 6293TIP3   OH240369   2.527   2.634   9.646 -0.2303  0.1442 -0.2062
 6293TIP3    H140370   2.508   2.590   9.728 -2.8347 -0.7311 -1.1792
 6293TIP3    H240371   2.524   2.727   9.667 -1.8132 -0.0504  0.5406
 6294TIP3   OH240372   1.292   2.104  16.678  0.0842  0.1935  0.3815
 6294TIP3    H140373   1.377   2.143  16.698 -0.3224  0.2538  2.1590
 6294TIP3    H240374   1.245   2.173  16.630  0.6574  0.5372  0.3012
 6295TIP3   OH240375   3.943   1.819   3.214  0.3991 -1.2059 -0.6728
 6295TIP3    H140376   3.864   1.798   3.264 -1.4118 -0.3344 -2.9977
 6295TIP3    H240377   3.957   1.744   3.157 -0.8609  0.0147 -2.7035
 6296TIP3   OH240378   1.843   2.047  20.669 -0.2641  0.1550  0.1460
 6296TIP3    H140379   1.756   2.070  20.700 -0.5951  1.4166 -1.5077
 6296TIP3    H240380   1.899   2.117  20.702  0.1893 -0.7404  1.3423
 6297TIP3   OH240381   1.851   3.254  41.508  0.5310  0.1433  0.1810
 6297TIP3    H140382   1.867   3.348  41.499 -0.6252  0.4271  0.9036
 6297TIP3    H240383   1.917   3.213  41.451  1.1267  1.3739 -0.0498
 6298TIP3   OH240384   2.558   2.098   7.460 -0.4675 -0.7204 -0.0294
 6298TIP3    H140385   2.546   2.192   7.446 -2.4169 -1.1117 -1.4938
 6298TIP3    H240386   2.601   2.068   7.379  1.8647 -0.8814  1.1797
 6299TIP3   OH240387   1.885   3.996  36.473  0.2984  0.1685  0.2476
 6299TIP3    H140388   1.946   4.067  36.495 -1.4275  1.7564  0.1404
 6299TIP3    H240389   1.821   3.997  36.543  0.0786 -1.1156  0.0836
 6300TIP3   OH240390   2.723   3.148  14.028 -0.3126 -0.3291 -0.0939
 6300TIP3    H140391   2.787   3.156  13.958 -0.1893 -1.1357 -0.0907
 6300TIP3    H240392   2.724   3.055  14.050 -1.2989 -0.3082  0.0863
 6301TIP3   OH240393   4.086   3.951  12.982 -0.3357  0.0630  0.0241
 6301TIP3    H140394   4.060   3.999  13.060  0.7398  0.6326  0.0491
 6301TIP3    H240395   4.175   3.921  13.002  0.6219  1.6448 -1.6051
 6302TIP3   OH240396   1.011   0.322  42.828  0.0378  0.8996  0.8204
 6302TIP3    H140397   1.032   0.262  42.756 -0.2820  0.6541  0.9264
 6302TIP3    H240398   1.096   0.350  42.862  0.1884  0.3552  0.8939
 6303TIP3   OH240399   2.717   2.623  15.222 -0.1956  0.5704 -0.9047
 6303TIP3    H140400   2.708   2.678  15.300  0.5307 -0.1396 -0.2991
 6303TIP3    H240401   2.662   2.547  15.239 -0.5107  0.6896 -1.3591
 6304TIP3   OH240402   4.043   1.973   1.959  0.2318  0.3356 -0.2166
 6304TIP3    H140403   4.079   2.036   1.897 -1.6080  2.8828  1.1130
 6304TIP3    H240404   4.101   1.979   2.035  0.2731  0.1316 -0.2319
 6305TIP3   OH240405   2.104   2.181  45.872  0.2932 -0.6480 -0.3738
 6305TIP3    H140406   2.098   2.277  45.866 -0.7794 -0.6543  0.3448
 6305TIP3    H240407   2.014   2.152  45.883  0.5689 -1.7822 -0.9679
 6306TIP3   OH240408   0.784   1.892   1.758  0.1032  0.2422  0.2183
 6306TIP3    H140409   0.782   1.864   1.667  1.1172  1.8651 -0.3528
 6306TIP3    H240410   0.819   1.981   1.755 -1.7716  1.1353  2.0114
 6307TIP3   OH240411   3.625   0.645   5.612  0.1473 -0.4337 -0.3244
 6307TIP3    H140412   3.709   0.639   5.657 -0.6230 -0.8399  1.1564
 6307TIP3    H240413   3.623   0.734   5.577  1.0171 -0.2848 -0.0267
 6308TIP3   OH240414   3.779   0.089  36.992 -0.3341  0.5059 -0.5678
 6308TIP3    H140415   3.839   0.018  37.014 -0.3142  0.6646 -0.0827
 6308TIP3    H240416   3.823   0.168  37.023 -1.0031  0.5751  0.2495
 6309TIP3   OH240417   1.519   3.979  41.332 -0.1319  0.1056 -0.6978
 6309TIP3    H140418   1.532   3.897  41.284  0.5324 -0.6913  0.7472
 6309TIP3    H240419   1.448   3.959  41.394 -0.3683  0.8217 -0.7241
 6310TIP3   OH240420   2.942   1.637   4.423 -0.1616 -0.0794  0.4891
 6310TIP3    H140421   2.936   1.542   4.436  0.8462  0.0245  1.9760
 6310TIP3    H240422   2.914   1.674   4.507  1.7267  0.8526  0.7458
 6311TIP3   OH240423   0.001   0.123  33.470  0.5450  0.2478 -0.6535
 6311TIP3    H140424  -0.036   0.211  33.473  0.9654  0.4182 -0.4756
 6311TIP3    H240425   0.036   0.114  33.382  1.4468  0.6483 -0.3484
 6312TIP3   OH240426   1.121   2.849  12.129  0.0424  0.8343 -0.1842
 6312TIP3    H140427   1.144   2.770  12.179 -0.3135  0.1647 -1.0478
 6312TIP3    H240428   1.184   2.852  12.057  0.7533  1.9714  0.4645
 6313TIP3   OH240429   2.270   2.302   5.614  0.2819 -0.0166 -0.1399
 6313TIP3    H140430   2.188   2.342   5.584  0.2273 -0.3700 -0.4752
 6313TIP3    H240431   2.328   2.307   5.538  0.7120  0.5972  0.2207
 6314TIP3   OH240432   0.725   3.862  33.071 -0.2093  0.4198  0.2130
 6314TIP3    H140433   0.762   3.823  33.150 -3.5135 -0.6971  1.3425
 6314TIP3    H240434   0.732   3.956  33.084 -1.7600  0.2822  2.4508
 6315TIP3   OH240435   3.049   2.774   1.240 -0.7383  0.3758  0.0637
 6315TIP3    H140436   3.030   2.778   1.334  1.3243  0.2746  0.5435
 6315TIP3    H240437   3.124   2.833   1.229  0.2836 -1.0778 -1.1480
 6316TIP3   OH240438   3.806   3.775  14.276 -0.2340 -0.2079  1.1632
 6316TIP3    H140439   3.785   3.801  14.187 -0.1107 -0.1884  1.1392
 6316TIP3    H240440   3.851   3.691  14.267 -0.0887 -0.1348  1.1953
 6317TIP3   OH240441   0.465   1.380   9.214 -0.1241 -0.2416 -0.4267
 6317TIP3    H140442   0.540   1.438   9.229  1.7682 -2.1653 -1.7472
 6317TIP3    H240443   0.399   1.410   9.275  1.4087  2.1077  0.2265
 6318TIP3   OH240444   0.581   2.445   2.648  0.4639 -0.0328 -0.8432
 6318TIP3    H140445   0.659   2.450   2.592  1.1882  1.7885  0.2499
 6318TIP3    H240446   0.603   2.377   2.712 -0.0657 -1.5819 -2.2147
 6319TIP3   OH240447   3.383   1.968  47.275 -0.0116 -0.4893 -0.0633
 6319TIP3    H140448   3.424   1.941  47.357 -0.7057  0.0233  0.4649
 6319TIP3    H240449   3.325   1.896  47.252 -0.9902  0.0129  0.7348
 6320TIP3   OH240450   2.428   2.656  41.844  0.4348 -0.3185  0.6121
 6320TIP3    H140451   2.401   2.658  41.753  1.3653  2.1391  0.3010
 6320TIP3    H240452   2.516   2.618  41.842 -0.2618 -2.0361  0.7843
 6321TIP3   OH240453   2.833   3.110  34.038  0.0710 -0.0260 -0.0948
 6321TIP3    H140454   2.824   3.146  33.949 -0.0629 -1.0386 -0.5032
 6321TIP3    H240455   2.755   3.057  34.051 -0.6336  1.2531  1.2063
 6322TIP3   OH240456   3.360   2.482  32.670  0.1999 -0.1753 -0.3064
 6322TIP3    H140457   3.287   2.422  32.685 -0.5751  1.1594  1.7067
 6322TIP3    H240458   3.379   2.475  32.576 -1.4986 -1.6657 -0.5868
 6323TIP3   OH240459   2.141   0.318  10.371 -0.3860  0.0253  0.9845
 6323TIP3    H140460   2.183   0.319  10.285  0.6515 -0.8940  1.4535
 6323TIP3    H240461   2.084   0.395  10.371  3.0771  2.8464  1.1608
 6324TIP3   OH240462   1.176   1.695  40.890 -0.3550 -0.0784 -0.1641
 6324TIP3    H140463   1.194   1.606  40.920  0.3819 -0.3170 -1.2387
 6324TIP3    H240464   1.262   1.738  40.893 -0.5188  0.2810 -0.6334
 6325TIP3   OH240465   2.367   3.644  42.108 -0.0314  0.0612 -0.2573
 6325TIP3    H140466   2.376   3.570  42.048  0.6517 -1.5533  1.7196
 6325TIP3    H240467   2.454   3.655  42.146 -0.4322  1.0579  0.4150
 6326TIP3   OH240468   3.907   1.625   8.872  0.2321 -0.1598  0.5536
 6326TIP3    H140469   3.978   1.683   8.845 -0.3010  1.3759  2.2509
 6326TIP3    H240470   3.935   1.592   8.957 -0.6466 -0.3309  0.7848
 6327TIP3   OH240471   2.722   0.987  40.605  0.0937 -0.1649  0.2294
 6327TIP3    H140472   2.666   0.963  40.531 -0.9068 -2.0180  1.4801
 6327TIP3    H240473   2.705   1.080  40.619 -3.3723 -0.7528  1.0125
 6328TIP3   OH240474   1.941   3.383  14.589  0.3978  0.2239 -0.0999
 6328TIP3    H140475   1.851   3.388  14.620 -0.0440  0.0656 -1.2732
 6328TIP3    H240476   1.934   3.397  14.494  1.4273 -1.2940 -0.4399
 6329TIP3   OH240477   3.118   1.438  43.152  0.2667  0.3254  0.2254
 6329TIP3    H140478   3.099   1.348  43.179 -0.7830  0.3297 -0.4526
 6329TIP3    H240479   3.086   1.443  43.062 -0.2437  1.5502  0.4575
 6330TIP3   OH240480   0.150   3.390  44.182  0.3521  0.1450 -0.5058
 6330TIP3    H140481   0.159   3.458  44.249 -0.9732 -0.1697  0.0283
 6330TIP3    H240482   0.183   3.431  44.102  1.4031  0.7291  0.2022
 6331TIP3   OH240483   0.789   2.327   3.598 -0.7411  0.1747 -0.1587
 6331TIP3    H140484   0.801   2.336   3.692 -0.4315 -2.1768  0.0978
 6331TIP3    H240485   0.695   2.314   3.587 -0.8129  0.7117 -0.2266
 6332TIP3   OH240486   3.792   0.511  14.749 -0.8411 -0.3611  0.4143
 6332TIP3    H140487   3.839   0.520  14.666 -1.3930  0.2275  0.1526
 6332TIP3    H240488   3.765   0.419  14.752 -0.3688 -0.5078  0.1895
 6333TIP3   OH240489   1.126   1.136  40.141 -0.1600  0.2831 -0.0475
 6333TIP3    H140490   1.196   1.190  40.178 -0.0272  1.1356 -1.4596
 6333TIP3    H240491   1.064   1.124  40.213  1.0916  0.0742  1.0444
 6334TIP3   OH240492   2.948   3.081   7.361 -0.0141  0.0485  0.1720
 6334TIP3    H140493   2.996   3.032   7.427  0.6870 -1.5672 -1.4494
 6334TIP3    H240494   3.013   3.141   7.323 -0.3313  0.7364  0.6877
 6335TIP3   OH240495   1.145   1.838   5.990  0.4242 -0.2559 -0.3346
 6335TIP3    H140496   1.210   1.872   6.052  0.6642  3.3169 -2.3205
 6335TIP3    H240497   1.197   1.808   5.915 -0.0843  0.4279 -0.9702
 6336TIP3   OH240498   1.568   3.923  15.681  0.1947 -0.1451  0.3763
 6336TIP3    H140499   1.476   3.930  15.705 -0.3716  0.9622 -1.8267
 6336TIP3    H240500   1.578   3.834  15.648 -0.4967  0.1549 -0.7165
 6337TIP3   OH240501   3.079   2.456  11.569 -0.5014  0.0576 -0.2558
 6337TIP3    H140502   3.051   2.547  11.562 -0.6376  0.3605  2.7925
 6337TIP3    H240503   3.099   2.445  11.662  0.7686 -2.6814 -0.7752
 6338TIP3   OH240504   1.087   0.522  34.150 -0.0736 -0.2733 -0.5638
 6338TIP3    H140505   1.018   0.587  34.134  1.9445  2.0563 -0.3166
 6338TIP3    H240506   1.138   0.521  34.069  1.0201 -0.1154  0.1066
 6339TIP3   OH240507   2.873   0.986  14.431  0.0336 -0.0058  0.5453
 6339TIP3    H140508   2.937   1.052  14.458  1.0727 -0.2175 -1.2552
 6339TIP3    H240509   2.791   1.034  14.422  0.3286  0.6263  1.1590
 6340TIP3   OH240510   3.478   3.250   9.016 -0.0232  0.7714 -0.2054
 6340TIP3    H140511   3.567   3.234   9.047 -0.2499 -1.2359 -0.4769
 6340TIP3    H240512   3.423   3.196   9.071 -1.0159  1.3870 -0.5566
 6341TIP3   OH240513   3.922   0.963  31.067 -0.1508  0.2045  0.2226
 6341TIP3    H140514   3.869   1.036  31.098 -0.4273 -0.4625  1.3656
 6341TIP3    H240515   3.969   0.998  30.991 -1.4803  1.0994 -0.2306
 6342TIP3   OH240516   0.897   3.953  46.360 -0.4823  0.0455 -0.0375
 6342TIP3    H140517   0.972   3.967  46.303  0.5592 -1.3867  0.9183
 6342TIP3    H240518   0.896   4.029  46.418  2.8322 -1.7146  2.6678
 6343TIP3   OH240519   0.733   0.270   5.455  0.0700  0.1570 -0.2741
 6343TIP3    H140520   0.768   0.354   5.486 -0.2068 -0.1234  0.8605
 6343TIP3    H240521   0.810   0.216   5.438  0.2930  1.0219 -2.2057
 6344TIP3   OH240522   1.149   0.453  35.315 -0.4439 -0.2020  0.0142
 6344TIP3    H140523   1.118   0.370  35.349 -0.6105  0.7973  2.5039
 6344TIP3    H240524   1.236   0.464  35.353 -1.2427  1.6570  1.5083
 6345TIP3   OH240525   1.199   0.263  11.670 -0.0883 -0.5446 -0.5270
 6345TIP3    H140526   1.279   0.253  11.619 -0.0041 -0.0348 -0.5030
 6345TIP3    H240527   1.196   0.186  11.726 -0.1727 -1.1138 -1.2857
 6346TIP3   OH240528   2.609   0.308   9.973  0.5260  0.1944 -0.1677
 6346TIP3    H140529   2.550   0.234   9.985 -0.9703  1.4706  0.7980
 6346TIP3    H240530   2.622   0.313   9.878  1.3338 -1.7652 -0.1896
 6347TIP3   OH240531   0.566   1.483   1.849  0.4594  0.1734 -0.0634
 6347TIP3    H140532   0.481   1.523   1.863 -0.2745 -1.3855  0.1437
 6347TIP3    H240533   0.612   1.543   1.790  0.1758  2.2530  1.7320
 6348TIP3   OH240534   0.531   2.836  39.536 -0.8065 -0.3302 -0.2665
 6348TIP3    H140535   0.456   2.802  39.487 -0.3175 -0.2780 -1.0756
 6348TIP3    H240536   0.606   2.785  39.503 -0.1055  1.2915 -1.2747
 6349TIP3   OH240537   2.741   0.375  11.729  0.1570  0.4545 -0.0371
 6349TIP3    H140538   2.652   0.357  11.760 -0.2191  2.4298  0.1609
 6349TIP3    H240539   2.796   0.316  11.781 -0.9646 -0.2469  0.3979
 6350TIP3   OH240540   3.444   0.822  36.102 -0.1193 -0.1598  0.0932
 6350TIP3    H140541   3.415   0.914  36.100  0.3551 -0.0205 -0.7304
 6350TIP3    H240542   3.426   0.794  36.192 -3.4555 -0.2998 -0.5017
 6351TIP3   OH240543   0.002   3.707  33.635 -0.2235  0.5652 -0.0872
 6351TIP3    H140544   0.072   3.679  33.694 -0.2610  2.8282  1.1729
 6351TIP3    H240545   0.033   3.790  33.599 -1.6822  0.9478 -0.5495
 6352TIP3   OH240546   1.067   1.345   6.007 -0.2982  0.1653 -0.1590
 6352TIP3    H140547   1.137   1.360   5.943  0.4189 -0.6330  0.4063
 6352TIP3    H240548   1.030   1.260   5.983  1.1814 -1.0229  1.5006
 6353TIP3   OH240549   1.688   0.535   1.307  0.2588 -0.2744  0.6737
 6353TIP3    H140550   1.765   0.507   1.258  0.7149  1.4948  0.2778
 6353TIP3    H240551   1.616   0.529   1.244  0.1128 -1.6459  0.9559
 6354TIP3   OH240552   2.851   3.541  43.971 -0.8580  0.1855 -0.0016
 6354TIP3    H140553   2.781   3.605  43.972  0.2697  1.4571  0.8131
 6354TIP3    H240554   2.850   3.505  43.883 -1.5325  1.3122 -0.4716
 6355TIP3   OH240555   3.050   1.316  10.642 -0.1986  0.2172  0.0201
 6355TIP3    H140556   3.057   1.304  10.737 -0.2908  2.8730  0.4398
 6355TIP3    H240557   2.989   1.247  10.614 -1.3023  0.2567  2.1105
 6356TIP3   OH240558   3.127   1.859   3.750  0.0419  0.2426 -0.2902
 6356TIP3    H140559   3.038   1.833   3.774  0.5669 -0.7178  0.7237
 6356TIP3    H240560   3.161   1.785   3.700  0.6008  0.1394  0.2156
 6357TIP3   OH240561   2.372   2.376  10.157  0.0670  0.0282 -0.2761
 6357TIP3    H140562   2.294   2.399  10.108 -0.6974 -1.2119  0.3090
 6357TIP3    H240563   2.341   2.315  10.225  0.9233  2.1565  2.2069
 6358TIP3   OH240564   3.110   1.027   2.631  0.3221  0.7289  0.1376
 6358TIP3    H140565   3.169   1.064   2.697 -1.5504  0.4319  2.1297
 6358TIP3    H240566   3.046   1.096   2.616 -0.2658  0.1545 -0.0289
 6359TIP3   OH240567   0.094   3.899  33.164 -0.3555 -0.9219  0.0485
 6359TIP3    H140568   0.100   3.868  33.073 -0.4094 -0.1525 -0.2214
 6359TIP3    H240569   0.184   3.898  33.195 -0.1026  0.4739 -0.5816
 6360TIP3   OH240570   3.432   3.351   4.983 -0.4183  0.6859  0.1369
 6360TIP3    H140571   3.349   3.312   5.010 -0.0499  0.8378  1.6184
 6360TIP3    H240572   3.411   3.401   4.904 -1.7777  0.8694  0.5830
 6361TIP3   OH240573   1.783   0.872  41.895  0.4202 -0.1830  0.2837
 6361TIP3    H140574   1.863   0.858  41.947  1.0745 -1.4039 -0.9937
 6361TIP3    H240575   1.804   0.947  41.839 -0.3765  1.3021  1.8554
 6362TIP3   OH240576   3.237   1.022   3.991  0.3317  0.1909  0.3547
 6362TIP3    H140577   3.261   0.948   4.048 -0.1027 -0.6086 -0.4647
 6362TIP3    H240578   3.321   1.064   3.970  0.6261 -0.2969  0.5335
 6363TIP3   OH240579   1.207   0.418  44.399  0.1287 -0.6474  0.3702
 6363TIP3    H140580   1.137   0.482  44.391  0.8667  0.0395 -0.9814
 6363TIP3    H240581   1.170   0.336  44.367 -0.6547 -0.8043  1.6047
 6364TIP3   OH240582   0.400   1.492  40.278  0.2321  0.0174 -0.2599
 6364TIP3    H140583   0.451   1.449  40.208  0.2954 -0.9435  0.3496
 6364TIP3    H240584   0.336   1.545  40.232  0.5244 -0.2955 -1.0527
 6365TIP3   OH240585   3.609   1.631  38.601  0.1090  0.6593  0.0257
 6365TIP3    H140586   3.646   1.656  38.516 -1.4726  0.7617 -0.6807
 6365TIP3    H240587   3.665   1.561  38.632  1.4217  1.4189 -0.5443
 6366TIP3   OH240588   1.652   2.920   9.837  0.1806 -0.4559 -0.2116
 6366TIP3    H140589   1.685   3.006   9.813  0.0907 -0.4537 -0.3293
 6366TIP3    H240590   1.622   2.881   9.755 -2.0913  0.3967  0.1209
 6367TIP3   OH240591   2.873   1.604  13.609 -0.1644  0.2509 -0.7998
 6367TIP3    H140592   2.817   1.542  13.562 -0.3859  0.6852 -1.1267
 6367TIP3    H240593   2.907   1.662  13.540  1.2092 -0.3954 -0.6934
 6368TIP3   OH240594   1.149   1.853  31.721 -0.2343  0.1833 -0.0837
 6368TIP3    H140595   1.089   1.784  31.748  1.1179 -0.9633  0.1101
 6368TIP3    H240596   1.135   1.862  31.626 -0.8098  0.0482 -0.0134
 6369TIP3   OH240597   1.363   3.705  36.393 -0.0129 -0.2780 -0.6879
 6369TIP3    H140598   1.348   3.665  36.479  1.1851 -1.3605 -0.9461
 6369TIP3    H240599   1.310   3.653  36.333  0.2493 -0.4253 -0.7937
 6370TIP3   OH240600   3.009   1.849  47.029 -0.1490 -0.2054  0.1151
 6370TIP3    H140601   3.023   1.944  47.033 -1.4722  0.1057 -1.3722
 6370TIP3    H240602   2.931   1.834  47.082  0.5141 -0.5904  0.9944
 6371TIP3   OH240603   2.970   1.274  14.985 -0.2801 -0.4068  0.0249
 6371TIP3    H140604   2.878   1.280  14.957  0.2017  1.1447 -1.3087
 6371TIP3    H240605   3.019   1.264  14.904  0.8147 -0.2655  0.6619
 6372TIP3   OH240606   2.993   2.772  11.225 -0.3307  0.3517 -0.2829
 6372TIP3    H140607   3.028   2.729  11.147  0.8628  1.4928 -0.4174
 6372TIP3    H240608   2.936   2.841  11.191 -2.0998 -0.9271 -0.0714
 6373TIP3   OH240609   0.235   2.512  35.724 -0.4962 -0.0213 -0.1418
 6373TIP3    H140610   0.308   2.565  35.690 -0.5276 -0.1654 -0.4393
 6373TIP3    H240611   0.157   2.565  35.709 -0.5008 -0.0514 -0.2304
 6374TIP3   OH240612   0.559   0.192   9.130 -0.3244  0.3907  0.2302
 6374TIP3    H140613   0.579   0.151   9.045 -1.1033  0.2485  0.1037
 6374TIP3    H240614   0.618   0.267   9.134 -1.4581  1.4302 -1.2530
 6375TIP3   OH240615   1.803   1.821  39.320 -0.3872  0.0136  0.3725
 6375TIP3    H140616   1.766   1.760  39.383 -0.5390 -0.3905 -0.1054
 6375TIP3    H240617   1.728   1.865  39.281 -0.2960  0.2114  0.4154
 6376TIP3   OH240618   3.717   3.513   3.077  0.6765 -0.4309 -0.0099
 6376TIP3    H140619   3.719   3.534   2.983  1.1761 -1.6359 -0.2960
 6376TIP3    H240620   3.624   3.512   3.099  0.5810  0.4478 -0.3514
 6377TIP3   OH240621   1.096   2.227  35.880 -0.0694 -0.8369  0.1263
 6377TIP3    H140622   1.005   2.213  35.856  0.0473 -0.6711 -0.4394
 6377TIP3    H240623   1.134   2.272  35.804  0.4815 -0.9106  0.3521
 6378TIP3   OH240624   0.652   3.452  33.056 -0.4764 -0.0040  0.0687
 6378TIP3    H140625   0.644   3.369  33.102 -1.2611 -0.1421 -0.2940
 6378TIP3    H240626   0.577   3.453  32.996 -1.7499  1.8570  1.5335
 6379TIP3   OH240627   0.167   0.955  38.940  0.0241  0.1429  0.2195
 6379TIP3    H140628   0.164   0.863  38.966 -1.2527  0.5690  1.7701
 6379TIP3    H240629   0.255   0.968  38.904  0.8807 -1.2464  1.6924
 6380TIP3   OH240630   3.136   2.248  14.291 -0.3002 -0.4426  0.0563
 6380TIP3    H140631   3.044   2.261  14.266  0.0078 -0.8614 -1.3635
 6380TIP3    H240632   3.152   2.316  14.356 -0.9907  1.1068 -1.3236
 6381TIP3   OH240633   2.821   0.176   2.045 -0.3059 -0.5590 -0.0903
 6381TIP3    H140634   2.893   0.173   2.108 -1.5830 -1.1603  1.4097
 6381TIP3    H240635   2.798   0.269   2.039  0.0191 -0.4646  0.1067
 6382TIP3   OH240636   1.262   0.843  31.783 -0.0644 -0.3419 -0.0879
 6382TIP3    H140637   1.322   0.814  31.851 -2.5960 -0.7114  2.1719
 6382TIP3    H240638   1.242   0.765  31.732 -0.0473 -0.6076  0.3146
 6383TIP3   OH240639   0.760   3.936  38.931 -0.0512 -0.3273  0.2320
 6383TIP3    H140640   0.741   3.972  39.018 -1.3050 -3.0914  1.1977
 6383TIP3    H240641   0.825   3.868  38.947 -1.1274 -1.6519 -0.8012
 6384TIP3   OH240642   0.875   1.606  22.074  0.1060 -0.3949  0.3703
 6384TIP3    H140643   0.813   1.557  22.127 -1.7340 -0.1955 -1.4871
 6384TIP3    H240644   0.822   1.673  22.030  1.8868  0.7193 -0.1862
 6385TIP3   OH240645   1.647   3.837  40.384  0.7195 -0.2561 -0.7311
 6385TIP3    H140646   1.599   3.758  40.410  1.4097  0.2655  2.4265
 6385TIP3    H240647   1.725   3.804  40.340  0.0285 -1.2487 -1.2552
 6386TIP3   OH240648   3.556   4.062  37.184 -0.0829  0.1137  0.3779
 6386TIP3    H140649   3.613   4.136  37.207  0.4011 -0.6224  1.6739
 6386TIP3    H240650   3.594   3.987  37.231 -2.0070 -0.4426  1.1391
 6387TIP3   OH240651   1.883   3.211  44.173  0.3860 -0.3186  0.0038
 6387TIP3    H140652   1.968   3.216  44.128  0.3184 -2.3521 -0.4273
 6387TIP3    H240653   1.820   3.237  44.107  0.4295 -1.8316 -0.6833
 6388TIP3   OH240654   3.033   3.084  35.806 -0.0129 -0.7006 -0.1357
 6388TIP3    H140655   3.093   3.157  35.815 -0.7937 -0.1122  0.4676
 6388TIP3    H240656   2.972   3.094  35.880 -1.9515 -0.2081 -1.7165
 6389TIP3   OH240657   0.966   3.920  10.008 -0.2246  0.0740  0.3517
 6389TIP3    H140658   0.939   4.010   9.990 -0.6710 -0.1664 -0.2189
 6389TIP3    H240659   1.044   3.907   9.954 -0.3228  0.0314  0.2196
 6390TIP3   OH240660   3.687   1.515   4.184 -0.2209 -1.3145 -0.0856
 6390TIP3    H140661   3.596   1.544   4.184 -0.0982 -0.9042 -0.7209
 6390TIP3    H240662   3.704   1.486   4.274  0.0731  1.9611  1.0210
 6391TIP3   OH240663   1.566   1.301  35.839 -0.0187 -0.1772 -0.0544
 6391TIP3    H140664   1.514   1.231  35.800  0.5168 -0.0992 -0.9167
 6391TIP3    H240665   1.508   1.340  35.904 -0.4373 -1.2166  0.2268
 6392TIP3   OH240666   0.092   3.740  12.729 -0.3934 -0.1165  0.1891
 6392TIP3    H140667   0.127   3.827  12.746 -1.6324  0.3417  0.5179
 6392TIP3    H240668  -0.001   3.747  12.750 -0.3255 -1.8066  1.2320
 6393TIP3   OH240669   1.694   2.753  37.382 -0.2255 -0.1350  0.3296
 6393TIP3    H140670   1.757   2.786  37.444 -1.0973  0.5041  0.8947
 6393TIP3    H240671   1.736   2.676  37.343  0.9400  0.3629  0.5726
 6394TIP3   OH240672   1.523   0.894  41.961  0.0732 -0.2956  0.0473
 6394TIP3    H140673   1.485   0.806  41.959  0.0033 -0.2948  0.7667
 6394TIP3    H240674   1.611   0.884  41.926  0.3718 -0.8205  0.9231
 6395TIP3   OH240675   3.973   3.536  27.051 -0.2212 -0.4602 -0.2792
 6395TIP3    H140676   3.878   3.530  27.044 -0.3152  0.6188 -0.0961
 6395TIP3    H240677   3.989   3.623  27.088  0.8344 -0.6500 -0.2558
 6396TIP3   OH240678   3.000   2.209   2.076  0.3956  0.1293  0.8486
 6396TIP3    H140679   2.977   2.144   2.009 -0.7714  0.6931  0.6632
 6396TIP3    H240680   2.966   2.292   2.042 -1.7105  0.1812  2.8097
 6397TIP3   OH240681   3.934   1.131  10.234  0.6942  0.2046 -0.2925
 6397TIP3    H140682   3.966   1.193  10.300  1.1172 -0.3627  0.0470
 6397TIP3    H240683   3.932   1.047  10.280  0.8965 -0.1772 -0.9800
 6398TIP3   OH240684   1.570   3.028   7.227 -0.2366  0.3609  0.2980
 6398TIP3    H140685   1.599   3.078   7.150  0.7661 -1.9800 -0.9373
 6398TIP3    H240686   1.622   3.064   7.299  1.0388  0.6043 -0.6984
 6399TIP3   OH240687   2.619   1.921  44.946  0.6812 -0.5292  0.4718
 6399TIP3    H140688   2.617   1.948  45.038 -1.5465  1.7004 -0.1266
 6399TIP3    H240689   2.534   1.879  44.931  2.0504 -3.3736  0.0060
 6400TIP3   OH240690   0.162   0.563   6.954 -0.1768 -1.0072  0.3168
 6400TIP3    H140691   0.147   0.656   6.939  0.9556 -1.0948 -1.8071
 6400TIP3    H240692   0.076   0.528   6.974 -0.8854  0.2722 -0.3316
 6401TIP3   OH240693   3.532   0.304   6.540  0.2698 -0.2933 -0.0122
 6401TIP3    H140694   3.486   0.232   6.584  0.1320 -0.2844 -0.1424
 6401TIP3    H240695   3.564   0.359   6.612  0.2342 -0.3965  0.0832
 6402TIP3   OH240696   3.931   1.264  35.131  0.5966 -0.4596  0.3482
 6402TIP3    H140697   3.931   1.350  35.090  1.5696 -0.0428  1.1593
 6402TIP3    H240698   3.882   1.208  35.071  1.7249  0.1818 -1.2293
 6403TIP3   OH240699   2.591   2.632  32.716 -0.0916  0.0028 -0.2127
 6403TIP3    H140700   2.500   2.606  32.730 -0.9735  2.1970 -1.4305
 6403TIP3    H240701   2.603   2.709  32.771  0.1341  1.3837 -2.1028
 6404TIP3   OH240702   3.843   3.106  13.163 -0.0961  0.1657 -0.1084
 6404TIP3    H140703   3.843   3.167  13.090  1.5961 -0.5147 -0.7459
 6404TIP3    H240704   3.788   3.033  13.135 -1.1031  0.8221  0.1443
 6405TIP3   OH240705   2.755   1.868  10.648 -0.7120 -0.2316  0.3537
 6405TIP3    H140706   2.685   1.843  10.708 -2.6379  0.0515 -1.6489
 6405TIP3    H240707   2.718   1.941  10.598  1.6301  0.9863  0.2818
 6406TIP3   OH240708   3.046   2.510  13.446  0.3105  0.1483  0.4041
 6406TIP3    H140709   3.087   2.456  13.513  0.4485 -1.0268 -0.5927
 6406TIP3    H240710   3.010   2.585  13.494 -1.3235 -1.6003  2.0930
 6407TIP3   OH240711   1.985   3.516   0.637 -0.1781 -0.0081  0.4304
 6407TIP3    H140712   1.983   3.498   0.732  0.5433  0.6166  0.5739
 6407TIP3    H240713   2.042   3.592   0.629 -1.5428  0.9637 -0.3599
 6408TIP3   OH240714   2.841   2.620  12.761  0.7255 -0.1798  0.2768
 6408TIP3    H140715   2.864   2.572  12.682 -2.2759 -3.6178  1.2035
 6408TIP3    H240716   2.902   2.588  12.827  0.7350 -0.3243  0.1990
 6409TIP3   OH240717   1.858   3.091  43.850 -0.5394  0.3973  0.2647
 6409TIP3    H140718   1.938   3.129  43.887 -0.9508 -0.0983  1.7625
 6409TIP3    H240719   1.788   3.149  43.881 -0.9682 -0.4358  0.9114
 6410TIP3   OH240720   0.754   0.023   7.692  0.2829  0.0654 -0.5540
 6410TIP3    H140721   0.747  -0.022   7.608  1.5151 -0.8438 -0.2131
 6410TIP3    H240722   0.817  -0.030   7.742 -1.0713  0.0612  1.2801
 6411TIP3   OH240723   3.433   0.730  13.646  0.0944  0.4527  0.1892
 6411TIP3    H140724   3.515   0.730  13.695 -0.3495  1.8821  0.9942
 6411TIP3    H240725   3.365   0.726  13.713 -0.5200 -0.2719 -0.4498
 6412TIP3   OH240726   0.905   2.788  12.735  0.3539  0.2532  0.6772
 6412TIP3    H140727   0.908   2.694  12.752 -0.3175 -0.0422 -0.7255
 6412TIP3    H240728   0.939   2.828  12.815  2.9119 -1.2601  0.4701
 6413TIP3   OH240729   2.017   1.292  12.451  0.3986  0.3395 -0.0402
 6413TIP3    H140730   2.060   1.371  12.482  1.4249 -0.2153 -0.0242
 6413TIP3    H240731   1.935   1.288  12.501  1.3380  0.2416  1.5686
 6414TIP3   OH240732   1.035   0.781  12.280  0.0906 -0.5280  0.3154
 6414TIP3    H140733   0.988   0.753  12.202  1.4068  1.9697 -1.5061
 6414TIP3    H240734   0.985   0.856  12.312  2.3978  2.0266 -1.5164
 6415TIP3   OH240735   2.552   3.603   0.684 -0.4547 -0.1465  0.3607
 6415TIP3    H140736   2.557   3.602   0.588  0.5625  1.1480  0.3713
 6415TIP3    H240737   2.620   3.543   0.712  0.7951  1.1834  0.2698
 6416TIP3   OH240738   0.833   3.189  41.619  0.2272 -0.2343 -0.2398
 6416TIP3    H140739   0.875   3.165  41.701 -0.7427  0.8207  0.5925
 6416TIP3    H240740   0.851   3.283  41.609 -0.0153 -0.2591 -1.0210
 6417TIP3   OH240741   2.015   2.420  44.401 -0.1686  0.0317 -0.2631
 6417TIP3    H140742   2.095   2.391  44.444 -0.1665 -0.6113 -0.6848
 6417TIP3    H240743   2.044   2.487  44.339 -0.1401  0.7678  0.5235
 6418TIP3   OH240744   2.341   2.652  44.725 -0.4866  0.7569  0.2300
 6418TIP3    H140745   2.276   2.583  44.710  0.1292  0.5680 -1.8247
 6418TIP3    H240746   2.310   2.696  44.804 -1.8544 -0.7589  0.6061
 6419TIP3   OH240747   2.387   1.928  21.357  0.2741 -0.1271  0.5068
 6419TIP3    H140748   2.307   1.885  21.389  1.2604 -0.5543  2.6059
 6419TIP3    H240749   2.355   2.000  21.303 -1.4751 -1.8166 -0.8857
 6420TIP3   OH240750   2.310   2.750   3.659  0.3525 -0.0685 -0.1652
 6420TIP3    H140751   2.387   2.789   3.618  0.1700 -0.0453 -0.4865
 6420TIP3    H240752   2.247   2.822   3.666 -0.0543 -0.3373 -0.9290
 6421TIP3   OH240753   3.382   0.089  31.845  0.0824  0.5176  0.2014
 6421TIP3    H140754   3.450   0.106  31.780  0.2918 -0.6346  0.0926
 6421TIP3    H240755   3.302   0.080  31.794 -0.1457  1.7594  0.3194
 6422TIP3   OH240756   0.205   3.498  27.911  0.3169 -0.6687  0.0825
 6422TIP3    H140757   0.160   3.548  27.844  0.9718  0.9670  0.8216
 6422TIP3    H240758   0.137   3.444  27.952 -0.0566 -1.8414 -1.9729
 6423TIP3   OH240759   1.495   0.906  44.900  0.2829  0.1732  0.0177
 6423TIP3    H140760   1.541   0.983  44.864  0.0351  0.3446  0.0679
 6423TIP3    H240761   1.563   0.860  44.949 -0.3382  2.3282  3.1520
 6424TIP3   OH240762   2.303   0.814  10.921  0.3025 -0.0808  0.3267
 6424TIP3    H140763   2.371   0.759  10.960  0.2472  0.1886  0.8128
 6424TIP3    H240764   2.310   0.897  10.968  0.3191  0.3010 -0.3317
 6425TIP3   OH240765   0.549   2.309   4.686 -0.0447  0.5647  0.3387
 6425TIP3    H140766   0.601   2.362   4.626  2.2086  0.3656  1.9727
 6425TIP3    H240767   0.602   2.232   4.703 -2.0988 -0.9836  0.0646
 6426TIP3   OH240768   2.838   2.030   8.352  0.5736  0.3556  0.6808
 6426TIP3    H140769   2.932   2.011   8.350  0.5439  0.0828  1.4575
 6426TIP3    H240770   2.797   1.951   8.317  0.5743 -0.0913  1.6496
 6427TIP3   OH240771   0.779   1.119  35.349 -0.6559 -0.4214  0.1291
 6427TIP3    H140772   0.823   1.137  35.265 -1.1611 -1.1043 -0.2887
 6427TIP3    H240773   0.802   1.194  35.404 -0.1849 -0.0428 -0.5675
 6428TIP3   OH240774   2.830   2.506  15.749 -0.2191 -0.0232 -0.2282
 6428TIP3    H140775   2.753   2.463  15.711  0.6492 -0.5338 -1.5036
 6428TIP3    H240776   2.842   2.584  15.695 -1.8080  1.9655  2.0954
 6429TIP3   OH240777   3.670   2.707  38.267  0.2311 -0.5443  0.1823
 6429TIP3    H140778   3.579   2.691  38.291  0.0946 -1.1267 -0.6750
 6429TIP3    H240779   3.667   2.781  38.207  0.6668  1.5523  2.5594
 6430TIP3   OH240780   2.272   2.256  36.760  0.3932 -0.6828 -0.1109
 6430TIP3    H140781   2.348   2.205  36.732 -0.1230 -2.0167  0.8144
 6430TIP3    H240782   2.201   2.224  36.704 -0.0446 -1.4023  0.8153
 6431TIP3   OH240783   2.881   2.703  32.643 -0.2245  0.1979  0.0479
 6431TIP3    H140784   2.919   2.780  32.600  0.9593  0.3314  1.2867
 6431TIP3    H240785   2.792   2.699  32.609 -0.0923  1.7111 -0.5586
 6432TIP3   OH240786   0.955   1.056  31.459 -0.0316  0.1798  0.2771
 6432TIP3    H140787   0.959   1.027  31.550 -0.0750 -0.1744  0.1671
 6432TIP3    H240788   0.884   1.006  31.421  0.7509 -0.5451 -0.2597
 6433TIP3   OH240789   0.470   3.137  36.925  0.0563  0.2679  0.0489
 6433TIP3    H140790   0.375   3.149  36.919  0.3220  2.1761 -1.2247
 6433TIP3    H240791   0.493   3.091  36.844  0.3187  0.7520 -0.1600
 6434TIP3   OH240792   1.993   3.760   8.458  0.2720  0.4866  0.1793
 6434TIP3    H140793   1.928   3.803   8.403  0.6632 -0.4278 -1.0271
 6434TIP3    H240794   1.962   3.670   8.467  0.7870  0.3380  0.5355
 6435TIP3   OH240795   1.089   3.065   9.859  0.6750 -0.3832  0.0305
 6435TIP3    H140796   1.096   2.973   9.836 -0.5876 -0.7465  1.0011
 6435TIP3    H240797   1.164   3.082   9.916  1.8591 -0.3467 -1.4737
 6436TIP3   OH240798   0.537   1.871  31.499  0.2240 -0.4886 -0.4326
 6436TIP3    H140799   0.479   1.945  31.514 -0.7985 -1.6267  1.8222
 6436TIP3    H240800   0.489   1.815  31.438  0.3092 -0.0468 -0.9127
 6437TIP3   OH240801   0.060   3.303   2.923  0.1685 -0.8926  0.0383
 6437TIP3    H140802   0.106   3.384   2.945 -1.6104  0.4344 -0.9155
 6437TIP3    H240803   0.106   3.269   2.847 -0.3872  0.4223 -0.9163
 6438TIP3   OH240804   3.275   0.337   2.058 -0.5680 -0.0467 -0.1219
 6438TIP3    H140805   3.211   0.320   2.127 -0.1517 -0.6767  0.1195
 6438TIP3    H240806   3.335   0.263   2.063 -0.6474 -0.2041 -1.2996
 6439TIP3   OH240807   0.361   0.192   9.558  0.3506  0.3509  0.1410
 6439TIP3    H140808   0.270   0.214   9.581  0.6355 -0.7607  2.7044
 6439TIP3    H240809   0.392   0.141   9.632  3.1648  0.8434 -0.5914
 6440TIP3   OH240810   2.477   1.798  42.166 -0.3462 -0.0754 -0.2617
 6440TIP3    H140811   2.473   1.703  42.153  0.9167  0.0773 -2.0843
 6440TIP3    H240812   2.518   1.809  42.252  1.6532 -1.2138 -1.0061
 6441TIP3   OH240813   1.747   0.622  10.061 -0.1586  0.5411 -0.3671
 6441TIP3    H140814   1.737   0.567   9.983  1.4225 -1.8313  1.0046
 6441TIP3    H240815   1.743   0.712  10.027 -1.3800 -0.3843 -2.8930
 6442TIP3   OH240816   2.555   1.288   2.159  1.1319  0.5773 -0.1603
 6442TIP3    H140817   2.573   1.367   2.109  0.2558  0.0152 -1.4051
 6442TIP3    H240818   2.482   1.312   2.217  1.5774  0.9788  0.2419
 6443TIP3   OH240819   2.936   1.680  35.124 -0.1098  0.6292  0.5190
 6443TIP3    H140820   3.001   1.622  35.084 -1.5096  0.1039 -1.1596
 6443TIP3    H240821   2.956   1.679  35.217  1.2937 -0.7741  0.2378
 6444TIP3   OH240822   3.007   2.883  46.167 -0.1852  0.2341 -0.5127
 6444TIP3    H140823   3.048   2.866  46.252  2.1918  0.7861 -1.4833
 6444TIP3    H240824   2.953   2.960  46.182  1.3802  1.2571  0.1998
 6445TIP3   OH240825   1.949   1.947  43.516 -0.4298  0.0302 -1.1751
 6445TIP3    H140826   1.965   2.035  43.549 -0.2644 -0.5522  0.4192
 6445TIP3    H240827   1.969   1.951  43.423  0.3737  1.4625 -0.9592
 6446TIP3   OH240828   2.966   3.404  33.592  0.1514 -0.2708 -0.6952
 6446TIP3    H140829   2.909   3.479  33.608  0.7231  0.5859 -2.4056
 6446TIP3    H240830   3.004   3.384  33.678 -1.0260  0.5250  0.0441
 6447TIP3   OH240831   1.432   0.241  42.860 -0.9290  0.3120 -0.3283
 6447TIP3    H140832   1.388   0.251  42.776 -0.2394  1.4024 -0.5759
 6447TIP3    H240833   1.474   0.155  42.854 -1.6767 -0.0417 -0.7047
 6448TIP3   OH240834   1.068   2.621  32.429  0.9026  0.1821 -0.5166
 6448TIP3    H140835   1.071   2.671  32.511 -1.2660  1.9048 -1.4257
 6448TIP3    H240836   1.034   2.535  32.455 -1.3769  1.2409  0.2229
 6449TIP3   OH240837   2.451   0.111   0.161 -0.9505 -0.1780  0.3180
 6449TIP3    H140838   2.545   0.093   0.162 -1.2336 -2.2357 -1.6075
 6449TIP3    H240839   2.445   0.199   0.123  0.1917 -0.0824  0.3102
 6450TIP3   OH240840   3.389   1.003  31.010  0.0430 -0.3072 -0.0068
 6450TIP3    H140841   3.386   0.970  31.100  0.9191 -0.0042  0.1385
 6450TIP3    H240842   3.343   1.087  31.013  0.5718 -0.0267  0.2801
 6451TIP3   OH240843   1.865   1.513  13.601 -0.0379 -0.0467  0.2185
 6451TIP3    H140844   1.896   1.604  13.596 -1.2390  0.3266 -0.8240
 6451TIP3    H240845   1.846   1.489  13.510  0.4333 -1.4238  0.4576
 6452TIP3   OH240846   0.983   2.539  43.114  0.4859 -0.0088 -0.1827
 6452TIP3    H140847   1.048   2.556  43.046 -0.8253 -2.7442 -2.3263
 6452TIP3    H240848   0.912   2.601  43.096 -0.1991 -1.2037 -1.9628
 6453TIP3   OH240849   2.806   1.644  41.043 -0.2547 -0.4893 -0.6473
 6453TIP3    H140850   2.801   1.730  41.002  2.3391  0.0367 -0.0119
 6453TIP3    H240851   2.804   1.661  41.137  1.9022 -0.9198 -0.4786
 6454TIP3   OH240852   2.829   1.910  17.215  0.1374 -0.2486  0.0517
 6454TIP3    H140853   2.736   1.911  17.193  0.0881 -0.4612  0.2357
 6454TIP3    H240854   2.830   1.898  17.310  0.3488 -0.0190  0.0771
 6455TIP3   OH240855   3.330   3.019  46.606 -0.0456 -0.2085  0.2852
 6455TIP3    H140856   3.417   3.003  46.571  0.2968  2.6007 -0.3378
 6455TIP3    H240857   3.338   3.000  46.700  0.0564 -3.9278 -0.3039
 6456TIP3   OH240858   0.011   3.378  35.732  0.5255  0.9313 -0.1650
 6456TIP3    H140859   0.093   3.407  35.771  1.1238 -1.1226  0.1658
 6456TIP3    H240860  -0.028   3.320  35.797 -0.8004  1.2126 -0.6705
 6457TIP3   OH240861   0.605   1.463   2.551 -0.4980  0.6254 -0.3433
 6457TIP3    H140862   0.642   1.510   2.476 -0.5040 -0.1936 -0.8754
 6457TIP3    H240863   0.682   1.436   2.602 -0.4338  0.3828 -0.5591
 6458TIP3   OH240864   4.074   2.163  40.987 -0.6834  0.2826 -0.4451
 6458TIP3    H140865   4.114   2.249  40.973 -3.3558  2.0655  1.7778
 6458TIP3    H240866   4.039   2.140  40.901 -0.4112  1.6966 -0.9717
 6459TIP3   OH240867   2.626   3.069   1.932  0.1503  0.3784  0.4752
 6459TIP3    H140868   2.647   3.090   2.023 -0.7115 -1.5435  1.1698
 6459TIP3    H240869   2.657   2.979   1.920 -0.1736  0.4283 -0.9925
 6460TIP3   OH240870   2.949   0.981  42.252  0.2325  0.4616  0.2491
 6460TIP3    H140871   3.023   0.994  42.311  0.8798 -0.8351 -0.2468
 6460TIP3    H240872   2.955   0.890  42.224 -1.7088  0.2291  0.3952
 6461TIP3   OH240873   2.856   3.732  34.828 -0.5358 -0.1128  0.2219
 6461TIP3    H140874   2.934   3.679  34.813 -0.0999  0.1981  1.2745
 6461TIP3    H240875   2.788   3.690  34.776  0.5830  0.2628 -1.6113
 6462TIP3   OH240876   2.934   3.907  39.512 -0.5257 -0.0076 -0.2658
 6462TIP3    H140877   2.916   3.839  39.447  0.3748 -1.4642  0.9273
 6462TIP3    H240878   2.957   3.984  39.461 -1.5899 -0.5709 -1.6735
 6463TIP3   OH240879   0.960   1.138  41.452 -0.3291  0.7500 -0.0257
 6463TIP3    H140880   0.971   1.158  41.359 -1.1022  1.3146 -0.0061
 6463TIP3    H240881   0.993   1.216  41.497 -1.1788  1.0372  0.1217
 6464TIP3   OH240882   3.163   0.003  36.322 -0.3519 -0.6862 -0.1792
 6464TIP3    H140883   3.202   0.074  36.271  0.0244 -1.1442 -0.5359
 6464TIP3    H240884   3.237  -0.034  36.372 -1.0443  1.0885  2.3336
 6465TIP3   OH240885   0.136   3.587  11.685 -0.0612 -0.1254 -0.4969
 6465TIP3    H140886   0.091   3.627  11.759  1.9462 -1.0136  1.3192
 6465TIP3    H240887   0.071   3.530  11.645 -0.6322 -1.4234  2.0602
 6466TIP3   OH240888   3.162   0.262  32.201  0.1114 -0.1203  0.1308
 6466TIP3    H140889   3.084   0.239  32.251 -0.2138  0.8918  0.1278
 6466TIP3    H240890   3.189   0.181  32.158 -2.1501 -0.0979 -1.5303
 6467TIP3   OH240891   2.239   3.592   8.508  0.2106  0.1568  0.2451
 6467TIP3    H140892   2.303   3.566   8.442  2.0561  0.5894  1.7829
 6467TIP3    H240893   2.238   3.687   8.504  0.8424  0.2180  1.2708
 6468TIP3   OH240894   1.025   0.394  42.527 -0.6616 -0.0637  0.2088
 6468TIP3    H140895   1.069   0.400  42.442  0.3173 -2.9591  0.3722
 6468TIP3    H240896   1.074   0.453  42.584  0.5512 -0.2465 -0.5927
 6469TIP3   OH240897   0.620   3.352  43.923  0.3801  1.1622 -0.1258
 6469TIP3    H140898   0.633   3.416  43.993  0.8139  0.1551  0.7381
 6469TIP3    H240899   0.707   3.315  43.909 -0.5213 -2.5761  2.6942
 6470TIP3   OH240900   3.630   0.526   5.381 -0.3185 -0.2534 -0.1641
 6470TIP3    H140901   3.719   0.495   5.367 -0.2018  0.2916 -0.6507
 6470TIP3    H240902   3.631   0.564   5.469  0.2103  0.6772 -0.5505
 6471TIP3   OH240903   0.147   0.844   1.466  0.7157  0.5451  0.4731
 6471TIP3    H140904   0.099   0.864   1.385 -0.0465 -0.4911  0.6439
 6471TIP3    H240905   0.087   0.871   1.536 -0.3301 -2.0796  0.7161
 6472TIP3   OH240906   4.080   1.759  12.310  0.3091  0.3371 -0.6410
 6472TIP3    H140907   4.171   1.736  12.327  0.4589 -0.1285 -1.9487
 6472TIP3    H240908   4.041   1.770  12.397  1.8244  1.4748 -0.0662
 6473TIP3   OH240909   1.043   1.603  37.301  0.2987 -0.0284  0.3435
 6473TIP3    H140910   1.042   1.592  37.206  0.7194  1.7752  0.1030
 6473TIP3    H240911   1.128   1.566  37.328  0.0819 -0.7513  0.0645
 6474TIP3   OH240912   0.976   0.367   3.342 -0.3378  0.5643  0.0266
 6474TIP3    H140913   0.909   0.435   3.333 -0.8300 -0.0938 -1.6681
 6474TIP3    H240914   0.931   0.286   3.319  0.4498 -0.2391  1.2188
 6475TIP3   OH240915   1.501   3.260   8.479 -0.2951 -0.5076 -0.6316
 6475TIP3    H140916   1.411   3.272   8.509 -0.3741  0.0033 -1.0488
 6475TIP3    H240917   1.501   3.294   8.389  0.5194  0.3487 -0.3223
 6476TIP3   OH240918   2.890   1.789  14.872 -0.3105 -0.3231 -0.0130
 6476TIP3    H140919   2.829   1.862  14.877 -0.3506 -0.4096  1.1174
 6476TIP3    H240920   2.889   1.752  14.960  1.5516 -0.1863  0.0916
 6477TIP3   OH240921   3.139   1.863  34.855 -0.4251 -0.0405 -0.1081
 6477TIP3    H140922   3.208   1.819  34.904 -0.2368 -0.3974 -0.6766
 6477TIP3    H240923   3.090   1.913  34.920  1.0082  1.0646  0.1474
 6478TIP3   OH240924   3.632   3.706  39.912 -0.1821 -0.2094 -0.6867
 6478TIP3    H140925   3.596   3.755  39.838  1.7887 -0.5975 -1.9864
 6478TIP3    H240926   3.713   3.752  39.934 -0.1207 -0.8250  0.4190
 6479TIP3   OH240927   1.231   4.066   0.907 -0.5919 -0.2405  0.1928
 6479TIP3    H140928   1.302   4.070   0.843 -0.1507 -0.3008  0.6752
 6479TIP3    H240929   1.182   3.987   0.884 -0.9261  0.1869 -0.5795
 6480TIP3   OH240930   2.617   2.394  41.600  0.0483  0.2419  0.4238
 6480TIP3    H140931   2.710   2.393  41.621  0.0518  0.5890  0.4382
 6480TIP3    H240932   2.574   2.419  41.682 -0.1610 -1.0985  0.7557
 6481TIP3   OH240933   3.422   1.970  16.447  0.4053 -0.3738 -0.3170
 6481TIP3    H140934   3.380   2.034  16.505  0.9207 -1.2677  1.1117
 6481TIP3    H240935   3.439   2.018  16.366 -0.6637  0.8311  0.1410
 6482TIP3   OH240936   1.155   1.468  45.724 -0.1344 -0.0458 -0.9853
 6482TIP3    H140937   1.219   1.516  45.778 -0.0215 -0.4864 -0.7243
 6482TIP3    H240938   1.081   1.453  45.783 -0.1510 -0.2262 -1.0520
 6483TIP3   OH240939   0.064   1.682   2.299 -0.1905 -0.3386 -0.1358
 6483TIP3    H140940  -0.023   1.683   2.340 -0.6060  0.7997 -0.9806
 6483TIP3    H240941   0.116   1.743   2.350 -0.7239  1.1213 -1.2592
 6484TIP3   OH240942   2.528   0.825  13.347  0.3203 -0.3931 -0.2222
 6484TIP3    H140943   2.476   0.906  13.356  1.2191  0.4200 -1.8529
 6484TIP3    H240944   2.605   0.852  13.298  0.4704 -2.3412 -1.1302
 6485TIP3   OH240945   0.094   2.328  39.970  0.2086  0.1245  0.1884
 6485TIP3    H140946   0.184   2.338  40.002 -0.1445  0.2298  1.1792
 6485TIP3    H240947   0.040   2.332  40.049 -0.8676  2.4919 -0.5839
 6486TIP3   OH240948   1.179   2.491   8.314  0.2275 -0.0573  0.6886
 6486TIP3    H140949   1.154   2.463   8.225  0.1971 -0.0925  0.7082
 6486TIP3    H240950   1.198   2.409   8.360 -2.6734 -0.3111  1.6180
 6487TIP3   OH240951   2.498   3.952   1.137  0.1919  0.6092 -0.3002
 6487TIP3    H140952   2.419   3.987   1.095  0.5171  0.7139 -0.8335
 6487TIP3    H240953   2.556   4.028   1.145  1.0036  0.1590 -1.6930
 6488TIP3   OH240954   0.131   2.365  17.413  0.8588 -0.1834  0.4559
 6488TIP3    H140955   0.147   2.457  17.435  1.9618 -0.2042 -0.1745
 6488TIP3    H240956   0.160   2.316  17.491  1.4597 -0.0628  0.3118
 6489TIP3   OH240957   0.376   2.518  12.078 -0.7640  0.3341 -0.7827
 6489TIP3    H140958   0.286   2.490  12.067 -1.6285  2.4705  0.2334
 6489TIP3    H240959   0.389   2.585  12.010 -0.4213  1.0306 -0.0513
 6490TIP3   OH240960   3.879   0.285   9.386 -0.2146 -0.3812  0.4508
 6490TIP3    H140961   3.829   0.204   9.395 -1.8313  0.4625 -0.5253
 6490TIP3    H240962   3.813   0.353   9.379  1.1065  0.9064  0.1380
 6491TIP3   OH240963   0.876   1.290  13.687 -0.0740  0.0499  0.2522
 6491TIP3    H140964   0.856   1.221  13.751 -1.3606  1.2278  1.1892
 6491TIP3    H240965   0.957   1.330  13.720 -0.6355  0.5377  1.0817
 6492TIP3   OH240966   1.686   3.175  35.535 -0.6653 -0.2338  0.1811
 6492TIP3    H140967   1.621   3.171  35.605  0.5220  0.6529  1.3816
 6492TIP3    H240968   1.731   3.090  35.539 -0.1802  0.0447  0.9444
 6493TIP3   OH240969   2.988   1.366   0.255  0.1154 -0.3865 -0.0665
 6493TIP3    H140970   2.996   1.325   0.168  1.7188  2.2094 -1.2728
 6493TIP3    H240971   2.897   1.394   0.261  0.1221 -0.0735 -1.2059
 6494TIP3   OH240972   1.297   1.085   3.927 -0.0495 -0.0551 -0.2007
 6494TIP3    H140973   1.330   1.131   4.004 -2.5293 -2.8717  2.9222
 6494TIP3    H240974   1.217   1.132   3.903 -1.0858 -0.9559  1.2399
 6495TIP3   OH240975   0.420   0.918  44.785  0.1748  0.4270  0.4367
 6495TIP3    H140976   0.483   0.984  44.755 -0.9275  2.2993  1.9819
 6495TIP3    H240977   0.427   0.919  44.880 -0.0140 -1.6099  0.5176
 6496TIP3   OH240978   1.189   1.383  14.309 -0.2253 -0.5032  0.3657
 6496TIP3    H140979   1.174   1.434  14.230  1.0266  0.8615  0.9576
 6496TIP3    H240980   1.226   1.301  14.278  0.4891  0.1111 -0.4628
 6497TIP3   OH240981   0.329   3.810  30.310  0.6588  0.1830 -0.1375
 6497TIP3    H140982   0.299   3.744  30.247  2.7091  0.1925 -1.2475
 6497TIP3    H240983   0.375   3.875  30.256  0.8654  1.1938  1.1943
 6498TIP3   OH240984   4.027   3.963  46.221  0.1321  0.0307 -0.7748
 6498TIP3    H140985   4.056   4.053  46.235  2.1335 -0.5926 -0.6419
 6498TIP3    H240986   3.977   3.941  46.300  0.9979  0.5120 -0.0859
 6499TIP3   OH240987   3.163   2.314  37.471 -0.0402  0.3333 -0.8503
 6499TIP3    H140988   3.238   2.257  37.482  0.0669  0.0410 -2.7512
 6499TIP3    H240989   3.108   2.297  37.548  1.7664  0.5106  0.5420
 6500TIP3   OH240990   2.239   3.560  38.836 -0.1865 -0.2726  0.0278
 6500TIP3    H140991   2.210   3.633  38.889  0.2523  0.6763 -0.9972
 6500TIP3    H240992   2.170   3.494  38.845 -2.5233  1.7034 -1.9237
 6501TIP3   OH240993   1.514   2.390  15.115 -0.6104  0.2403  0.1822
 6501TIP3    H140994   1.424   2.372  15.140 -0.7124 -0.7933 -0.8743
 6501TIP3    H240995   1.530   2.335  15.039  1.1042 -0.0438  0.7001
 6502TIP3   OH240996   3.342   0.387  14.300  0.0232 -0.1811 -0.0529
 6502TIP3    H140997   3.259   0.383  14.252 -0.8691  3.1078  0.9304
 6502TIP3    H240998   3.331   0.325  14.372 -1.7140  0.3300  0.1724
 6503TIP3   OH240999   4.066   1.031   3.342 -0.1502  0.4272 -0.1504
 6503TIP3    H141000   3.983   1.074   3.324  0.2097  1.3485  0.2697
 6503TIP3    H241001   4.067   1.020   3.437 -0.5228 -1.1523 -0.3092
 6504TIP3   OH241002   3.410   3.306  38.344 -0.0479  0.3338 -0.0131
 6504TIP3    H141003   3.369   3.221  38.363 -0.0236  0.1940 -0.5730
 6504TIP3    H241004   3.354   3.346  38.279  2.0809 -1.0474 -2.9130
 6505TIP3   OH241005   0.149   0.115  46.513  0.9276 -0.0737  0.8448
 6505TIP3    H141006   0.113   0.066  46.586 -0.6544  1.6187  1.2610
 6505TIP3    H241007   0.199   0.187  46.554 -1.4562  1.9747  0.4078
 6506TIP3   OH241008   3.644   3.663  42.977  0.3172  0.7269 -0.9916
 6506TIP3    H141009   3.624   3.732  43.040 -1.1839 -1.4106  1.0552
 6506TIP3    H241010   3.558   3.637  42.942  0.5768 -1.2706 -0.3079
 6507TIP3   OH241011   2.256   1.762  42.004  0.2746 -0.2099  0.0507
 6507TIP3    H141012   2.322   1.771  42.072  1.1214  0.6894 -0.8490
 6507TIP3    H241013   2.242   1.668  41.996 -0.4874 -0.3141  2.0384
 6508TIP3   OH241014   2.743   0.391  35.250 -0.4634 -0.3142  0.2873
 6508TIP3    H141015   2.655   0.356  35.264 -0.5221 -0.4316 -0.3174
 6508TIP3    H241016   2.729   0.471  35.200 -0.3515  0.7974  1.9658
 6509TIP3   OH241017   2.455   0.889  32.735  0.1097  0.3459 -0.0954
 6509TIP3    H141018   2.541   0.870  32.771 -0.6696  0.5160  2.0111
 6509TIP3    H241019   2.401   0.813  32.760 -0.2591  0.0213 -1.7860
 6510TIP3   OH241020   0.991   2.016  33.360  0.5361  0.0431 -0.5858
 6510TIP3    H141021   1.007   2.073  33.436 -1.7922  0.0992 -0.0549
 6510TIP3    H241022   1.031   1.933  33.383 -0.1122  0.0670  0.7402
 6511TIP3   OH241023   1.144   0.229  41.370 -0.5241  0.0869  0.3224
 6511TIP3    H141024   1.073   0.222  41.306  1.5233 -1.0007 -2.0353
 6511TIP3    H241025   1.221   0.252  41.317  0.9271  1.1661  2.7307
 6512TIP3   OH241026   2.417   2.814   9.895  0.3081  0.1675 -0.5350
 6512TIP3    H141027   2.420   2.724   9.927 -0.5078  0.6239  0.9614
 6512TIP3    H241028   2.332   2.847   9.926 -0.1197  0.9778 -2.4204
 6513TIP3   OH241029   2.845   2.500  45.858 -0.0921  0.3531 -0.6089
 6513TIP3    H141030   2.849   2.564  45.929 -2.1889  0.3131 -0.4108
 6513TIP3    H241031   2.846   2.552  45.778  1.3042  0.4426 -0.5555
 6514TIP3   OH241032   2.856   1.665  43.066 -0.4858 -0.3456  0.1441
 6514TIP3    H141033   2.949   1.656  43.086 -0.1469 -0.4726 -1.3865
 6514TIP3    H241034   2.819   1.578  43.080 -0.5647 -0.1115  1.5491
 6515TIP3   OH241035   1.284   0.993  34.225 -0.1870 -0.7925 -0.1224
 6515TIP3    H141036   1.300   0.901  34.246  0.3127 -0.3343  1.6192
 6515TIP3    H241037   1.205   1.016  34.274  1.0252  0.3181  1.4215
 6516TIP3   OH241038   1.527   3.180  41.820 -0.6568  0.8684 -0.0919
 6516TIP3    H141039   1.566   3.216  41.899 -1.9440  0.0608  0.9623
 6516TIP3    H241040   1.599   3.135  41.776 -0.3491 -0.6761  1.8451
 6517TIP3   OH241041   1.267   2.242   7.651  0.1958 -0.0421 -0.4093
 6517TIP3    H141042   1.257   2.331   7.683 -3.8015 -1.1099  2.1516
 6517TIP3    H241043   1.332   2.202   7.709  0.3448  0.6369 -0.1087
 6518TIP3   OH241044   2.579   3.954  29.598  0.2409  0.4435  0.8645
 6518TIP3    H141045   2.594   3.903  29.518  1.6155  2.1465 -0.0462
 6518TIP3    H241046   2.631   3.909  29.665 -1.9523 -1.7617  1.2159
 6519TIP3   OH241047   1.152   3.621  40.500 -0.2968 -0.5374 -0.0230
 6519TIP3    H141048   1.179   3.530  40.495 -0.9116 -0.7129 -0.2789
 6519TIP3    H241049   1.064   3.618  40.537 -0.1243 -0.0100  0.4489
 6520TIP3   OH241050   3.339   4.019   0.750 -0.4135 -0.0862 -0.4077
 6520TIP3    H141051   3.255   4.058   0.775  0.1495 -0.4928  2.4110
 6520TIP3    H241052   3.400   4.093   0.747 -0.5119 -0.0169 -0.8334
 6521TIP3   OH241053   3.691   0.681  13.726  0.0170  0.0200 -0.3834
 6521TIP3    H141054   3.709   0.593  13.758 -0.6278 -0.4654 -1.3195
 6521TIP3    H241055   3.754   0.695  13.655 -0.2398  0.1034 -0.5970
 6522TIP3   OH241056   2.329   3.384  42.417  0.3194 -0.1800 -0.0799
 6522TIP3    H141057   2.343   3.452  42.482 -1.7278 -0.6418  0.9389
 6522TIP3    H241058   2.299   3.431  42.339 -2.2959  0.1076  0.9961
 6523TIP3   OH241059   3.587   0.332  34.904  0.1069  0.6321 -0.4659
 6523TIP3    H141060   3.604   0.358  34.994  0.9986 -0.1920 -0.3712
 6523TIP3    H241061   3.502   0.369  34.883 -1.4388 -1.4151  1.6378
 6524TIP3   OH241062   0.881   0.845  44.305 -0.0320  0.1778 -0.4871
 6524TIP3    H141063   0.906   0.852  44.213 -0.4930  1.4384 -0.5417
 6524TIP3    H241064   0.786   0.831  44.303 -0.0396  0.1874 -0.2122
 6525TIP3   OH241065   2.071   1.188  40.356 -0.6292  0.0775 -0.0624
 6525TIP3    H141066   2.073   1.199  40.261 -3.3295 -0.8899 -0.3273
 6525TIP3    H241067   1.990   1.140  40.373 -0.8153  1.2027  2.8421
 6526TIP3   OH241068   3.522   0.804   9.079  0.1148 -0.3052  0.7522
 6526TIP3    H141069   3.548   0.866   9.012 -0.6245  1.4366  1.9947
 6526TIP3    H241070   3.595   0.803   9.141  0.6879 -1.7103  0.0939
 6527TIP3   OH241071   2.678   2.425   3.347  0.2709 -0.4784  0.3165
 6527TIP3    H141072   2.633   2.505   3.373 -1.5120 -0.7270 -1.7405
 6527TIP3    H241073   2.646   2.358   3.407 -0.4280 -0.2023  0.2564
 6528TIP3   OH241074   4.062   1.925  33.342 -0.0318 -0.0997  0.5578
 6528TIP3    H141075   3.986   1.981  33.327 -0.2089 -0.2996  0.7135
 6528TIP3    H241076   4.093   1.949  33.429  1.1638  1.2571 -0.1876
 6529TIP3   OH241077   3.946   2.029   3.067  0.0015  0.0930  0.1503
 6529TIP3    H141078   3.919   2.097   3.128  2.9544  0.0655  1.6706
 6529TIP3    H241079   3.940   1.948   3.117 -0.6816 -0.4193 -0.7138
 6530TIP3   OH241080   3.477   0.472  46.374  0.2033  0.4085 -0.3385
 6530TIP3    H141081   3.502   0.520  46.454 -0.8696 -0.3476  0.4891
 6530TIP3    H241082   3.390   0.506  46.353 -0.6144 -1.1786  0.3121
 6531TIP3   OH241083   0.903   2.370   7.999 -0.1374  0.3854  0.5295
 6531TIP3    H141084   0.984   2.337   7.960  0.5547  0.9268  1.4960
 6531TIP3    H241085   0.889   2.314   8.075 -0.4109  0.6129  0.6469
 6532TIP3   OH241086   1.514   2.276   5.893  0.0022  0.1846  0.3596
 6532TIP3    H141087   1.485   2.314   5.810 -0.2432  0.0993  0.4022
 6532TIP3    H241088   1.564   2.199   5.868 -0.9398 -0.4304  0.3046
 6533TIP3   OH241089   0.316   0.123  36.204  0.0238 -0.8630  0.5086
 6533TIP3    H141090   0.377   0.141  36.276  1.1824 -1.3431 -0.3197
 6533TIP3    H241091   0.252   0.194  36.209  0.7010 -0.2821  1.3476
 6534TIP3   OH241092   3.800   0.762  44.072  0.1734  0.3468 -0.6669
 6534TIP3    H141093   3.719   0.723  44.106  0.3817  0.8062  0.3919
 6534TIP3    H241094   3.870   0.708  44.110  0.3743 -0.4698 -2.1148
 6535TIP3   OH241095   1.039   1.036  43.788  0.2367 -0.0175  0.4932
 6535TIP3    H141096   0.983   1.097  43.740  2.6936  0.8169 -1.5725
 6535TIP3    H241097   0.992   0.953  43.787 -1.5660  0.9675  0.1591
 6536TIP3   OH241098   1.437   3.743  37.148 -0.6048  0.3379 -0.2792
 6536TIP3    H141099   1.510   3.751  37.086  0.0723  1.2550  0.6051
 6536TIP3    H241100   1.479   3.738  37.234 -1.3609 -3.3490  0.0629
 6537TIP3   OH241101   3.513   3.677  45.125  0.1781 -0.2941  0.0169
 6537TIP3    H141102   3.591   3.631  45.155  0.0128 -1.0667 -0.7222
 6537TIP3    H241103   3.508   3.658  45.031  0.0280  1.1145 -0.2977
 6538TIP3   OH241104   4.077   4.092   4.937  0.7405 -0.2717 -0.4027
 6538TIP3    H141105   4.036   4.060   4.856  1.0071 -0.6335 -0.3974
 6538TIP3    H241106   4.035   4.042   5.007  1.7528 -1.2373 -0.4595
 6539TIP3   OH241107   0.177   2.210  37.707  0.1014  0.4632 -0.5860
 6539TIP3    H141108   0.130   2.241  37.629  0.6513  0.6852 -0.8318
 6539TIP3    H241109   0.206   2.289  37.751  0.5284  0.3239 -0.6131
 6540TIP3   OH241110   2.934   1.452  34.769 -0.2363 -0.0213 -0.1814
 6540TIP3    H141111   2.901   1.407  34.847 -0.4415  1.1737  0.4305
 6540TIP3    H241112   2.894   1.538  34.772 -0.1800  0.0746 -1.5786
 6541TIP3   OH241113   2.745   2.451   4.230 -0.1043 -0.1988 -0.1574
 6541TIP3    H141114   2.780   2.464   4.142  1.4024 -0.6708  0.3346
 6541TIP3    H241115   2.812   2.488   4.288 -0.0867 -1.7169  0.8682
 6542TIP3   OH241116   1.518   3.232   2.230  0.0184 -0.1464 -0.2986
 6542TIP3    H141117   1.548   3.281   2.153  0.7830  1.8478  1.1652
 6542TIP3    H241118   1.597   3.219   2.282 -0.4800 -1.5208  0.1416
 6543TIP3   OH241119   3.317   2.857  11.053  0.5628 -0.2388 -0.3854
 6543TIP3    H141120   3.373   2.920  11.007  0.1334 -0.1403 -0.7858
 6543TIP3    H241121   3.271   2.909  11.118  1.3048 -0.4103  0.2879
 6544TIP3   OH241122   0.260   0.131  46.146 -0.3540 -0.1027 -0.2068
 6544TIP3    H141123   0.319   0.111  46.220 -1.2455 -1.9882  0.0605
 6544TIP3    H241124   0.307   0.099  46.069  0.1310  0.9339 -0.3629
 6545TIP3   OH241125   1.195   2.672   6.307  0.4095 -0.1743 -0.3203
 6545TIP3    H141126   1.195   2.759   6.266 -0.6669  0.1271  0.2788
 6545TIP3    H241127   1.268   2.675   6.369  0.6282  0.1633 -0.5886
 6546TIP3   OH241128   0.174   0.859  31.691 -0.0308 -0.2635 -0.5241
 6546TIP3    H141129   0.182   0.949  31.723  0.3777  0.3854 -2.3508
 6546TIP3    H241130   0.264   0.831  31.677 -0.1535 -1.0217  0.1295
 6547TIP3   OH241131   0.415   1.309   3.089  0.3180  0.2992 -0.5128
 6547TIP3    H141132   0.496   1.327   3.041  0.1036 -1.1304 -1.4693
 6547TIP3    H241133   0.360   1.262   3.026 -0.9182  0.4894  0.3985
 6548TIP3   OH241134   0.896   1.664  37.521  0.8418 -0.1931  0.7710
 6548TIP3    H141135   0.812   1.621  37.505  0.0249  0.8509  2.0399
 6548TIP3    H241136   0.951   1.639  37.447 -0.7640 -0.4439 -0.3690
 6549TIP3   OH241137   0.379   1.079  39.272  0.7383  0.4311  0.1062
 6549TIP3    H141138   0.412   1.118  39.353 -0.3034  0.0514  0.7329
 6549TIP3    H241139   0.363   1.153  39.214  1.7668  0.6855  0.1250
 6550TIP3   OH241140   1.100   3.859   0.817  0.6796  0.5755  0.2846
 6550TIP3    H141141   1.149   3.882   0.738  0.3273  0.3927  0.0071
 6550TIP3    H241142   1.049   3.781   0.792 -0.3838  1.2383  0.2976
 6551TIP3   OH241143   3.434   3.496  13.433 -0.1003 -0.1739 -0.3653
 6551TIP3    H141144   3.417   3.403  13.419 -1.6378  0.0960 -0.4203
 6551TIP3    H241145   3.410   3.538  13.350  1.3614  0.2122 -0.6328
 6552TIP3   OH241146   2.034   2.122  44.725 -0.3105  0.1118 -0.3069
 6552TIP3    H141147   1.991   2.124  44.810  1.5329  0.7709  0.6706
 6552TIP3    H241148   2.107   2.061  44.737  1.6982  2.3389 -0.4701
 6553TIP3   OH241149   3.573   0.060  38.529 -0.0949  0.2797  0.4041
 6553TIP3    H141150   3.532  -0.024  38.548 -0.6521  1.0439  2.9233
 6553TIP3    H241151   3.659   0.037  38.494 -0.7738 -1.3171 -0.2939
 6554TIP3   OH241152   0.257   2.092  39.853 -0.3654 -0.3702  0.4683
 6554TIP3    H141153   0.194   2.122  39.787 -0.8353  0.6723  1.3445
 6554TIP3    H241154   0.320   2.164  39.860  0.7987 -1.2794 -0.1894
 6555TIP3   OH241155   1.760   2.065  13.388  0.4563  0.2484  0.0007
 6555TIP3    H141156   1.685   2.006  13.397 -0.1904  1.0914  0.3148
 6555TIP3    H241157   1.814   2.025  13.321 -0.2272 -0.4341 -0.1569
 6556TIP3   OH241158   1.798   0.851  43.939 -0.6098  0.0132  0.4651
 6556TIP3    H141159   1.736   0.779  43.950  0.8624 -1.1195  1.8389
 6556TIP3    H241160   1.864   0.816  43.880 -0.0594  0.3454  0.8755
 6557TIP3   OH241161   1.914   0.416  45.741  0.1224  0.0675 -0.1202
 6557TIP3    H141162   1.933   0.336  45.790  1.4317 -0.3915 -1.2974
 6557TIP3    H241163   1.891   0.386  45.653 -1.8799  0.8898  0.0894
 6558TIP3   OH241164   3.526   1.228  37.890  0.3186 -0.3580 -0.0898
 6558TIP3    H141165   3.608   1.274  37.876  0.2201 -0.6443 -1.9374
 6558TIP3    H241166   3.503   1.194  37.803 -1.7962 -0.1817  0.3478
 6559TIP3   OH241167   0.269   3.966   7.856 -0.0438 -0.1014 -0.0480
 6559TIP3    H141168   0.323   3.913   7.797 -0.5479  0.3507 -0.9337
 6559TIP3    H241169   0.320   4.045   7.871  0.1523 -0.2833  0.2484
 6560TIP3   OH241170   1.438   2.543   8.368  0.3055 -0.4484 -0.1246
 6560TIP3    H141171   1.449   2.498   8.284  0.7495  1.7382 -1.3021
 6560TIP3    H241172   1.344   2.557   8.376  0.3079 -0.1891 -0.5308
 6561TIP3   OH241173   3.288   0.099  39.368  0.1481 -0.1158 -0.2428
 6561TIP3    H141174   3.192   0.093  39.362  0.0472  0.3080  0.8298
 6561TIP3    H241175   3.317   0.008  39.365 -0.4458 -0.4032  1.4607
 6562TIP3   OH241176   0.200   3.478  31.561 -0.6283 -0.2115 -0.2267
 6562TIP3    H141177   0.181   3.552  31.504 -0.8453 -0.1566 -0.0856
 6562TIP3    H241178   0.175   3.508  31.649  1.8650  0.5641  0.2962
 6563TIP3   OH241179   0.096   1.916  39.295 -0.2788  0.0832  0.3139
 6563TIP3    H141180   0.006   1.942  39.316 -0.2080  0.7048 -0.1294
 6563TIP3    H241181   0.145   1.933  39.376 -0.7751 -1.4714  0.9972
 6564TIP3   OH241182   1.094   0.401  26.261 -0.3343  0.2302  0.2066
 6564TIP3    H141183   1.045   0.340  26.315 -0.0863  0.2607  0.4687
 6564TIP3    H241184   1.156   0.346  26.212  0.3492  0.3325  0.9396
 6565TIP3   OH241185   0.380   3.492   1.624  0.1248  0.9192 -0.4503
 6565TIP3    H141186   0.421   3.406   1.629  0.2911  1.0346  0.5327
 6565TIP3    H241187   0.386   3.517   1.532  1.0978  0.3745 -0.5446
 6566TIP3   OH241188   3.574   3.338   7.605 -0.2873 -0.9325  0.1590
 6566TIP3    H141189   3.574   3.432   7.620 -0.4364 -0.8346 -0.4193
 6566TIP3    H241190   3.485   3.318   7.577  0.1382 -0.9793 -1.2418
 6567TIP3   OH241191   2.911   2.390  31.253 -0.0411 -0.3036  0.4147
 6567TIP3    H141192   2.903   2.402  31.158  0.0420  1.1110  0.5704
 6567TIP3    H241193   2.978   2.322  31.262  0.6644  0.2365 -0.5219
 6568TIP3   OH241194   4.058   1.871   2.784  0.0491  0.3505 -0.3691
 6568TIP3    H141195   4.143   1.916   2.785  1.7231 -2.5475  1.3386
 6568TIP3    H241196   4.026   1.881   2.874 -0.6893  0.1105 -0.6070
 6569TIP3   OH241197   1.385   0.171  24.145  0.5774 -0.4352  0.2449
 6569TIP3    H141198   1.476   0.199  24.156  0.4655 -0.2189  0.6718
 6569TIP3    H241199   1.358   0.142  24.233 -0.0547  0.4009  0.3456
 6570TIP3   OH241200   0.042   1.058  11.135 -0.7202 -0.0438  0.1747
 6570TIP3    H141201   0.095   1.045  11.215  0.3884  0.7189 -0.4052
 6570TIP3    H241202   0.007   1.146  11.144 -1.8085 -0.4835  0.4734
 6571TIP3   OH241203   2.469   0.541   2.914 -0.6247  0.5245 -0.4387
 6571TIP3    H141204   2.502   0.631   2.910  0.2867  0.3122  1.4283
 6571TIP3    H241205   2.485   0.506   2.826 -0.7462  2.0829 -1.1149
 6572TIP3   OH241206   1.498   0.812  33.998  0.2127  0.8283 -0.2506
 6572TIP3    H141207   1.432   0.869  33.958 -0.0712 -1.1760 -2.9264
 6572TIP3    H241208   1.574   0.819  33.940  1.3349  0.9298  1.1938
 6573TIP3   OH241209   0.851   0.446   0.610  0.1597  0.2661 -0.0648
 6573TIP3    H141210   0.800   0.468   0.533  0.9199  1.9398 -0.1501
 6573TIP3    H241211   0.931   0.498   0.601  3.4354 -4.3205 -1.4631
 6574TIP3   OH241212   2.744   2.516   8.519  0.0642  0.5383  0.0526
 6574TIP3    H141213   2.745   2.566   8.601  1.1958  1.5152 -0.5272
 6574TIP3    H241214   2.679   2.561   8.464  1.0302  1.3701 -0.4425
 6575TIP3   OH241215   2.276   0.816  45.020 -0.2354 -0.3535 -0.0890
 6575TIP3    H141216   2.360   0.784  45.054 -0.2380 -0.2145  0.0488
 6575TIP3    H241217   2.217   0.812  45.096  0.4768  2.7123  0.7239
 6576TIP3   OH241218   2.305   0.120  15.472 -0.2713  0.0010  0.4121
 6576TIP3    H141219   2.211   0.103  15.464 -0.1984 -0.0997 -0.3685
 6576TIP3    H241220   2.347   0.046  15.427  0.0814  1.7209 -2.3444
 6577TIP3   OH241221   3.931   3.688   6.976 -0.0253 -0.3788  0.2699
 6577TIP3    H141222   3.866   3.652   6.915  0.8989  1.4739 -1.9766
 6577TIP3    H241223   3.891   3.770   7.007  0.3964 -0.2416  0.4544
 6578TIP3   OH241224   3.528   0.448  37.717 -0.6514  0.0397  0.4194
 6578TIP3    H141225   3.488   0.427  37.633  0.3194 -0.1278 -0.0111
 6578TIP3    H241226   3.454   0.455  37.778 -1.2985 -0.6090 -0.2758
 6579TIP3   OH241227   0.877   2.466  12.940  0.1088  0.0679 -0.6190
 6579TIP3    H141228   0.835   2.552  12.942 -0.3621 -0.0657 -2.7519
 6579TIP3    H241229   0.918   2.461  12.854  0.3868 -1.7195 -0.4246
 6580TIP3   OH241230   2.873   2.183  32.221  0.8285  0.0395 -0.6408
 6580TIP3    H141231   2.956   2.188  32.174  1.2662  0.6369  0.1644
 6580TIP3    H241232   2.844   2.273  32.228  1.9407  0.2867  2.1995
 6581TIP3   OH241233   3.873   2.377   0.642  0.4591  0.0018 -0.0868
 6581TIP3    H141234   3.851   2.413   0.556  2.2205 -0.0304 -0.5917
 6581TIP3    H241235   3.801   2.405   0.699 -1.5743 -1.3320 -1.8690
 6582TIP3   OH241236   3.176   3.023  14.029 -0.3091  0.0620 -0.0937
 6582TIP3    H141237   3.116   3.091  13.999 -0.0114 -0.8296 -2.9709
 6582TIP3    H241238   3.225   3.064  14.101 -0.4800  2.7052 -1.3662
 6583TIP3   OH241239   0.670   2.459   0.072  0.1887  0.3718  0.3697
 6583TIP3    H141240   0.739   2.458   0.005  0.2814 -0.9214  0.4533
 6583TIP3    H241241   0.717   2.447   0.154 -0.1238 -0.4898  0.4309
 6584TIP3   OH241242   2.183   2.761  39.067 -0.3039  0.0543  0.3727
 6584TIP3    H141243   2.111   2.823  39.077 -2.0002 -1.3162 -2.1326
 6584TIP3    H241244   2.217   2.779  38.979  2.0018  0.1534  1.2076
 6585TIP3   OH241245   1.941   0.490   4.060  0.3358  0.8667  0.0839
 6585TIP3    H141246   1.960   0.551   4.131  1.9057  1.6004 -0.8977
 6585TIP3    H241247   1.857   0.451   4.083  0.5303  1.5019  2.0345
 6586TIP3   OH241248   0.469   3.115  45.072  0.0631 -0.2233  0.3531
 6586TIP3    H141249   0.430   3.202  45.079  1.3762  0.6172 -1.6486
 6586TIP3    H241250   0.409   3.067  45.014  0.2843 -0.0157 -0.0548
 6587TIP3   OH241251   2.254   3.231  10.587  0.3209  0.0625 -0.1094
 6587TIP3    H141252   2.182   3.287  10.557  1.0808  0.6147 -0.9730
 6587TIP3    H241253   2.273   3.175  10.511  0.1598 -0.7574  0.4461
 6588TIP3   OH241254   1.244   1.583  20.228  0.0718 -0.2874  0.1226
 6588TIP3    H141255   1.248   1.662  20.175 -0.8133 -0.5450 -0.3599
 6588TIP3    H241256   1.215   1.515  20.167 -0.9056 -0.6042  0.9048
 6589TIP3   OH241257   2.152   2.112  40.264  0.1167 -0.1824  0.2661
 6589TIP3    H141258   2.153   2.207  40.251  1.0124 -0.3381 -0.9535
 6589TIP3    H241259   2.241   2.090  40.292 -0.1032 -0.6589  0.6135
 6590TIP3   OH241260   0.338   2.099  41.700  0.1949 -0.8391  0.2423
 6590TIP3    H141261   0.287   2.038  41.753 -0.4392 -0.1821  0.4103
 6590TIP3    H241262   0.304   2.088  41.611 -0.3712 -0.2773  0.3842
 6591TIP3   OH241263   1.287   1.806   3.563  0.0349  0.0904 -0.4615
 6591TIP3    H141264   1.286   1.895   3.596  2.8442 -0.2139  0.7537
 6591TIP3    H241265   1.308   1.814   3.470  1.6799  0.7053 -0.0653
 6592TIP3   OH241266   3.409   0.528  34.763 -0.0792 -0.6764  0.1247
 6592TIP3    H141267   3.409   0.519  34.668  0.1896 -1.1251  0.1635
 6592TIP3    H241268   3.343   0.595  34.781 -0.8617 -1.3188 -0.3070
 6593TIP3   OH241269   3.446   2.169  15.300 -0.7390  0.2580 -0.2490
 6593TIP3    H141270   3.363   2.122  15.297 -1.1497  0.9016  0.5264
 6593TIP3    H241271   3.448   2.207  15.388 -0.1484  1.1683 -0.6440
 6594TIP3   OH241272   4.016   3.979  29.822 -0.2647 -0.5246  0.3311
 6594TIP3    H141273   3.986   4.031  29.896 -1.3130 -1.0747  0.2990
 6594TIP3    H241274   4.111   3.996  29.818 -0.0804 -0.9238  2.1305
 6595TIP3   OH241275   1.706   2.403  33.937  0.1265 -0.0062 -0.1722
 6595TIP3    H141276   1.714   2.391  34.032 -2.5266 -0.6633  0.0413
 6595TIP3    H241277   1.779   2.352  33.901  2.3511  1.7583  1.4721
 6596TIP3   OH241278   0.228   1.669   5.129  0.1335  0.2984 -0.1897
 6596TIP3    H141279   0.186   1.684   5.213 -1.6584  0.6371 -1.1087
 6596TIP3    H241280   0.236   1.756   5.090 -0.8107 -0.0175 -1.1504
 6597TIP3   OH241281   3.018   0.991  41.370  0.0057 -0.4325  0.0234
 6597TIP3    H141282   3.065   0.939  41.434 -1.3996 -1.6850  0.0808
 6597TIP3    H241283   2.927   0.990  41.400 -0.6663 -0.9611 -1.8917
 6598TIP3   OH241284   1.938   3.168  14.029 -0.6312 -0.5459 -0.8360
 6598TIP3    H141285   1.940   3.153  13.934  1.3026 -0.6382 -0.8176
 6598TIP3    H241286   1.973   3.087  14.067 -0.2264 -0.0405 -0.1156
 6599TIP3   OH241287   2.757   0.651  14.029 -0.5129 -0.0421  0.4158
 6599TIP3    H141288   2.745   0.560  14.001  0.5484  0.2140 -0.9753
 6599TIP3    H241289   2.850   0.657  14.051  0.0203  1.2830 -1.8973
 6600TIP3   OH241290   2.098   0.613   9.256  0.7986  0.4616  0.0401
 6600TIP3    H141291   2.114   0.595   9.163 -0.6524  1.1153 -0.3627
 6600TIP3    H241292   2.015   0.570   9.274  1.1166  0.2699  1.0720
 6601TIP3   OH241293   0.945   0.650  15.599  0.4485  0.3745 -0.4024
 6601TIP3    H141294   1.027   0.700  15.603  0.2843  0.6004  0.1917
 6601TIP3    H241295   0.958   0.577  15.659 -0.3337  1.2361  0.8402
 6602TIP3   OH241296   0.607   2.015  13.184  0.2120 -0.3026 -0.0108
 6602TIP3    H141297   0.579   2.103  13.160  1.3445  0.1572  0.3034
 6602TIP3    H241298   0.701   2.022  13.197  0.0996 -1.1905  1.5827
 6603TIP3   OH241299   2.227   3.638  35.716 -0.2592  0.5407 -0.6352
 6603TIP3    H141300   2.230   3.726  35.752 -1.2558  0.3036  0.0570
 6603TIP3    H241301   2.136   3.627  35.687  0.1544  0.1870 -1.8688
 6604TIP3   OH241302   1.580   0.714  14.737 -0.0235  0.0359 -0.1951
 6604TIP3    H141303   1.600   0.762  14.817 -2.6323  0.6081  0.2171
 6604TIP3    H241304   1.632   0.757  14.669 -0.0990  1.5958  0.6803
 6605TIP3   OH241305   3.896   2.489   2.079 -0.1884  0.2423 -0.4127
 6605TIP3    H141306   3.883   2.404   2.120  1.5058 -0.3353 -0.9836
 6605TIP3    H241307   3.963   2.474   2.012  0.2836  2.0562 -0.4156
 6606TIP3   OH241308   0.775   3.065  46.402  0.1049 -0.1807 -0.1440
 6606TIP3    H141309   0.780   2.984  46.351  0.1462  0.0401 -0.4933
 6606TIP3    H241310   0.865   3.081  46.431  0.1943  0.0281 -0.5324
 6607TIP3   OH241311   2.719   0.352  36.195 -0.2008  0.0619 -0.6136
 6607TIP3    H141312   2.628   0.367  36.168 -0.3545  0.0518 -0.1035
 6607TIP3    H241313   2.732   0.258  36.183 -0.4666 -0.0499 -0.0628
 6608TIP3   OH241314   3.923   0.074  31.046 -0.3009 -0.4129 -0.9600
 6608TIP3    H141315   3.859   0.122  31.098  0.7221  0.8381 -0.7878
 6608TIP3    H241316   3.935  -0.009  31.092 -2.0203 -0.8122 -1.1956
 6609TIP3   OH241317   3.181   0.182  12.881  0.2916  0.5249 -0.1234
 6609TIP3    H141318   3.213   0.253  12.825  3.2576 -0.1067  0.5869
 6609TIP3    H241319   3.208   0.207  12.969 -0.5379 -0.4794  0.4358
 6610TIP3   OH241320   0.942   1.677   4.336 -0.4175  0.6879  0.3408
 6610TIP3    H141321   0.865   1.634   4.371 -1.0987  0.9970 -0.7377
 6610TIP3    H241322   0.982   1.612   4.278 -0.8145  1.0913 -0.4024
 6611TIP3   OH241323   2.760   1.298  11.173 -0.1808  0.0391  0.0872
 6611TIP3    H141324   2.835   1.349  11.143  0.0090  0.0527  0.5786
 6611TIP3    H241325   2.692   1.315  11.108 -1.0680  3.1504  1.5901
 6612TIP3   OH241326   3.074   3.463  30.309 -0.8428 -0.2721  0.3950
 6612TIP3    H141327   3.136   3.455  30.237  0.2016  0.4540  1.1892
 6612TIP3    H241328   2.995   3.418  30.278 -1.8227  3.0601 -2.7457
 6613TIP3   OH241329   0.743   2.017  36.304 -0.2108  0.0596  0.3817
 6613TIP3    H141330   0.799   2.008  36.227  0.0827  0.9271  0.4861
 6613TIP3    H241331   0.804   2.030  36.377 -0.4462 -1.6222  0.9069
 6614TIP3   OH241332   0.420   0.169  35.483  0.1410 -0.3117  0.2913
 6614TIP3    H141333   0.352   0.138  35.542 -0.3143  1.0502  0.5078
 6614TIP3    H241334   0.418   0.107  35.409 -0.5677 -0.9206  0.8063
 6615TIP3   OH241335   3.058   1.397  15.860 -0.0352  0.0024 -0.0530
 6615TIP3    H141336   3.016   1.478  15.890 -3.4112 -0.6924 -2.3747
 6615TIP3    H241337   3.065   1.343  15.939  3.1472  2.6349  1.7687
 6616TIP3   OH241338   2.563   2.619  12.800 -0.0040  0.4865  0.0716
 6616TIP3    H141339   2.654   2.604  12.774  0.3516  1.0906  0.9128
 6616TIP3    H241340   2.558   2.714  12.814 -0.5729  0.3676  0.7237
 6617TIP3   OH241341   0.969   0.411  40.797  0.2849 -0.4117 -0.0297
 6617TIP3    H141342   0.900   0.348  40.819  0.0264 -0.4528 -0.9279
 6617TIP3    H241343   0.922   0.493  40.782  0.4294 -0.4341 -0.6178
 6618TIP3   OH241344   1.135   1.968  18.873  0.3564  0.4255  0.3800
 6618TIP3    H141345   1.152   1.881  18.836  0.6741  0.5232  0.2942
 6618TIP3    H241346   1.214   1.989  18.923  1.3514  1.7052 -1.5917
 6619TIP3   OH241347   2.794   2.649   7.727  0.4280  0.1305 -0.0587
 6619TIP3    H141348   2.810   2.693   7.810 -2.4082  1.3959 -0.0367
 6619TIP3    H241349   2.825   2.711   7.661  1.5274 -0.3297  0.0036
 6620TIP3   OH241350   3.536   2.348   5.428 -0.6052 -0.1841  0.1627
 6620TIP3    H141351   3.625   2.316   5.413  0.1246  1.2897  1.0526
 6620TIP3    H241352   3.488   2.323   5.350  0.6432 -0.8430 -0.4290
 6621TIP3   OH241353   3.858   3.199  28.184 -0.0850  0.0801 -0.6787
 6621TIP3    H141354   3.912   3.121  28.175  1.0083  0.8102 -0.6017
 6621TIP3    H241355   3.878   3.232  28.272 -0.4777  0.4976 -0.7412
 6622TIP3   OH241356   2.991   0.481  32.973  0.1158  0.1137 -0.0795
 6622TIP3    H141357   2.955   0.427  32.903  0.6230  0.2438 -0.4447
 6622TIP3    H241358   2.963   0.438  33.054  2.6146 -2.1896 -0.2979
 6623TIP3   OH241359   3.568   2.851  31.475  0.7347  0.3063 -0.2983
 6623TIP3    H141360   3.655   2.846  31.514  0.5430 -0.6954  0.0310
 6623TIP3    H241361   3.526   2.768  31.499  0.0931  0.2901 -1.4080
 6624TIP3   OH241362   0.609   2.256   8.108  0.1256  0.0652 -0.0743
 6624TIP3    H141363   0.646   2.332   8.063  1.4399  0.3945  1.4543
 6624TIP3    H241364   0.670   2.184   8.088  0.1421 -0.0302  0.3050
 6625TIP3   OH241365   0.806   1.293   9.552 -0.0929  0.2084 -0.3512
 6625TIP3    H141366   0.761   1.329   9.476 -1.9333  0.6142  0.8408
 6625TIP3    H241367   0.735   1.261   9.608  1.2418 -0.7872  0.8418
 6626TIP3   OH241368   1.408   1.301  41.172 -0.5023  0.1337 -0.5275
 6626TIP3    H141369   1.340   1.235  41.159  0.0838 -1.0114  1.6377
 6626TIP3    H241370   1.473   1.258  41.227  0.3934  2.2025  0.1573
 6627TIP3   OH241371   0.909   3.188   1.067 -0.1742  0.3899  0.3093
 6627TIP3    H141372   0.943   3.173   1.155 -1.1453  2.3028  1.0749
 6627TIP3    H241373   0.966   3.255   1.030  0.4780 -0.6931 -0.7073
 6628TIP3   OH241374   0.178   0.178  42.121 -0.2261  0.3751  0.1463
 6628TIP3    H141375   0.140   0.264  42.140 -0.3067  0.0893  1.3233
 6628TIP3    H241376   0.133   0.118  42.180 -0.3126 -0.5217 -0.8069
 6629TIP3   OH241377   0.686   3.922  45.706  0.2226  0.3312  0.4547
 6629TIP3    H141378   0.701   3.861  45.633 -1.0867  0.2440  0.2390
 6629TIP3    H241379   0.637   3.871  45.770  0.9788  0.5450  1.2049
 6630TIP3   OH241380   2.713   3.904  43.876  0.1647  0.4573  0.4324
 6630TIP3    H141381   2.775   3.897  43.949 -0.5431 -0.5874  0.9681
 6630TIP3    H241382   2.762   3.874  43.800  1.3624  2.9205  0.1531
 6631TIP3   OH241383   1.006   0.412   9.962 -0.3166 -0.0594  0.0885
 6631TIP3    H141384   0.999   0.351  10.036 -0.9113  1.2400  1.1418
 6631TIP3    H241385   1.100   0.421   9.948 -0.1896 -0.2453  0.7572
 6632TIP3   OH241386   1.772   0.264  40.048 -0.1250 -0.1496 -0.3147
 6632TIP3    H141387   1.813   0.260  40.134 -1.8540  2.5796  0.7594
 6632TIP3    H241388   1.760   0.172  40.023  3.9125 -1.0685  0.5009
 6633TIP3   OH241389   3.861   1.704   6.391 -0.0386 -0.5733 -0.3119
 6633TIP3    H141390   3.900   1.702   6.304 -1.3885  0.8247 -0.9938
 6633TIP3    H241391   3.768   1.689   6.376 -0.0822 -2.0222  1.0859
 6634TIP3   OH241392   3.852   1.357   1.147  0.1124 -0.1355  0.0349
 6634TIP3    H141393   3.932   1.404   1.125 -0.4966  0.6154 -0.6754
 6634TIP3    H241394   3.881   1.270   1.174  1.0642 -0.6331 -2.3020
 6635TIP3   OH241395   2.165   0.940   1.449 -0.0822  0.0405  0.5041
 6635TIP3    H141396   2.130   0.900   1.369 -2.0052 -0.7113  1.6625
 6635TIP3    H241397   2.088   0.978   1.492  1.0483  1.1438  1.6152
 6636TIP3   OH241398   3.432   2.162  34.518 -0.1064 -0.2062  0.3624
 6636TIP3    H141399   3.476   2.161  34.433 -0.4203 -1.9357  0.1835
 6636TIP3    H241400   3.339   2.150  34.497 -0.2850  0.1188  0.9244
 6637TIP3   OH241401   3.964   3.270  29.603  0.4160  0.3066 -0.0906
 6637TIP3    H141402   3.934   3.235  29.686 -1.0472  0.4561 -0.5393
 6637TIP3    H241403   3.989   3.361  29.622  0.4273  0.2317  0.2469
 6638TIP3   OH241404   0.676   1.281   6.449  0.0196  0.1692  0.7087
 6638TIP3    H141405   0.752   1.333   6.426  0.6402 -0.7665  0.5902
 6638TIP3    H241406   0.650   1.314   6.536  0.6497  0.3896  0.8179
 6639TIP3   OH241407   3.636   2.149  40.307  0.3172  0.0022  0.2662
 6639TIP3    H141408   3.562   2.131  40.366 -0.9925  0.5520 -1.1305
 6639TIP3    H241409   3.604   2.122  40.221  1.9039 -0.0799 -0.3247
 6640TIP3   OH241410   1.863   3.886   1.808 -0.2047 -0.1565 -0.7459
 6640TIP3    H141411   1.954   3.863   1.826 -0.1675  1.2402  1.1949
 6640TIP3    H241412   1.868   3.954   1.740  0.1868 -0.2938 -0.8532
 6641TIP3   OH241413   1.951   2.924  34.908  0.1453  0.1398 -0.0344
 6641TIP3    H141414   1.880   2.900  34.967 -2.8086  1.7697 -2.6488
 6641TIP3    H241415   1.971   3.015  34.931 -0.7451  0.6506 -1.1655
 6642TIP3   OH241416   2.310   1.820  17.221 -0.1677  0.2043  0.4288
 6642TIP3    H141417   2.282   1.800  17.132  0.0526 -0.6127  0.5331
 6642TIP3    H241418   2.243   1.879  17.255 -0.5099  0.1295 -0.1136
 6643TIP3   OH241419   3.706   1.538  14.418 -0.0129 -0.3255  0.1688
 6643TIP3    H141420   3.758   1.461  14.395  2.3373  1.3540 -0.4379
 6643TIP3    H241421   3.747   1.574  14.496 -1.8271 -0.3071  1.1794
 6644TIP3   OH241422   1.046   1.158   4.898 -0.2225 -0.0292  0.1771
 6644TIP3    H141423   0.982   1.176   4.966 -0.5485 -0.1607 -0.0911
 6644TIP3    H241424   1.103   1.235   4.898 -0.1075 -0.1095  0.7177
 6645TIP3   OH241425   2.079   0.648  39.298  0.2468 -0.1025 -0.2474
 6645TIP3    H141426   2.097   0.715  39.364  0.2711 -0.5140  0.1621
 6645TIP3    H241427   1.986   0.628  39.309  0.5897 -1.2555  0.6747
 6646TIP3   OH241428   4.029   1.924  32.060  0.1710 -0.0304 -0.0475
 6646TIP3    H141429   3.951   1.934  32.007  0.9255 -0.9919 -1.3885
 6646TIP3    H241430   4.087   1.996  32.032  0.2144  0.0055  0.1304
 6647TIP3   OH241431   2.539   3.887  38.301 -0.1259 -0.3716 -0.0443
 6647TIP3    H141432   2.557   3.977  38.271  2.3239 -0.3826  1.1984
 6647TIP3    H241433   2.484   3.898  38.378  0.2029  0.0622  0.1304
 6648TIP3   OH241434   1.079   2.897  11.672 -0.5962 -0.3933 -0.1100
 6648TIP3    H141435   1.046   2.987  11.663 -2.6087 -0.2669  5.1092
 6648TIP3    H241436   1.168   2.907  11.706 -1.1789 -0.2441  1.4517
 6649TIP3   OH241437   1.117   1.755   2.330 -0.3680 -0.4675 -0.0339
 6649TIP3    H141438   1.115   1.851   2.340 -0.9985 -0.5625  0.8451
 6649TIP3    H241439   1.119   1.722   2.420 -0.4921 -1.2872 -0.3296
 6650TIP3   OH241440   2.629   0.355   5.830  0.2658 -0.0157  0.4448
 6650TIP3    H141441   2.594   0.443   5.814 -1.6255 -0.6684  0.7674
 6650TIP3    H241442   2.698   0.369   5.895  0.4512  1.3091 -0.0002
 6651TIP3   OH241443   2.550   1.394   7.787 -0.2735 -0.9251  0.1460
 6651TIP3    H141444   2.541   1.479   7.829  0.9969 -0.3897 -0.5799
 6651TIP3    H241445   2.557   1.414   7.693 -3.7989 -2.1296 -0.5049
 6652TIP3   OH241446   2.926   3.752  25.148 -0.2139  0.3258 -0.2257
 6652TIP3    H141447   3.002   3.774  25.094  0.4914 -0.4312  0.4284
 6652TIP3    H241448   2.883   3.836  25.164  0.2972  0.7256 -0.8772
 6653TIP3   OH241449   0.274   3.690  38.680 -0.5763  0.4849  0.4256
 6653TIP3    H141450   0.302   3.715  38.768  1.1800  0.9556 -0.2128
 6653TIP3    H241451   0.179   3.683  38.685 -0.6404  1.9057  2.0035
 6654TIP3   OH241452   0.827   3.269  37.981 -0.2004 -0.3872 -0.4904
 6654TIP3    H141453   0.910   3.244  37.940 -0.6111 -0.0353 -1.5930
 6654TIP3    H241454   0.851   3.303  38.067  0.9299  0.6961 -1.2003
 6655TIP3   OH241455   0.969   0.825  37.729 -0.2606 -0.1981  0.2945
 6655TIP3    H141456   1.001   0.760  37.791  1.8249  1.0976  0.7030
 6655TIP3    H241457   1.007   0.908  37.760 -0.6319  0.7706 -1.6765
 6656TIP3   OH241458   2.092   3.949  13.480  0.3456  0.2444  0.0544
 6656TIP3    H141459   2.081   3.985  13.568  2.5568 -0.4064  0.6504
 6656TIP3    H241460   2.022   3.990  13.429 -0.1261  1.7240  1.7766
 6657TIP3   OH241461   2.373   0.746   2.112  0.0867  0.0110  0.5142
 6657TIP3    H141462   2.464   0.731   2.086  0.2100 -0.0941  1.0006
 6657TIP3    H241463   2.376   0.754   2.207 -0.2507  1.1177  0.4532
 6658TIP3   OH241464   0.834   3.650  28.272 -0.4397 -0.0909  0.2379
 6658TIP3    H141465   0.862   3.633  28.362 -0.6850  1.6794  0.6730
 6658TIP3    H241466   0.760   3.709  28.280 -3.3756 -3.2307 -0.9688
 6659TIP3   OH241467   3.234   2.770  32.426  0.2229  0.0669 -0.4586
 6659TIP3    H141468   3.270   2.836  32.366  2.4474 -0.5123  0.1277
 6659TIP3    H241469   3.297   2.698  32.422 -1.3545 -1.3828  0.0832
 6660TIP3   OH241470   2.485   2.001  11.002  0.0481  0.6853 -0.3857
 6660TIP3    H141471   2.534   2.078  10.975  0.9686  1.1285  2.3131
 6660TIP3    H241472   2.406   2.036  11.044  0.4393  0.1847  0.7985
 6661TIP3   OH241473   2.073   2.451  46.885 -0.3706  0.0310  0.0869
 6661TIP3    H141474   2.013   2.521  46.909 -0.9860 -0.6636  0.6160
 6661TIP3    H241475   2.017   2.376  46.866  0.3247 -0.7229  0.8735
 6662TIP3   OH241476   1.728   2.057  32.567 -0.3790 -0.1496  0.0455
 6662TIP3    H141477   1.745   2.036  32.659  0.9006  1.0151  0.1015
 6662TIP3    H241478   1.693   2.146  32.568 -0.1857 -0.0590 -0.6046
 6663TIP3   OH241479   0.072   3.982  33.583 -0.5690  0.3879 -0.0692
 6663TIP3    H141480   0.106   4.018  33.665  0.8681 -0.3492 -0.2947
 6663TIP3    H241481   0.063   4.058  33.525  2.9917  0.4797 -0.7555
 6664TIP3   OH241482   2.487   2.930  31.090 -0.1746  0.0054  0.4941
 6664TIP3    H141483   2.483   2.912  30.996 -0.8247 -1.2921  0.7394
 6664TIP3    H241484   2.558   2.993  31.100 -0.1250  0.1921 -0.8706
 6665TIP3   OH241485   1.378   1.046  43.688  0.4175  0.2091  0.3775
 6665TIP3    H141486   1.454   0.996  43.716 -0.2610  0.2463  2.4799
 6665TIP3    H241487   1.311   0.980  43.669  0.9199  0.1790 -1.3945
 6666TIP3   OH241488   2.758   2.840  35.624 -0.1379 -0.5351 -0.1620
 6666TIP3    H141489   2.731   2.801  35.541 -0.7681 -0.3362 -0.0523
 6666TIP3    H241490   2.676   2.866  35.666  0.2751  1.2242 -0.3904
 6667TIP3   OH241491   0.267   2.015   9.581  0.2960  0.1158  0.8079
 6667TIP3    H141492   0.193   2.076   9.574  0.1334 -0.1034  0.6194
 6667TIP3    H241493   0.343   2.072   9.593  0.0515  0.3298  1.3792
 6668TIP3   OH241494   0.739   3.345  47.699  0.2719  0.1654 -0.1707
 6668TIP3    H141495   0.762   3.397  47.622  0.9546  2.3254  1.4096
 6668TIP3    H241496   0.681   3.277  47.665 -2.3723  3.1257 -2.1255
 6669TIP3   OH241497   0.181   3.063   9.494 -0.4335  0.6873  0.1896
 6669TIP3    H141498   0.156   3.031   9.580 -0.4519 -0.7010 -0.3058
 6669TIP3    H241499   0.202   3.155   9.508 -0.5756  0.5240  1.6433
 6670TIP3   OH241500   1.664   1.382  10.604 -0.5553 -0.1293  0.4626
 6670TIP3    H141501   1.652   1.456  10.546 -1.1573  0.6516  1.5325
 6670TIP3    H241502   1.692   1.310  10.547 -0.3691  0.8008 -0.6487
 6671TIP3   OH241503   2.708   3.554  39.531  0.2288 -0.1147 -0.1758
 6671TIP3    H141504   2.697   3.467  39.492  1.9926 -0.4469 -0.0319
 6671TIP3    H241505   2.776   3.542  39.597  0.5817  1.3991 -0.2344
 6672TIP3   OH241506   1.710   0.004  46.140  0.0105 -0.2596  0.2508
 6672TIP3    H141507   1.646  -0.011  46.210  0.1632  0.0840  0.4639
 6672TIP3    H241508   1.767   0.072  46.174 -0.9325  1.1644 -0.8727
 6673TIP3   OH241509   3.910   3.981  42.404  0.2254  0.9588  0.2397
 6673TIP3    H141510   3.945   4.003  42.318 -2.1831  0.4062 -0.9725
 6673TIP3    H241511   3.944   3.893  42.423  0.1668  0.7635 -0.5333
 6674TIP3   OH241512   3.078   1.018   1.898 -0.2463  0.3607  0.0618
 6674TIP3    H141513   3.046   0.945   1.845  1.7005 -0.1734 -0.4796
 6674TIP3    H241514   3.112   1.081   1.834 -1.4864  1.5487  0.5449
 6675TIP3   OH241515   1.684   3.511   1.909  0.8330 -0.4896 -0.0205
 6675TIP3    H141516   1.761   3.473   1.953  1.3374 -1.3765 -1.5898
 6675TIP3    H241517   1.618   3.441   1.913  0.9886 -0.6967 -0.9120
 6676TIP3   OH241518   0.607   0.758   3.923  0.2283 -0.4201 -0.4477
 6676TIP3    H141519   0.589   0.779   4.014  2.2399 -0.0093 -0.1029
 6676TIP3    H241520   0.635   0.666   3.924 -1.8018 -1.1029 -0.9930
 6677TIP3   OH241521   2.060   3.884   6.310 -0.0872  0.0191  0.3543
 6677TIP3    H141522   2.101   3.888   6.224  0.2368  0.2158  0.5138
 6677TIP3    H241523   2.057   3.975   6.340  0.2053 -0.0915  0.7322
 6678TIP3   OH241524   0.295   2.670  10.622  0.3561 -0.4423  0.7462
 6678TIP3    H141525   0.333   2.732  10.684  1.6688  0.0504 -0.4965
 6678TIP3    H241526   0.204   2.699  10.611  0.3784  0.0108  1.7152
 6679TIP3   OH241527   1.294   0.659  38.793  0.4734  0.3799  0.6381
 6679TIP3    H141528   1.245   0.709  38.727  1.4781  0.7558  0.1511
 6679TIP3    H241529   1.231   0.596  38.827 -0.0734  0.1737 -0.6895
 6680TIP3   OH241530   3.943   0.721  38.901  0.0238  0.2418 -0.0506
 6680TIP3    H141531   3.851   0.727  38.928 -0.1701 -1.7063 -0.1826
 6680TIP3    H241532   3.993   0.731  38.982 -0.2936  0.8911  0.0774
 6681TIP3   OH241533   2.736   1.925  19.473 -0.0955  0.5946  0.1333
 6681TIP3    H141534   2.730   1.918  19.568  0.5621 -0.3228  0.1187
 6681TIP3    H241535   2.676   1.859  19.440  1.2638 -0.6015 -0.0544
 6682TIP3   OH241536   2.452   0.640  11.049  0.0992  0.2341  0.6848
 6682TIP3    H141537   2.420   0.629  11.138  1.5167  1.0551  1.3194
 6682TIP3    H241538   2.500   0.559  11.030  0.5224  0.4116  0.9879
 6683TIP3   OH241539   2.930   2.456  36.027 -0.2460 -0.3840 -0.2156
 6683TIP3    H141540   2.995   2.493  35.967  0.8892 -2.5214 -0.4003
 6683TIP3    H241541   2.857   2.431  35.970  0.7191 -2.1648 -0.7434
 6684TIP3   OH241542   0.992   2.502  38.502 -0.7394  0.5802  0.3693
 6684TIP3    H141543   0.945   2.423  38.528 -2.2090  1.1617 -0.3483
 6684TIP3    H241544   0.949   2.572  38.552 -0.3531  1.0781  0.0097
 6685TIP3   OH241545   3.722   2.628  32.070 -0.4538  0.0687 -0.2682
 6685TIP3    H141546   3.719   2.604  32.163 -0.8717  0.3848 -0.2019
 6685TIP3    H241547   3.666   2.705  32.062 -0.3439  0.1023 -0.7680
 6686TIP3   OH241548   2.511   4.008  32.071  0.1975 -0.3095 -0.1463
 6686TIP3    H141549   2.526   3.989  32.163  0.5705  0.7181  0.0172
 6686TIP3    H241550   2.426   4.053  32.068  1.2366  1.8378  0.0436
 6687TIP3   OH241551   0.688   1.658   6.450 -0.6873 -0.0747 -0.4224
 6687TIP3    H141552   0.733   1.699   6.524 -2.5653  2.6889 -0.6599
 6687TIP3    H241553   0.663   1.571   6.482  0.6463  0.1168  1.3058
 6688TIP3   OH241554   2.342   2.619  47.215  0.0929  0.5573 -0.4014
 6688TIP3    H141555   2.350   2.525  47.232  1.7263  0.9900  1.5109
 6688TIP3    H241556   2.359   2.660  47.300 -1.0905  2.5817 -1.0929
 6689TIP3   OH241557   0.740   0.962   5.782 -0.2856  0.1235  0.5040
 6689TIP3    H141558   0.829   0.926   5.777 -0.2588  0.2248  0.2501
 6689TIP3    H241559   0.694   0.904   5.844 -0.6726 -1.2415 -0.9860
 6690TIP3   OH241560   0.920   0.084  39.736 -0.5463 -0.1625 -0.3264
 6690TIP3    H141561   0.976   0.014  39.703 -0.7506 -0.6297  0.2959
 6690TIP3    H241562   0.963   0.164  39.708 -0.8130 -0.5316 -1.8832
 6691TIP3   OH241563   2.238   3.940   7.836  0.0596 -0.2975 -0.2721
 6691TIP3    H141564   2.155   3.920   7.793 -0.9313 -0.6245  1.6495
 6691TIP3    H241565   2.214   3.960   7.926  2.1029 -0.6883  0.4247
 6692TIP3   OH241566   3.544   0.630  11.187 -0.0220 -0.3870 -0.3687
 6692TIP3    H141567   3.552   0.713  11.236  4.5905 -0.6692 -0.2110
 6692TIP3    H241568   3.501   0.571  11.249  0.9521  0.6659  1.4326
 6693TIP3   OH241569   2.663   4.103   2.221 -0.1872 -0.2254 -0.1633
 6693TIP3    H141570   2.728   4.033   2.217 -0.4452 -0.4651 -0.1850
 6693TIP3    H241571   2.691   4.166   2.154 -0.7600 -1.0029 -1.1525
 6694TIP3   OH241572   3.197   0.486  45.681  0.4694  0.3898  0.2651
 6694TIP3    H141573   3.114   0.451  45.712  0.2525 -0.5365 -1.2473
 6694TIP3    H241574   3.201   0.575  45.716 -0.0023 -0.3826  2.3912
 6695TIP3   OH241575   1.923   3.443   4.498  0.7251  0.2341 -0.1051
 6695TIP3    H141576   1.891   3.533   4.512  1.1367  0.2491  0.8291
 6695TIP3    H241577   1.963   3.419   4.581  1.2161 -0.5814 -0.5672
 6696TIP3   OH241578   0.441   3.802  36.423 -0.5207 -0.2250 -0.6870
 6696TIP3    H141579   0.352   3.775  36.443 -0.7862 -0.2468 -1.8352
 6696TIP3    H241580   0.481   3.726  36.380  0.0353 -0.2040 -0.2196
 6697TIP3   OH241581   0.755   2.358  44.193  0.0798 -0.1609  0.0933
 6697TIP3    H141582   0.748   2.269  44.160 -1.5432 -0.2129  0.4870
 6697TIP3    H241583   0.688   2.407  44.145  1.7167  1.1584 -0.9762
 6698TIP3   OH241584   1.285   1.468  10.663 -0.0707  0.3657 -0.0260
 6698TIP3    H141585   1.356   1.509  10.713  0.8065  0.4045 -1.2437
 6698TIP3    H241586   1.217   1.534  10.657  0.3669  0.8212 -0.0052
 6699TIP3   OH241587   0.551   1.870  35.905 -0.2014 -0.0793 -0.0773
 6699TIP3    H141588   0.555   1.868  35.809  0.0083 -3.2470 -0.1188
 6699TIP3    H241589   0.638   1.844  35.933 -0.2879  0.7431  0.9819
 6700TIP3   OH241590   3.132   1.569  42.201 -0.5484 -0.1620 -0.2547
 6700TIP3    H141591   3.075   1.581  42.124  0.8378  0.1651 -1.2725
 6700TIP3    H241592   3.148   1.658  42.232  0.4650 -0.1226 -0.8144
 6701TIP3   OH241593   2.042   3.429  36.101  0.7152  0.2257 -0.0834
 6701TIP3    H141594   2.043   3.402  36.009  0.4355 -0.7082  0.1741
 6701TIP3    H241595   1.994   3.359  36.146 -0.6281  1.5106  0.5322
 6702TIP3   OH241596   0.186   2.816   2.698  0.3887 -0.2677 -0.3730
 6702TIP3    H141597   0.206   2.765   2.776 -1.0625 -1.5696 -0.8019
 6702TIP3    H241598   0.219   2.764   2.625 -0.4232 -0.2518 -0.7716
 6703TIP3   OH241599   3.095   1.808  42.624  0.5040  0.0837 -0.4149
 6703TIP3    H141600   3.164   1.847  42.572  1.5798  1.8014  2.0855
 6703TIP3    H241601   3.132   1.802  42.712 -2.9071  2.4931  1.4480
 6704TIP3   OH241602   3.244   2.965  13.727  0.2898  0.4896  0.0832
 6704TIP3    H141603   3.249   2.988  13.820  0.0908 -0.3466  0.3075
 6704TIP3    H241604   3.333   2.980  13.694  0.0386  2.1069  0.0780
 6705TIP3   OH241605   2.179   3.617  25.013  0.6528 -0.1511 -0.6955
 6705TIP3    H141606   2.272   3.619  25.034  0.3739  1.1025  0.6219
 6705TIP3    H241607   2.175   3.585  24.923  2.4838  1.3034 -1.3732
 6706TIP3   OH241608   0.682   0.379   3.371  0.4315  0.2911  0.0488
 6706TIP3    H141609   0.602   0.365   3.421  1.8728 -0.2797  2.3605
 6706TIP3    H241610   0.671   0.465   3.331 -2.2099 -0.6905 -1.6115
 6707TIP3   OH241611   0.125   3.236   5.490  0.5519 -0.1910  0.3372
 6707TIP3    H141612   0.046   3.211   5.442  0.0553  0.2317  0.9191
 6707TIP3    H241613   0.180   3.279   5.425 -1.4461  3.2778  0.7305
 6708TIP3   OH241614   2.965   1.264  19.591  0.3758  0.4747  0.3833
 6708TIP3    H141615   2.922   1.256  19.676 -0.3037 -1.7117 -0.0841
 6708TIP3    H241616   3.030   1.333  19.602  0.4665  0.0754  2.7277
 6709TIP3   OH241617   3.048   0.611   5.990  0.3412 -0.0726 -0.0773
 6709TIP3    H141618   3.061   0.580   5.901  0.0339  0.6827 -0.3948
 6709TIP3    H241619   3.036   0.531   6.042  0.3287 -0.5096 -0.7429
 6710TIP3   OH241620   1.939   3.948  41.954  0.0690 -0.3962  0.1158
 6710TIP3    H141621   1.898   3.871  41.914 -0.4168 -1.4894  2.5728
 6710TIP3    H241622   1.868   4.010  41.964 -0.1468 -0.7271  0.6807
 6711TIP3   OH241623   1.083   3.271  40.007 -0.4528  0.1187  0.1189
 6711TIP3    H141624   1.080   3.281  39.912  1.3285 -0.3495 -0.0346
 6711TIP3    H241625   1.166   3.311  40.033  0.1485 -1.6602  1.1737
 6712TIP3   OH241626   2.092   2.598   5.781 -0.0096 -0.2931  0.4984
 6712TIP3    H141627   2.080   2.528   5.716 -0.8585 -1.2674  1.6583
 6712TIP3    H241628   2.064   2.677   5.735  2.0485 -0.4711 -1.2244
 6713TIP3   OH241629   0.454   0.340  32.668 -0.9309  0.4601  0.0082
 6713TIP3    H141630   0.546   0.345  32.642 -1.0983 -1.4512 -1.1936
 6713TIP3    H241631   0.453   0.280  32.742 -0.9267  2.8597  2.0811
 6714TIP3   OH241632   2.520   1.295  14.389 -0.3319 -0.1310 -0.3493
 6714TIP3    H141633   2.457   1.224  14.397  1.1241 -1.3310  1.1165
 6714TIP3    H241634   2.594   1.256  14.341  0.0627  0.6950 -0.4321
 6715TIP3   OH241635   0.413   2.180  33.633  0.4341  0.0976 -0.1965
 6715TIP3    H141636   0.476   2.251  33.646 -0.2825  0.4423  1.6080
 6715TIP3    H241637   0.335   2.224  33.598 -0.4680  0.4595  2.1402
 6716TIP3   OH241638   0.162   0.428  34.663 -0.1291 -0.1377  0.3576
 6716TIP3    H141639   0.139   0.498  34.725  0.1822 -0.7050  1.1221
 6716TIP3    H241640   0.122   0.350  34.699 -1.5472 -0.1591 -1.1530
 6717TIP3   OH241641   2.597   1.914  35.091 -0.4044  0.0490  0.1757
 6717TIP3    H141642   2.570   1.997  35.050  1.3598 -0.3902 -2.1537
 6717TIP3    H241643   2.672   1.938  35.145 -0.8111  0.1687  0.6934
 6718TIP3   OH241644   2.115   0.851  10.211 -0.1614  0.4528 -0.3339
 6718TIP3    H141645   2.099   0.805  10.129  0.3186  0.9491 -0.7248
 6718TIP3    H241646   2.031   0.891  10.234 -1.3556 -2.7567  1.4555
 6719TIP3   OH241647   1.306   3.554  41.335  0.1481 -0.2091 -0.1392
 6719TIP3    H141648   1.313   3.483  41.271  0.8758  0.3572 -0.6977
 6719TIP3    H241649   1.234   3.527  41.392 -1.9767  0.2497 -2.4355
 6720TIP3   OH241650   1.094   2.372  36.137 -0.4467  0.1063  0.4166
 6720TIP3    H141651   1.156   2.305  36.167 -1.8642 -0.4008  2.3785
 6720TIP3    H241652   1.096   2.364  36.041 -0.3512 -2.5831  0.5495
 6721TIP3   OH241653   3.231   3.607  12.286  0.0898 -0.0514 -0.1457
 6721TIP3    H141654   3.146   3.640  12.257  0.3411  1.9003  1.1646
 6721TIP3    H241655   3.285   3.685  12.300  1.1286 -1.0289  1.8812
 6722TIP3   OH241656   2.340   3.763  35.457  0.1218 -0.0394 -0.2608
 6722TIP3    H141657   2.343   3.671  35.484  1.4194  0.3932  1.2267
 6722TIP3    H241658   2.341   3.812  35.539  3.3486  1.3399 -0.9713
 6723TIP3   OH241659   0.506   1.654  11.776 -0.4382  0.0822  0.1272
 6723TIP3    H141660   0.593   1.619  11.794 -0.7378 -0.8564 -0.1895
 6723TIP3    H241661   0.495   1.725  11.838  0.2645 -0.2825  0.6760
 6724TIP3   OH241662   0.447   3.480  45.304  0.0114 -0.3971 -0.1945
 6724TIP3    H141663   0.541   3.472  45.320 -0.0398 -1.9444 -0.5122
 6724TIP3    H241664   0.406   3.423  45.369 -0.5423 -1.7610 -1.6760
 6725TIP3   OH241665   3.206   2.396   9.488  0.4018 -0.7520 -0.6196
 6725TIP3    H141666   3.234   2.444   9.566  2.1773 -1.2669 -0.8966
 6725TIP3    H241667   3.197   2.305   9.518 -0.5927 -0.6666 -0.6388
 6726TIP3   OH241668   3.159   3.583  11.912  0.0309  0.2787 -0.4077
 6726TIP3    H141669   3.064   3.577  11.901 -0.5427  0.4240  3.2483
 6726TIP3    H241670   3.182   3.667  11.872 -1.2300 -0.0453 -1.9011
 6727TIP3   OH241671   0.426   3.863  36.125 -0.3406  0.4334  0.7335
 6727TIP3    H141672   0.447   3.828  36.212  0.2126 -2.1777 -0.3608
 6727TIP3    H241673   0.504   3.912  36.099  0.6780 -1.1926  0.5935
 6728TIP3   OH241674   1.834   2.193  19.270  0.4327  0.3638  0.3190
 6728TIP3    H141675   1.788   2.265  19.228  0.9889 -0.6667 -2.2463
 6728TIP3    H241676   1.927   2.217  19.263  0.6201 -0.5473 -0.5501
 6729TIP3   OH241677   1.428   2.431  41.799  0.0955 -0.1295 -0.1712
 6729TIP3    H141678   1.429   2.423  41.894 -0.5854  0.3259 -0.1171
 6729TIP3    H241679   1.513   2.469  41.777  0.1721 -0.0413  0.2734
 6730TIP3   OH241680   2.389   1.946  12.052 -0.4825 -0.1184  0.3774
 6730TIP3    H141681   2.458   1.977  12.110 -1.7141  0.3651  1.6373
 6730TIP3    H241682   2.423   1.960  11.964 -0.6884  4.3334  0.8164
 6731TIP3   OH241683   2.977   3.349  34.640  0.4052  0.1449 -0.2353
 6731TIP3    H141684   3.021   3.287  34.698 -3.5379 -0.6370  2.3342
 6731TIP3    H241685   2.989   3.434  34.683  0.8831  0.2204 -0.5144
 6732TIP3   OH241686   2.508   3.031   5.227 -0.3380  0.1274 -0.0277
 6732TIP3    H141687   2.535   3.061   5.314  1.0714 -1.2584  0.0503
 6732TIP3    H241688   2.505   2.936   5.235  0.4982 -0.0662 -1.6638
 6733TIP3   OH241689   0.074   0.360  44.303  0.1430 -0.1808  0.2313
 6733TIP3    H141690   0.168   0.370  44.319  0.2277  0.5074 -0.5827
 6733TIP3    H241691   0.045   0.448  44.278 -1.0898  0.0113  2.1829
 6734TIP3   OH241692   1.366   3.122  38.756 -0.3402  0.0054  0.2419
 6734TIP3    H141693   1.403   3.145  38.841  0.1684 -1.0520  0.3247
 6734TIP3    H241694   1.277   3.093  38.775 -1.2608  2.4510  0.0535
 6735TIP3   OH241695   0.836   0.995   4.856  0.3660 -0.3306  0.0851
 6735TIP3    H141696   0.756   1.047   4.845  0.2166 -0.8379 -1.4918
 6735TIP3    H241697   0.905   1.060   4.867 -0.1419  0.1397  0.5238
 6736TIP3   OH241698   3.636   2.536  42.970  0.7464  0.2931  0.0510
 6736TIP3    H141699   3.703   2.563  43.033  0.2614  0.6438  0.4294
 6736TIP3    H241700   3.671   2.561  42.885  0.3235  2.1497  0.3843
 6737TIP3   OH241701   3.106   2.731  12.176 -0.4933 -0.4632 -0.1769
 6737TIP3    H141702   3.041   2.798  12.155  0.1369 -0.6187 -2.9230
 6737TIP3    H241703   3.174   2.778  12.224 -1.1269  0.3643 -0.0644
 6738TIP3   OH241704   3.590   2.221  36.223  0.7838 -0.6477 -0.2496
 6738TIP3    H141705   3.515   2.193  36.274 -0.7306 -0.6153 -2.3413
 6738TIP3    H241706   3.609   2.310  36.254 -0.1993 -0.5593  0.1208
 6739TIP3   OH241707   1.290   0.346  43.597  0.5185 -0.7329  0.1116
 6739TIP3    H141708   1.319   0.319  43.510  2.4984  2.4141 -0.3388
 6739TIP3    H241709   1.367   0.336  43.653  0.0636 -0.1373  0.8636
 6740TIP3   OH241710   2.995   3.185   6.498  0.2204  0.4553  0.0275
 6740TIP3    H141711   3.087   3.182   6.524 -0.2753  0.4931  1.8705
 6740TIP3    H241712   2.997   3.167   6.404  2.0219 -0.7315  0.2373
 6741TIP3   OH241713   4.062   1.540  43.598  0.4804  0.4955  0.3707
 6741TIP3    H141714   4.011   1.615  43.565 -0.2581 -0.0383  0.2740
 6741TIP3    H241715   3.996   1.475  43.621  1.1246 -0.1553  0.3927
 6742TIP3   OH241716   3.543   0.789   4.486 -0.2144  0.3245  0.0544
 6742TIP3    H141717   3.605   0.839   4.433  0.6067  1.5503  2.0713
 6742TIP3    H241718   3.457   0.810   4.448  0.3323  1.3244 -0.6832
 6743TIP3   OH241719   0.268   4.020  42.553  0.7941  0.7402 -0.0680
 6743TIP3    H141720   0.343   4.051  42.603  1.7907  0.9742 -1.6497
 6743TIP3    H241721   0.277   3.924  42.553  0.6659  0.7247  0.3504
 6744TIP3   OH241722   2.134   2.162  12.333 -0.1029  0.2376 -0.3527
 6744TIP3    H141723   2.173   2.206  12.257 -2.0911  1.6979 -0.5968
 6744TIP3    H241724   2.187   2.191  12.407  1.3286 -0.5187 -1.0423
 6745TIP3   OH241725   3.870   0.675   2.385  0.0870  0.8862 -0.1562
 6745TIP3    H141726   3.883   0.744   2.320 -1.6792 -0.1507 -1.6883
 6745TIP3    H241727   3.826   0.605   2.337  0.2026 -0.5941  1.7910
 6746TIP3   OH241728   3.324   1.743  36.522  0.2120 -0.3193  0.4259
 6746TIP3    H141729   3.297   1.820  36.572 -1.3321  0.0403 -0.9044
 6746TIP3    H241730   3.326   1.772  36.431 -3.9881 -2.5901 -0.6640
 6747TIP3   OH241731   3.794   3.488  29.406 -0.3415 -0.1090 -0.1673
 6747TIP3    H141732   3.874   3.491  29.458 -1.2283 -0.7355  1.2994
 6747TIP3    H241733   3.776   3.395  29.394 -0.6008  0.0279 -0.9239
 6748TIP3   OH241734   0.205   3.093   9.937  0.0246  0.5491  0.0024
 6748TIP3    H141735   0.217   3.183   9.905 -0.7970  0.5488 -0.3293
 6748TIP3    H241736   0.192   3.103  10.031  0.6969  0.7103  0.0810
 6749TIP3   OH241737   1.150   1.607  11.544  0.2408 -0.0518  0.2572
 6749TIP3    H141738   1.066   1.640  11.512  0.9861 -0.2878 -2.1212
 6749TIP3    H241739   1.214   1.672  11.515  1.0242 -0.3953  1.1573
 6750TIP3   OH241740   2.399   1.803  41.738 -0.1353  0.6716  0.4217
 6750TIP3    H141741   2.351   1.733  41.693  2.4874  0.4112 -2.3515
 6750TIP3    H241742   2.354   1.814  41.821 -3.8169 -0.6949 -1.1666
 6751TIP3   OH241743   1.459   0.807  46.281  0.1773 -0.2683  0.1911
 6751TIP3    H141744   1.399   0.859  46.227 -0.3504  0.9152  1.8396
 6751TIP3    H241745   1.404   0.772  46.351  0.9981 -1.0826  0.4481
 6752TIP3   OH241746   1.214   3.003   7.563  0.3122  0.1873  0.2041
 6752TIP3    H141747   1.127   3.041   7.571 -0.3853 -0.5648 -2.8599
 6752TIP3    H241748   1.273   3.078   7.555 -0.4154  0.6775 -0.5876
 6753TIP3   OH241749   0.355   0.756  33.331  0.3887 -0.1182  0.1917
 6753TIP3    H141750   0.373   0.750  33.425  0.0709 -0.5237  0.2257
 6753TIP3    H241751   0.260   0.767  33.325  0.2539 -1.3096 -0.1203
 6754TIP3   OH241752   3.880   2.293  19.306  0.5584 -0.3392  0.8960
 6754TIP3    H141753   3.906   2.248  19.226  1.6801  0.1213  0.9742
 6754TIP3    H241754   3.852   2.380  19.277  0.5429 -0.3224  0.9614
 6755TIP3   OH241755   0.498   3.502   9.959 -0.0598  0.2855  0.0384
 6755TIP3    H141756   0.410   3.468   9.943 -0.1761  0.2527  0.7203
 6755TIP3    H241757   0.553   3.424   9.969  0.3460  0.2839 -1.8443
 6756TIP3   OH241758   1.606   0.993  39.316 -0.5945 -0.6976  0.2252
 6756TIP3    H141759   1.686   0.942  39.307  0.0258  0.0221  1.4934
 6756TIP3    H241760   1.563   0.984  39.230  0.9769 -0.8431 -0.5879
 6757TIP3   OH241761   2.288   0.540  12.100 -0.3144 -0.7229 -0.0347
 6757TIP3    H141762   2.374   0.521  12.061 -1.3935 -1.0061 -2.4722
 6757TIP3    H241763   2.287   0.636  12.109 -0.1024 -0.6171 -0.9849
 6758TIP3   OH241764   2.625   2.444  42.597  0.3927 -0.1350  0.0593
 6758TIP3    H141765   2.614   2.500  42.520  0.2340  1.2469  1.0530
 6758TIP3    H241766   2.543   2.452  42.645 -0.1141 -2.2088 -0.3454
 6759TIP3   OH241767   0.519   2.393  13.793  0.1189  0.1905 -0.1045
 6759TIP3    H141768   0.507   2.474  13.844  0.0123 -0.8187  1.5480
 6759TIP3    H241769   0.571   2.337  13.850 -0.0828 -1.0327 -1.0998
 6760TIP3   OH241770   3.526   4.068   2.845 -0.7960 -0.4078  0.2196
 6760TIP3    H141771   3.481   4.032   2.921  0.3609 -0.1484  1.0520
 6760TIP3    H241772   3.528   3.997   2.781 -2.6386 -0.3288  0.0248
 6761TIP3   OH241773   3.373   0.069  44.059 -0.3737 -0.0225  0.7006
 6761TIP3    H141774   3.465   0.044  44.047  0.1138  1.6519  0.6704
 6761TIP3    H241775   3.374   0.128  44.135 -1.5450 -0.5324  1.1378
 6762TIP3   OH241776   0.790   2.813  44.073 -0.1887 -0.3325  0.0296
 6762TIP3    H141777   0.802   2.905  44.095 -1.1690 -0.3988  0.9519
 6762TIP3    H241778   0.697   2.806  44.049 -0.2265 -1.1528  0.3812
 6763TIP3   OH241779   3.597   2.941  44.860  0.1544  0.2114 -0.0404
 6763TIP3    H141780   3.598   2.874  44.928 -0.0105  0.2127 -0.0375
 6763TIP3    H241781   3.662   3.006  44.890 -0.9928  0.9810  0.8901
 6764TIP3   OH241782   1.423   3.829  33.271 -0.3940  0.3061  0.0131
 6764TIP3    H141783   1.376   3.811  33.352  1.1170  0.9003  1.0764
 6764TIP3    H241784   1.515   3.824  33.295  0.1062  0.1038 -1.7745
 6765TIP3   OH241785   0.833   2.053   4.232  0.3044  0.2925  0.1414
 6765TIP3    H141786   0.884   2.115   4.285  0.1169  0.9899 -0.4798
 6765TIP3    H241787   0.894   1.981   4.213  1.1106  1.1764 -0.7141
 6766TIP3   OH241788   1.469   1.005  21.414 -0.0464  0.4915  0.0366
 6766TIP3    H141789   1.550   1.020  21.366  1.2618 -2.2688  1.1656
 6766TIP3    H241790   1.481   1.051  21.497 -0.3145  1.4009 -0.4279
 6767TIP3   OH241791   3.938   1.584  10.436 -0.1536 -0.5184  0.7344
 6767TIP3    H141792   3.935   1.634  10.518  0.9432  1.4092 -0.3289
 6767TIP3    H241793   3.867   1.620  10.384  0.9646  0.3814 -0.2389
 6768TIP3   OH241794   2.680   2.300   2.248 -0.6973 -0.3285  0.1970
 6768TIP3    H141795   2.753   2.238   2.246 -0.2637  0.1169  1.4704
 6768TIP3    H241796   2.721   2.384   2.268 -1.4116  0.1691 -0.3978
 6769TIP3   OH241797   1.350   3.516  34.509  0.6797  0.2687 -0.4728
 6769TIP3    H141798   1.259   3.522  34.537  0.9947  1.1956  0.4441
 6769TIP3    H241799   1.347   3.528  34.415 -0.2079 -0.5063 -0.5601
 6770TIP3   OH241800   3.805   1.267   1.711 -0.4300  0.2530  0.2730
 6770TIP3    H141801   3.794   1.342   1.769  0.9395  0.6592  0.0477
 6770TIP3    H241802   3.900   1.259   1.699 -0.6463  0.1385 -1.8426
 6771TIP3   OH241803   0.659   3.968  38.251  0.7181 -0.6361 -0.2301
 6771TIP3    H141804   0.594   4.038  38.252 -0.0590 -1.3338  0.2814
 6771TIP3    H241805   0.645   3.924  38.167  1.9015  0.4256 -1.0105
 6772TIP3   OH241806   1.644   1.848  20.155 -0.1774  0.3054 -0.1895
 6772TIP3    H141807   1.734   1.851  20.125  0.5683  0.4654  1.9080
 6772TIP3    H241808   1.612   1.937  20.143  0.9124  0.9995  1.7122
 6773TIP3   OH241809   2.639   2.124  39.226 -0.0816 -0.0526  0.3513
 6773TIP3    H141810   2.716   2.156  39.178 -0.5696 -0.9770 -1.1466
 6773TIP3    H241811   2.575   2.193  39.216  0.1767  0.2192  0.5801
 6774TIP3   OH241812   1.499   2.417  20.403  0.0818 -0.1756 -0.1799
 6774TIP3    H141813   1.530   2.345  20.349  1.7969  1.8121 -2.0604
 6774TIP3    H241814   1.547   2.407  20.485 -0.8448 -1.9646  0.1851
 6775TIP3   OH241815   0.881   2.360  33.327  0.3575 -0.1509 -0.1124
 6775TIP3    H141816   0.911   2.330  33.241  4.3508 -1.4051  1.5191
 6775TIP3    H241817   0.816   2.294  33.354 -0.5576 -0.0284 -1.8552
 6776TIP3   OH241818   0.435   2.284  34.939  0.1878 -0.1247 -0.1288
 6776TIP3    H141819   0.530   2.277  34.946  0.2790  0.0500 -1.0850
 6776TIP3    H241820   0.414   2.243  34.855 -0.3292  1.7561 -0.9730
 6777TIP3   OH241821   3.164   2.762  36.663 -0.0070  0.0423 -0.6176
 6777TIP3    H141822   3.077   2.788  36.631  0.5773  1.8991 -0.8562
 6777TIP3    H241823   3.153   2.673  36.694 -1.2054 -1.1069 -3.8864
 6778TIP3   OH241824   0.806   0.887   3.025 -0.9175  0.0346 -0.1800
 6778TIP3    H141825   0.757   0.961   2.990 -0.8274  0.9537  1.5092
 6778TIP3    H241826   0.740   0.818   3.035 -1.6739  0.8686  0.9450
 6779TIP3   OH241827   2.446   0.563  14.770  0.3919  0.1562 -0.0366
 6779TIP3    H141828   2.406   0.613  14.698  2.8159  2.5490  0.1315
 6779TIP3    H241829   2.400   0.592  14.848 -1.2856 -1.4159 -0.3342
 6780TIP3   OH241830   1.355   0.277  14.915  0.4087  0.5168  0.1180
 6780TIP3    H141831   1.260   0.271  14.912  0.5082 -0.8803 -1.3437
 6780TIP3    H241832   1.378   0.246  15.003 -0.3803 -1.5207 -0.3465
 6781TIP3   OH241833   1.188   2.354   2.145  0.4001  0.0637  0.3558
 6781TIP3    H141834   1.133   2.379   2.219 -1.1664 -2.0571 -0.0023
 6781TIP3    H241835   1.241   2.282   2.178  1.8893  1.0377  0.2201
 6782TIP3   OH241836   2.578   0.249  42.795 -0.2149 -0.1054  0.0617
 6782TIP3    H141837   2.632   0.204  42.732 -0.3323  1.6042 -1.3358
 6782TIP3    H241838   2.488   0.220  42.775 -0.0625 -1.2127  0.9004
 6783TIP3   OH241839   1.867   1.622  42.719  0.1126 -0.3803 -0.5141
 6783TIP3    H141840   1.789   1.640  42.772 -0.7034 -3.1785 -0.6209
 6783TIP3    H241841   1.871   1.695  42.657 -0.4497  1.5846  1.6148
 6784TIP3   OH241842   0.204   1.650  46.568  0.4223 -0.2047 -0.3510
 6784TIP3    H141843   0.221   1.557  46.587  0.2621 -0.3087 -0.6977
 6784TIP3    H241844   0.269   1.698  46.619 -0.3710 -0.4481  0.9182
 6785TIP3   OH241845   1.499   3.372  35.773  0.2677  0.2698  0.7089
 6785TIP3    H141846   1.473   3.418  35.694 -0.7126 -2.6110 -0.7605
 6785TIP3    H241847   1.530   3.287  35.743  1.7901 -0.2132  3.2962
 6786TIP3   OH241848   1.934   0.875  16.339  0.0668  0.3033 -0.2660
 6786TIP3    H141849   1.946   0.965  16.371 -2.3656  0.3909  0.6184
 6786TIP3    H241850   1.905   0.826  16.415 -1.9689 -0.4071 -1.3979
 6787TIP3   OH241851   0.043   1.634   0.936  0.3838 -0.3336  0.5332
 6787TIP3    H141852   0.117   1.630   0.997 -0.9303  2.4103  2.5405
 6787TIP3    H241853  -0.034   1.616   0.991 -0.9534  3.2255  0.0833
 6788TIP3   OH241854   2.045   3.856  37.869 -0.3654 -0.2169 -0.3154
 6788TIP3    H141855   2.098   3.901  37.935  0.2325 -2.4566  0.8272
 6788TIP3    H241856   1.955   3.865  37.901 -0.0166 -2.0221  1.4070
 6789TIP3   OH241857   0.304   0.428  34.118 -0.0852 -0.0878 -0.4020
 6789TIP3    H141858   0.287   0.459  34.207  0.5126  0.1242 -0.3619
 6789TIP3    H241859   0.358   0.350  34.130 -3.1210 -2.4123 -0.3817
 6790TIP3   OH241860   2.814   3.311  12.657  0.0873 -0.0540  0.8154
 6790TIP3    H141861   2.761   3.386  12.630  0.5862  0.2318  0.6003
 6790TIP3    H241862   2.870   3.294  12.581 -0.2388 -0.8453  0.7494
 6791TIP3   OH241863   4.067   4.081  43.820 -0.5845  0.1577 -0.1484
 6791TIP3    H141864   4.037   3.995  43.850 -0.4471  0.3746  0.6220
 6791TIP3    H241865   4.095   4.066  43.729 -3.1446 -0.0313 -0.9819
 6792TIP3   OH241866   4.065   1.749   7.701  0.3295  0.0265 -0.0568
 6792TIP3    H141867   3.981   1.745   7.747  0.8048 -0.8910  0.7644
 6792TIP3    H241868   4.119   1.808   7.755  0.7019 -0.6009  0.2698
 6793TIP3   OH241869   3.714   3.011  38.798  0.0769  0.3986 -0.0858
 6793TIP3    H141870   3.677   3.099  38.806  0.8877  0.8821 -1.2506
 6793TIP3    H241871   3.808   3.026  38.785  0.3062 -0.6676  0.2602
 6794TIP3   OH241872   2.578   1.226  39.588  0.0365 -0.0760 -0.4645
 6794TIP3    H141873   2.565   1.147  39.535  0.7848 -1.2346  1.0219
 6794TIP3    H241874   2.516   1.290  39.551 -2.4117 -2.1171 -0.1536
 6795TIP3   OH241875   1.517   0.607  15.648 -0.1005  0.1908 -0.3907
 6795TIP3    H141876   1.504   0.625  15.555 -0.1506  0.4660 -0.3319
 6795TIP3    H241877   1.475   0.681  15.692 -0.9391 -0.4339 -0.1207
 6796TIP3   OH241878   0.175   1.186  13.647 -0.0755  0.3986  0.1631
 6796TIP3    H141879   0.195   1.177  13.553 -3.5474 -2.0471 -0.5243
 6796TIP3    H241880   0.106   1.252  13.650  1.1040  1.6380  1.2808
 6797TIP3   OH241881   2.177   2.488  14.107  0.3316  0.1692  0.0786
 6797TIP3    H141882   2.110   2.513  14.171 -0.9685 -0.7651 -0.8649
 6797TIP3    H241883   2.246   2.553  14.118  0.1636  0.0255  2.4234
 6798TIP3   OH241884   2.031   3.675  45.453 -0.1079 -0.2349 -0.2823
 6798TIP3    H141885   1.977   3.653  45.529  0.1158  0.4287  0.0781
 6798TIP3    H241886   1.991   3.754  45.417  0.4821  0.1315 -0.1508
 6799TIP3   OH241887   0.716   3.257  44.578  0.3455 -0.3787  0.5496
 6799TIP3    H141888   0.678   3.240  44.664 -1.3561 -0.6469 -0.2177
 6799TIP3    H241889   0.764   3.178  44.556 -2.3597 -1.8916 -0.3251
 6800TIP3   OH241890   3.789   1.938  14.968  0.4046  0.4736 -0.3066
 6800TIP3    H141891   3.853   2.006  14.944  1.2047 -0.4461 -0.8991
 6800TIP3    H241892   3.715   1.985  15.005  0.7379  1.7020 -1.1578
 6801TIP3   OH241893   3.771   3.923   2.650 -0.2268  0.0305  0.3428
 6801TIP3    H141894   3.780   4.013   2.682 -2.4590  0.0138  1.2261
 6801TIP3    H241895   3.686   3.922   2.605 -0.9160 -1.9269  1.5583
 6802TIP3   OH241896   3.196   2.751   0.125 -0.5285  0.1937 -0.5216
 6802TIP3    H141897   3.141   2.826   0.149 -0.9758  0.5661 -2.4859
 6802TIP3    H241898   3.138   2.676   0.132 -0.1592  0.0215  1.1758
 6803TIP3   OH241899   0.248   1.619  40.070  0.2202 -0.1149 -0.1254
 6803TIP3    H141900   0.158   1.588  40.068  0.2606 -0.2161 -1.6109
 6803TIP3    H241901   0.243   1.709  40.037  0.6997 -0.2479 -0.5809
 6804TIP3   OH241902   2.227   3.748  31.585  0.2612  0.0549  0.1121
 6804TIP3    H141903   2.132   3.737  31.593  0.5495 -3.8496  0.0269
 6804TIP3    H241904   2.242   3.753  31.491  0.1845  0.1568  0.1056
 6805TIP3   OH241905   3.418   3.859  44.175 -0.2019  0.0797  0.4724
 6805TIP3    H141906   3.383   3.930  44.122  0.3444  0.0439  0.0461
 6805TIP3    H241907   3.440   3.790  44.112  1.0262  0.2712  0.6643
 6806TIP3   OH241908   0.097   3.231  36.776  0.1507 -0.3079 -0.2345
 6806TIP3    H141909   0.103   3.303  36.838 -0.5079 -0.9251  0.5761
 6806TIP3    H241910   0.159   3.166  36.808 -0.1893 -0.6299 -0.2233
 6807TIP3   OH241911   2.149   3.682  13.477 -0.5360 -0.2732 -0.3513
 6807TIP3    H141912   2.147   3.778  13.472  0.0289 -0.2012  0.4919
 6807TIP3    H241913   2.089   3.661  13.549  2.1562 -0.2688  2.0661
 6808TIP3   OH241914   1.988   4.080  43.052  0.4491  0.7046  0.6274
 6808TIP3    H141915   1.949   4.135  43.119 -0.2821 -0.4142  1.1560
 6808TIP3    H241916   1.929   4.086  42.978 -0.3338 -0.3434  1.1375
 6809TIP3   OH241917   4.078   1.850   0.771  0.0095 -0.0600 -0.2312
 6809TIP3    H141918   4.162   1.895   0.770 -1.0685  2.1288 -0.0153
 6809TIP3    H241919   4.092   1.772   0.825  1.2835  1.6464  2.0990
 6810TIP3   OH241920   4.007   2.627  34.708 -0.1895 -0.1070 -0.3940
 6810TIP3    H141921   4.052   2.543  34.703  0.3225  0.1938 -1.0894
 6810TIP3    H241922   3.917   2.608  34.682  0.0162 -0.3790 -0.9280
 6811TIP3   OH241923   0.760   0.076   2.291  0.0963 -0.0874  0.0811
 6811TIP3    H141924   0.736   0.029   2.212  1.1356 -0.1532 -0.2135
 6811TIP3    H241925   0.684   0.068   2.349 -0.9689  0.6036 -1.1787
 6812TIP3   OH241926   2.819   2.795   4.939  0.2967 -0.5833  0.5997
 6812TIP3    H141927   2.799   2.887   4.926 -0.0292 -0.5873  1.0420
 6812TIP3    H241928   2.748   2.748   4.896 -0.0919 -0.6119  1.2625
 6813TIP3   OH241929   0.718   2.509   9.469  0.4698  0.2115  0.2303
 6813TIP3    H141930   0.631   2.472   9.481  1.3464 -1.8066  0.8120
 6813TIP3    H241931   0.726   2.576   9.537  0.0357 -0.9192  1.4359
 6814TIP3   OH241932   3.322   0.840   2.697  0.4666  0.0452  0.2336
 6814TIP3    H141933   3.272   0.903   2.645  1.1561  0.4098 -0.0053
 6814TIP3    H241934   3.272   0.759   2.692 -0.3136  0.5160  0.3520
 6815TIP3   OH241935   0.955   3.925  26.899 -0.6913  0.1382 -0.3826
 6815TIP3    H141936   0.956   3.983  26.976 -2.0187 -0.8129  0.3929
 6815TIP3    H241937   0.871   3.880  26.904 -0.8831  0.1680 -2.5187
 6816TIP3   OH241938   0.150   3.718  29.656 -0.6073 -0.0182  0.1355
 6816TIP3    H141939   0.225   3.755  29.611 -0.9764 -0.9380 -1.2903
 6816TIP3    H241940   0.170   3.729  29.749  1.4702 -0.5738 -0.1970
 6817TIP3   OH241941   2.056   2.786   0.180  0.3001 -0.4257  0.1458
 6817TIP3    H141942   2.077   2.709   0.127  0.6205 -1.1045  1.2143
 6817TIP3    H241943   2.131   2.796   0.239  0.7289  1.3243 -0.6252
 6818TIP3   OH241944   3.824   0.698   1.104 -0.5268  0.6988  0.2278
 6818TIP3    H141945   3.898   0.714   1.162  1.8893 -0.4829 -2.2703
 6818TIP3    H241946   3.774   0.629   1.147  0.9047  0.1967  1.1464
 6819TIP3   OH241947   3.593   0.480  10.376 -0.2977  0.2901  0.2982
 6819TIP3    H141948   3.679   0.439  10.365  0.2111  1.2619  0.6055
 6819TIP3    H241949   3.605   0.543  10.446 -0.7278  1.8757 -1.0005
 6820TIP3   OH241950   0.955   2.208   1.207 -0.3509 -0.2511 -0.4070
 6820TIP3    H141951   0.976   2.272   1.276 -0.7207 -2.0867  1.5114
 6820TIP3    H241952   1.014   2.230   1.135 -0.8169  2.5246 -0.0440
 6821TIP3   OH241953   1.828   1.826  32.396 -0.3524  0.3752 -0.1918
 6821TIP3    H141954   1.808   1.890  32.464  0.4356  1.1073 -0.6268
 6821TIP3    H241955   1.851   1.879  32.319  2.2610 -0.3764 -0.0115
 6822TIP3   OH241956   2.338   2.674   5.864  0.7395  0.1641  0.4715
 6822TIP3    H141957   2.325   2.764   5.892 -0.6346  0.1131  0.0537
 6822TIP3    H241958   2.254   2.648   5.827  1.6125 -0.7324 -0.9797
 6823TIP3   OH241959   2.320   2.929  14.946 -0.6154  0.1264  0.0378
 6823TIP3    H141960   2.351   2.868  14.879 -1.3563 -1.5178  1.1229
 6823TIP3    H241961   2.350   3.015  14.916 -0.4893 -0.6069 -2.1206
 6824TIP3   OH241962   3.463   3.770  12.816 -0.0479  0.2296  0.5808
 6824TIP3    H141963   3.520   3.843  12.792  0.5485 -0.0288  1.1816
 6824TIP3    H241964   3.517   3.692  12.804 -0.2558 -0.0174  1.2058
 6825TIP3   OH241965   0.958   0.238  11.478  0.0733 -0.2980  0.4188
 6825TIP3    H141966   0.936   0.304  11.412 -0.8193 -0.2963  0.7052
 6825TIP3    H241967   1.034   0.274  11.524  0.0100  0.2135  0.1302
 6826TIP3   OH241968   3.369   2.123   1.674  0.1685  0.5571 -0.0834
 6826TIP3    H141969   3.329   2.054   1.621  0.0683 -0.5663  1.3899
 6826TIP3    H241970   3.379   2.197   1.614  0.5613 -0.8175 -1.8042
 6827TIP3   OH241971   3.958   0.789   0.286 -0.4601 -0.1173 -0.3516
 6827TIP3    H141972   3.967   0.808   0.380  2.3221 -2.4945  0.0370
 6827TIP3    H241973   3.916   0.703   0.283 -1.6299  0.4721 -1.3715
 6828TIP3   OH241974   0.299   0.047  12.321 -0.1228  0.3228  0.8365
 6828TIP3    H141975   0.320   0.133  12.360  2.7848 -0.1951  0.6696
 6828TIP3    H241976   0.347  -0.015  12.375 -0.1509 -0.9363 -0.5410
 6829TIP3   OH241977   0.360   2.343  42.428 -0.2857 -0.0214  0.1879
 6829TIP3    H141978   0.304   2.347  42.505  0.9704 -1.2328  1.2114
 6829TIP3    H241979   0.389   2.433  42.415  0.1487  0.0822  1.6637
 6830TIP3   OH241980   1.152   1.008  36.201 -0.5433  0.0148  0.3235
 6830TIP3    H141981   1.094   1.001  36.277 -0.9496 -0.5340 -0.0254
 6830TIP3    H241982   1.187   0.919  36.190  1.8199  0.7106  1.6457
 6831TIP3   OH241983   0.922   2.426  34.567  0.0845  0.0931  0.2423
 6831TIP3    H141984   0.865   2.444  34.641 -0.3824 -0.3831  0.0077
 6831TIP3    H241985   0.863   2.421  34.492  0.3175 -1.2961  0.1268
 6832TIP3   OH241986   1.284   2.992  10.497 -0.3513  0.0998 -0.6351
 6832TIP3    H141987   1.227   2.916  10.492 -1.6796  1.0672 -0.5900
 6832TIP3    H241988   1.289   3.025  10.408  0.3327 -0.1024 -0.6786
 6833TIP3   OH241989   3.951   1.644  33.534 -0.6655  0.2660 -0.0011
 6833TIP3    H141990   3.899   1.605  33.604 -1.1142 -0.5752 -0.7849
 6833TIP3    H241991   3.888   1.694  33.483 -0.1653  1.7152  0.7434
 6834TIP3   OH241992   1.829   0.185  37.080 -0.4431  0.1734 -0.7122
 6834TIP3    H141993   1.914   0.147  37.057 -0.2686 -0.8117  1.3560
 6834TIP3    H241994   1.811   0.152  37.168 -0.9025  3.8069  0.7261
 6835TIP3   OH241995   2.031   2.152  34.015  0.3917 -0.1501 -0.2728
 6835TIP3    H141996   2.082   2.110  33.945  0.6662 -0.8112  0.3090
 6835TIP3    H241997   2.028   2.244  33.991 -0.0828 -0.4652 -1.5084
 6836TIP3   OH241998   3.078   3.925   2.585  0.2392 -0.8340  0.3616
 6836TIP3    H141999   3.092   3.833   2.563  0.4030 -1.2946  2.2046
 6836TIP3    H242000   3.038   3.924   2.672  0.9488  0.8463  0.7640
 6837TIP3   OH242001   0.940   0.504  32.445  0.1168 -0.2138  0.4311
 6837TIP3    H142002   0.974   0.420  32.415  0.5379 -0.2424  0.9673
 6837TIP3    H242003   0.951   0.562  32.370 -1.4747 -0.9553 -0.4308
 6838TIP3   OH242004   2.762   0.154  15.232  0.0623  0.1922 -0.1985
 6838TIP3    H142005   2.856   0.158  15.251  0.3691  2.7340 -1.8228
 6838TIP3    H242006   2.756   0.142  15.138 -1.3312 -2.1010  0.1067
 6839TIP3   OH242007   1.070   1.196  38.430 -0.0820 -0.5970  0.3128
 6839TIP3    H142008   1.126   1.134  38.476  1.2193  1.5184  1.7259
 6839TIP3    H242009   1.037   1.254  38.498  0.2560  1.3993 -1.1374
 6840TIP3   OH242010   1.220   3.562   9.117 -0.1470 -0.3146 -0.0461
 6840TIP3    H142011   1.230   3.633   9.053  1.6243 -0.4913 -0.0122
 6840TIP3    H242012   1.225   3.606   9.202 -0.1745 -0.3468 -0.0279
 6841TIP3   OH242013   0.805   0.313  11.259  0.3129  0.1641 -0.0556
 6841TIP3    H142014   0.805   0.241  11.195  1.2238 -0.9278  1.1371
 6841TIP3    H242015   0.727   0.364  11.236 -0.9023 -1.7155 -0.3713
 6842TIP3   OH242016   3.207   2.406  35.824 -0.8152 -0.4819 -0.7174
 6842TIP3    H142017   3.226   2.480  35.767 -1.8935 -0.8408 -1.5710
 6842TIP3    H242018   3.289   2.391  35.872 -0.5041  1.0946 -0.6881
 6843TIP3   OH242019   3.335   3.650   2.718  0.3739 -0.1965  0.2715
 6843TIP3    H142020   3.415   3.675   2.672 -0.1417 -0.7139 -0.9339
 6843TIP3    H242021   3.340   3.697   2.801  0.7247  1.7724 -0.7960
 6844TIP3   OH242022   3.044   0.298  39.853  0.6387 -0.0713  0.2648
 6844TIP3    H142023   2.981   0.368  39.839  1.9867  0.7629 -2.2854
 6844TIP3    H242024   3.074   0.310  39.944  0.4350  2.3421  0.0726
 6845TIP3   OH242025   0.197   2.047  11.689  0.7791  0.0646  0.4935
 6845TIP3    H142026   0.170   2.121  11.636  2.2142 -0.3857 -0.9392
 6845TIP3    H242027   0.284   2.070  11.720 -0.3985  0.7995  3.6924
 6846TIP3   OH242028   1.372   2.996  43.350 -0.0413  0.4053  0.2606
 6846TIP3    H142029   1.444   2.959  43.401 -0.4033  1.0445  1.2766
 6846TIP3    H242030   1.303   2.931  43.355  0.2169  0.0962 -0.1339
 6847TIP3   OH242031   1.850   2.570  39.265 -0.3758  0.0595  0.1967
 6847TIP3    H142032   1.928   2.560  39.320  0.9072 -0.4581 -1.6279
 6847TIP3    H242033   1.835   2.665  39.261  0.6322  0.2188 -0.0410
 6848TIP3   OH242034   3.006   3.227   8.748 -0.2019  0.1938 -0.1778
 6848TIP3    H142035   3.040   3.271   8.671  0.8768  1.8650  1.1877
 6848TIP3    H242036   3.003   3.295   8.816 -3.4088 -0.5759  0.6523
 6849TIP3   OH242037   1.783   2.749  13.948  0.4731 -0.0724 -0.1490
 6849TIP3    H142038   1.853   2.752  13.882  1.1332  0.0728  0.5401
 6849TIP3    H242039   1.736   2.831  13.936  1.2694  0.4622  0.2656
 6850TIP3   OH242040   2.551   3.796  33.196  0.5520 -0.1441 -0.0650
 6850TIP3    H142041   2.538   3.708  33.232 -0.2844 -0.2707 -0.6329
 6850TIP3    H242042   2.614   3.783  33.125 -0.0245 -0.4069 -0.5440
 6851TIP3   OH242043   1.014   1.675  37.794 -0.2445  0.0115 -0.1773
 6851TIP3    H142044   0.929   1.645  37.762 -0.4068 -0.6310  0.8074
 6851TIP3    H242045   1.072   1.600  37.784 -0.2185 -0.0963  0.6934
 6852TIP3   OH242046   2.943   1.619   6.550 -0.6800 -0.1091 -0.2887
 6852TIP3    H142047   2.871   1.666   6.508 -1.2522  0.0970  0.8879
 6852TIP3    H242048   2.934   1.638   6.643  1.9241  1.3244 -0.2453
 6853TIP3   OH242049   2.411   3.184  14.887  0.4419  0.1870  0.1500
 6853TIP3    H142050   2.497   3.163  14.850  0.5944  0.5180  0.3189
 6853TIP3    H242051   2.395   3.274  14.860  0.7201  0.5636  1.2068
 6854TIP3   OH242052   3.606   1.927  45.876 -0.3722  0.2051 -0.3669
 6854TIP3    H142053   3.671   1.961  45.813 -0.1126  3.2578  1.3443
 6854TIP3    H242054   3.530   1.984  45.864 -0.8825 -0.1527  1.0198
 6855TIP3   OH242055   1.713   2.956  47.037 -0.1050  0.1354 -0.2506
 6855TIP3    H142056   1.802   2.967  47.070  0.0974  2.4787 -1.3851
 6855TIP3    H242057   1.723   2.899  46.960  0.1178 -1.0628  0.6350
 6856TIP3   OH242058   1.899   2.107  40.504  0.1401 -0.1026 -0.1446
 6856TIP3    H142059   1.939   2.039  40.450  0.2118 -1.5346  1.6287
 6856TIP3    H242060   1.972   2.146  40.552 -0.2004 -0.6556  0.8513
 6857TIP3   OH242061   0.262   1.095   8.582 -0.2111  0.0768  0.0401
 6857TIP3    H142062   0.316   1.029   8.626  1.6571  1.8944  0.6412
 6857TIP3    H242063   0.250   1.060   8.493  1.0030 -0.9356  0.2392
 6858TIP3   OH242064   3.429   2.867  11.798  0.1612 -0.1045 -0.7361
 6858TIP3    H142065   3.397   2.953  11.769 -1.4637 -0.5608 -0.4061
 6858TIP3    H242066   3.408   2.864  11.892  0.5289 -0.7263 -0.6677
 6859TIP3   OH242067   3.408   2.998  43.481  0.0208  0.2379  0.5375
 6859TIP3    H142068   3.345   3.013  43.551  2.4320  3.0290  2.3282
 6859TIP3    H242069   3.489   3.036  43.513  1.2300  2.0496 -3.9131
 6860TIP3   OH242070   0.659   1.867   9.885  0.3276  0.4140 -0.1416
 6860TIP3    H142071   0.636   1.778   9.909 -1.1782  0.3509 -1.6263
 6860TIP3    H242072   0.578   1.917   9.897  1.0918  1.5817  0.4932
 6861TIP3   OH242073   2.504   0.948  43.890 -0.2956 -0.1288  0.6089
 6861TIP3    H142074   2.487   1.031  43.845  1.9134 -0.4197 -0.8869
 6861TIP3    H242075   2.595   0.953  43.919  0.3337 -2.4863 -0.6563
 6862TIP3   OH242076   0.060   2.622   3.712  0.1075  0.0319  0.1561
 6862TIP3    H142077   0.138   2.567   3.698 -0.2490 -0.1056 -1.4216
 6862TIP3    H242078   0.047   2.667   3.629 -0.8375  0.9469  0.7763
 6863TIP3   OH242079   1.662   0.174  45.681 -0.8782  0.1724  0.3155
 6863TIP3    H142080   1.749   0.134  45.672 -0.7922  0.4866 -0.3090
 6863TIP3    H242081   1.636   0.153  45.770 -0.1723  0.0453  0.5037
 6864TIP3   OH242082   0.502   1.838  14.409 -0.7304  0.0529  0.4234
 6864TIP3    H142083   0.410   1.836  14.384 -1.0896 -1.7347  1.7441
 6864TIP3    H242084   0.507   1.788  14.490  1.1556  1.5822  1.3402
 6865TIP3   OH242085   1.365   3.515  12.300  0.4842  0.0440 -0.2856
 6865TIP3    H142086   1.433   3.520  12.234  0.1146 -0.2836 -0.6943
 6865TIP3    H242087   1.296   3.461  12.261 -0.1726  0.6706 -0.0268
 6866TIP3   OH242088   1.205   1.436   7.144  0.4567  0.0136 -0.1514
 6866TIP3    H142089   1.210   1.468   7.234  2.0007  0.2164 -0.2786
 6866TIP3    H242090   1.251   1.502   7.093  0.6727 -0.7111 -0.9156
 6867TIP3   OH242091   1.826   0.331  39.538 -0.6723  0.0981  0.4257
 6867TIP3    H142092   1.802   0.313  39.629  1.9528 -0.2691  1.1250
 6867TIP3    H242093   1.899   0.272  39.520 -0.5970  0.7554 -1.6599
 6868TIP3   OH242094   1.787   1.865   2.254  0.0916  0.9156 -0.0420
 6868TIP3    H142095   1.870   1.865   2.301  0.7981  1.4080 -1.2306
 6868TIP3    H242096   1.799   1.930   2.185 -1.1430  0.7090 -0.4750
 6869TIP3   OH242097   2.812   1.611  10.582  0.1260 -0.1557 -0.2331
 6869TIP3    H142098   2.766   1.692  10.603  2.5086  0.8801  1.4927
 6869TIP3    H242099   2.869   1.595  10.658  1.8620 -1.8296 -1.7689
 6870TIP3   OH242100   3.173   2.131  43.965  0.4615  0.0464  0.3001
 6870TIP3    H142101   3.253   2.157  44.010  0.8478 -1.5061  0.5698
 6870TIP3    H242102   3.201   2.108  43.876 -0.2034  2.4985 -0.6286
 6871TIP3   OH242103   1.875   2.820   9.935  0.1471 -0.2648 -0.2118
 6871TIP3    H142104   1.795   2.873   9.926  0.9505  0.6777 -2.8079
 6871TIP3    H242105   1.871   2.759   9.861  2.0248  0.1417 -0.6965
 6872TIP3   OH242106   2.816   0.459  27.800  0.0331 -0.7014 -0.2651
 6872TIP3    H142107   2.830   0.387  27.738 -0.2885 -0.4168 -0.6816
 6872TIP3    H242108   2.729   0.442  27.836  0.1775 -0.8098  0.0338
 6873TIP3   OH242109   0.742   1.930  33.526 -0.2360  0.1026 -0.1945
 6873TIP3    H142110   0.800   1.881  33.468 -1.1623  0.7039 -1.6665
 6873TIP3    H242111   0.673   1.867  33.549 -1.8294  0.8031 -2.6706
 6874TIP3   OH242112   1.598   2.385  31.647 -0.5405  0.1607  0.2462
 6874TIP3    H142113   1.645   2.357  31.569 -2.0062  1.8758 -1.3545
 6874TIP3    H242114   1.644   2.463  31.677  0.7463 -1.1506  1.9147
 6875TIP3   OH242115   3.898   0.172  31.655  0.1188  0.6434  0.3787
 6875TIP3    H142116   3.903   0.267  31.666  1.6886  0.6194  0.0673
 6875TIP3    H242117   3.856   0.161  31.570 -0.2249  1.0448  0.4879
 6876TIP3   OH242118   1.297   0.238  26.119  0.0165 -0.5843 -0.9161
 6876TIP3    H142119   1.250   0.217  26.039 -1.1174  0.7259 -0.6387
 6876TIP3    H242120   1.293   0.158  26.172 -1.2149 -0.7622 -1.2467
 6877TIP3   OH242121   3.079   2.633  31.914 -0.3180  0.4324 -0.1141
 6877TIP3    H142122   3.022   2.691  31.964  0.0503 -0.6503  1.6342
 6877TIP3    H242123   3.020   2.581  31.860 -0.7339  1.4459 -0.6668
 6878TIP3   OH242124   1.208   3.394  43.967  0.0102 -0.1527  0.9312
 6878TIP3    H142125   1.259   3.359  43.893  0.6540  2.1175  0.2063
 6878TIP3    H242126   1.194   3.319  44.024  1.1682 -1.5918 -0.5683
 6879TIP3   OH242127   1.192   0.268  38.590  0.5881  0.0780  0.5864
 6879TIP3    H142128   1.207   0.325  38.514  1.9175  0.4632  1.0974
 6879TIP3    H242129   1.097   0.267  38.601  0.5165  3.1184  1.2167
 6880TIP3   OH242130   3.454   2.758  37.770  0.3104 -0.3778  0.1085
 6880TIP3    H142131   3.465   2.665  37.787  0.9963 -0.4143 -0.4869
 6880TIP3    H242132   3.401   2.762  37.691  0.7864 -0.2819 -0.2141
 6881TIP3   OH242133   3.171   1.841   0.516 -0.4815  0.2914 -0.8862
 6881TIP3    H142134   3.185   1.818   0.424 -0.6209 -0.5927 -0.6875
 6881TIP3    H242135   3.258   1.866   0.547 -0.2986 -0.1439 -1.0510
 6882TIP3   OH242136   2.380   0.807   0.643 -0.0974 -0.1642  0.0985
 6882TIP3    H142137   2.338   0.722   0.628 -0.2756  0.0902 -0.8596
 6882TIP3    H242138   2.465   0.785   0.681 -0.9738 -0.6975  1.8995
 6883TIP3   OH242139   1.765   3.436  38.612  0.4181 -0.4009  0.5736
 6883TIP3    H142140   1.727   3.524  38.612 -2.0367 -1.3650 -0.0024
 6883TIP3    H242141   1.830   3.437  38.542 -0.6799  0.5603 -0.4813
 6884TIP3   OH242142   2.405   0.724  39.227 -0.2163 -0.0843  0.6200
 6884TIP3    H142143   2.463   0.784  39.275 -0.2915 -0.0056  0.6143
 6884TIP3    H242144   2.346   0.690  39.294 -0.9470  0.7668  0.4257
 6885TIP3   OH242145   0.047   2.130   4.784 -0.5219  0.5332 -0.2108
 6885TIP3    H142146  -0.036   2.164   4.753 -0.4427  0.2990 -0.6839
 6885TIP3    H242147   0.112   2.166   4.724 -0.1379  1.6409  0.8287
 6886TIP3   OH242148   2.403   2.364  45.605  0.1913  0.2003  0.3590
 6886TIP3    H142149   2.385   2.437  45.546 -0.7172 -0.6066 -0.4011
 6886TIP3    H242150   2.459   2.401  45.673 -0.7345  1.7579  0.3272
 6887TIP3   OH242151   2.138   0.324  42.420  0.7688 -0.3074 -0.2638
 6887TIP3    H142152   2.199   0.264  42.377 -0.8251 -1.5961 -0.8113
 6887TIP3    H242153   2.052   0.290  42.398 -0.1482  0.3825  2.0181
 6888TIP3   OH242154   1.732   1.099  44.057  0.0546  0.1638  0.8522
 6888TIP3    H142155   1.767   1.155  43.988  0.4135  1.3666  1.9728
 6888TIP3    H242156   1.757   1.010  44.032  2.0029  0.7760  0.4901
 6889TIP3   OH242157   4.039   1.935  33.983  0.2902  0.6294  0.1627
 6889TIP3    H142158   4.083   1.968  34.061 -0.7900  0.3758  0.9113
 6889TIP3    H242159   4.054   1.840  33.985  1.2353  0.7457 -0.5895
 6890TIP3   OH242160   1.364   1.254  38.310  0.3366  0.2912 -0.1494
 6890TIP3    H142161   1.424   1.321  38.341 -0.6125  0.2712  1.8692
 6890TIP3    H242162   1.338   1.206  38.388 -0.6021 -1.1188 -1.2699
 6891TIP3   OH242163   0.804   0.244  34.446  0.2984 -0.5335  0.0002
 6891TIP3    H142164   0.765   0.323  34.484  1.9123  0.0448  0.5442
 6891TIP3    H242165   0.806   0.261  34.352 -1.0534 -0.7373 -0.0845
 6892TIP3   OH242166   3.763   0.902  13.023  0.2811  0.0140  0.4692
 6892TIP3    H142167   3.831   0.854  12.977 -1.4730 -1.7130 -0.4927
 6892TIP3    H242168   3.688   0.842  13.024 -1.2827  1.8723  1.3245
 6893TIP3   OH242169   1.258   0.427  39.818 -0.4143 -0.1799 -0.1076
 6893TIP3    H142170   1.353   0.417  39.814 -0.3520 -0.3271  1.1471
 6893TIP3    H242171   1.225   0.338  39.829 -0.6533 -0.0714  0.0586
 6894TIP3   OH242172   4.017   3.576  32.116  0.7013  0.2220 -0.2388
 6894TIP3    H142173   3.957   3.606  32.184 -0.2495 -0.5545 -0.7036
 6894TIP3    H242174   3.965   3.582  32.035  0.8588 -1.5374 -0.4945
 6895TIP3   OH242175   3.112   3.768   7.087  0.0682 -0.4366  0.0742
 6895TIP3    H142176   3.103   3.777   6.992  1.5642 -3.2174 -0.4463
 6895TIP3    H242177   3.135   3.856   7.118  1.0766  0.2304 -2.3662
 6896TIP3   OH242178   0.286   1.445   8.993  0.3636 -0.2175  0.6201
 6896TIP3    H142179   0.347   1.447   9.066 -0.1533 -0.7149  1.0786
 6896TIP3    H242180   0.298   1.529   8.949 -0.8028  1.0124  2.5151
 6897TIP3   OH242181   3.470   2.994  46.848 -0.1391 -0.5252 -0.4798
 6897TIP3    H142182   3.518   3.076  46.866 -0.8920  0.2346 -1.7763
 6897TIP3    H242183   3.539   2.928  46.840  0.5248  0.0677  0.1080
 6898TIP3   OH242184   2.566   3.792  13.468  0.2234  0.3722  0.1517
 6898TIP3    H142185   2.654   3.816  13.437  0.5049 -0.3562  0.3566
 6898TIP3    H242186   2.520   3.767  13.388  0.9000 -1.3443  0.2424
 6899TIP3   OH242187   1.077   3.981  12.476  0.0333 -0.2075  0.3999
 6899TIP3    H142188   1.039   4.051  12.530  0.6337 -1.2680  2.2677
 6899TIP3    H242189   1.165   3.968  12.511  0.2176 -1.3659 -0.4402
 6900TIP3   OH242190   1.249   2.724  36.458  0.2653 -0.0878  0.4606
 6900TIP3    H142191   1.225   2.634  36.480  0.6508 -0.0035  1.2872
 6900TIP3    H242192   1.330   2.716  36.408 -0.2498 -0.2491 -0.3617
 6901TIP3   OH242193   2.529   3.770   3.654  0.0926 -1.0319 -0.3248
 6901TIP3    H142194   2.436   3.750   3.644 -0.0871 -0.6750  0.5783
 6901TIP3    H242195   2.571   3.726   3.580 -0.8783 -0.5785 -1.1601
 6902TIP3   OH242196   0.690   1.597  36.388 -0.1167  0.4308 -0.2060
 6902TIP3    H142197   0.705   1.623  36.479  0.5993 -1.2896  0.1988
 6902TIP3    H242198   0.630   1.663  36.354 -0.1929  1.2513  1.4382
 6903TIP3   OH242199   1.107   1.701  14.515 -0.2334  0.8060  0.0236
 6903TIP3    H142200   1.076   1.787  14.543 -0.7415  1.0318 -1.1697
 6903TIP3    H242201   1.139   1.715  14.426 -2.2443 -0.6217 -1.0029
 6904TIP3   OH242202   3.864   2.373  13.085  0.2099 -0.0137 -0.2976
 6904TIP3    H142203   3.841   2.280  13.085 -1.2131  0.2433  2.2992
 6904TIP3    H242204   3.815   2.410  13.011  0.4585 -1.2278 -1.0948
 6905TIP3   OH242205   1.262   4.100   4.498 -0.1910  0.0869  0.4061
 6905TIP3    H142206   1.208   4.085   4.421 -0.8312  0.7522  0.7075
 6905TIP3    H242207   1.336   4.151   4.466  0.8621 -1.7655 -0.2132
 6906TIP3   OH242208   2.459   0.394  13.089 -0.3683  0.5809 -0.6017
 6906TIP3    H142209   2.505   0.374  13.170  0.1130  1.1338 -0.7362
 6906TIP3    H242210   2.384   0.334  13.089 -0.7224  0.9912  0.5517
 6907TIP3   OH242211   1.858   1.531  31.796  0.0326 -0.3342 -0.0306
 6907TIP3    H142212   1.768   1.508  31.819  0.2953 -0.5346  0.8214
 6907TIP3    H242213   1.905   1.531  31.879  0.7617  0.0474 -0.4332
 6908TIP3   OH242214   3.030   2.225  12.922  0.3461 -0.2537 -0.3435
 6908TIP3    H142215   3.070   2.246  13.007  2.1937  0.1608 -1.2578
 6908TIP3    H242216   3.017   2.130  12.925  2.5649 -0.6238 -0.4075
 6909TIP3   OH242217   1.951   1.418  35.920 -0.2122  0.0447  0.0447
 6909TIP3    H142218   1.991   1.502  35.897  0.8338 -0.6519 -0.8166
 6909TIP3    H242219   1.964   1.409  36.014  1.0115  0.1881 -0.1017
 6910TIP3   OH242220   1.559   3.484   2.797 -0.6593  0.1963  0.5581
 6910TIP3    H142221   1.586   3.410   2.742  1.0156  1.6641 -0.6831
 6910TIP3    H242222   1.591   3.561   2.751 -1.9145  1.6846  2.0867
 6911TIP3   OH242223   3.692   2.795  45.096  0.0666  0.0431  0.3000
 6911TIP3    H142224   3.710   2.727  45.032  1.5258 -1.3199  2.0593
 6911TIP3    H242225   3.766   2.791  45.157 -1.3370  1.1231  2.1877
 6912TIP3   OH242226   0.648   2.828   9.109  0.3575  0.1411  0.1278
 6912TIP3    H142227   0.555   2.812   9.092  0.2066  2.3645 -1.6744
 6912TIP3    H242228   0.683   2.743   9.135 -1.9158 -1.0369 -0.4280
 6913TIP3   OH242229   3.688   0.941  11.830 -0.1443  0.2310 -0.0307
 6913TIP3    H142230   3.668   0.935  11.923 -0.1162 -1.5318 -0.0960
 6913TIP3    H242231   3.770   0.893  11.820 -2.3117 -3.6562 -1.5150
 6914TIP3   OH242232   1.825   3.870  40.167  0.1827  0.6570 -0.0327
 6914TIP3    H142233   1.831   3.960  40.134  2.2515  0.6751  0.2880
 6914TIP3    H242234   1.879   3.819  40.106 -2.7571 -0.8727 -1.6200
 6915TIP3   OH242235   0.962   0.093   9.976  0.4401 -0.1864 -0.2274
 6915TIP3    H142236   0.984   0.149  10.051  3.6865  0.1875 -1.2764
 6915TIP3    H242237   0.898   0.143   9.926 -0.0905  0.5575  1.1536
 6916TIP3   OH242238   2.973   2.496  39.139 -0.4160 -0.2218  0.3407
 6916TIP3    H142239   2.970   2.547  39.059 -1.0477 -1.5983 -0.5553
 6916TIP3    H242240   3.065   2.469  39.148 -0.3484 -0.0723  0.0758
 6917TIP3   OH242241   1.325   2.127  31.080 -0.0749 -0.3182 -0.2070
 6917TIP3    H142242   1.294   2.217  31.079  1.0250  0.0818  0.3874
 6917TIP3    H242243   1.414   2.131  31.045  0.4717 -0.9687  1.0425
 6918TIP3   OH242244   2.563   0.506   4.679 -0.0231 -0.3721  0.2783
 6918TIP3    H142245   2.543   0.481   4.769  0.6026 -0.5701  0.3719
 6918TIP3    H242246   2.638   0.451   4.656 -0.0646 -0.1888 -0.2998
 6919TIP3   OH242247   3.116   1.416  45.335 -0.2014 -0.6378 -0.2574
 6919TIP3    H142248   3.096   1.376  45.250 -0.3356  0.0348 -0.5504
 6919TIP3    H242249   3.090   1.350  45.399 -0.0231 -1.1835 -0.7403
 6920TIP3   OH242250   1.813   4.051   8.525  0.5371  0.1879 -0.3056
 6920TIP3    H142251   1.901   4.031   8.557  1.2716  1.5361 -1.3700
 6920TIP3    H242252   1.772   4.100   8.597  0.9276  0.2033 -0.0906
 6921TIP3   OH242253   2.853   1.109  34.943 -0.5025 -0.0274 -0.2827
 6921TIP3    H142254   2.947   1.127  34.949 -0.8773  2.0931  0.2023
 6921TIP3    H242255   2.828   1.142  34.856 -0.8901 -0.1091 -0.2020
 6922TIP3   OH242256   2.904   2.192  44.654 -0.4362  0.2529  0.0960
 6922TIP3    H142257   2.904   2.156  44.743 -2.1013  1.0354  0.4494
 6922TIP3    H242258   2.995   2.221  44.641  0.1355 -0.9690  1.0496
 6923TIP3   OH242259   3.776   2.973   7.517 -0.2597 -0.3895 -0.1489
 6923TIP3    H142260   3.702   2.924   7.553 -1.5402 -0.4685 -2.6591
 6923TIP3    H242261   3.766   3.061   7.553 -0.4121 -0.8758  1.0595
 6924TIP3   OH242262   1.525   0.747  45.314 -0.3862 -0.5439 -0.0105
 6924TIP3    H142263   1.566   0.775  45.232  1.2049  0.1629  0.9766
 6924TIP3    H242264   1.471   0.821  45.340 -1.3938 -1.0126 -0.7107
 6925TIP3   OH242265   3.079   0.033  42.129  0.0956  0.5767 -0.0950
 6925TIP3    H142266   3.143   0.083  42.181 -0.1082  0.3986  0.3331
 6925TIP3    H242267   3.032  -0.019  42.194  0.9824 -0.9401 -0.6222
 6926TIP3   OH242268   2.452   3.834   0.780  0.7979  0.0632  0.1067
 6926TIP3    H142269   2.362   3.805   0.795  0.4184 -0.5556 -2.7257
 6926TIP3    H242270   2.502   3.752   0.772  1.7166  0.4064  2.0197
 6927TIP3   OH242271   3.139   0.531  46.965  0.0855  0.4274  0.3643
 6927TIP3    H142272   3.195   0.575  47.029  1.1581  1.7099 -1.3765
 6927TIP3    H242273   3.079   0.599  46.935  1.1599  0.5519 -1.6848
 6928TIP3   OH242274   1.315   1.902  34.087 -0.0730 -0.2565  0.8330
 6928TIP3    H142275   1.390   1.925  34.142  0.7846  0.5730 -0.6076
 6928TIP3    H242276   1.240   1.943  34.130  0.7592  1.4595  0.7585
 6929TIP3   OH242277   0.206   1.630  15.606  0.1673  0.0449  0.0080
 6929TIP3    H142278   0.266   1.559  15.629  0.7504  0.4070 -0.3725
 6929TIP3    H242279   0.238   1.662  15.522 -0.3213  0.5102 -0.0033
 6930TIP3   OH242280   0.072   0.632   6.387 -0.0229 -0.5000  0.8290
 6930TIP3    H142281  -0.006   0.619   6.441 -1.0088 -0.1622 -0.4772
 6930TIP3    H242282   0.054   0.711   6.336  0.4123 -1.3996 -0.7896
 6931TIP3   OH242283   2.287   3.515   9.985  0.7973 -0.2286 -0.7030
 6931TIP3    H142284   2.349   3.557   9.925  1.0619  0.5088  0.0680
 6931TIP3    H242285   2.204   3.561   9.970  1.5345  2.0725  1.5616
 6932TIP3   OH242286   2.785   2.797   9.586 -0.3228 -0.6209  0.0560
 6932TIP3    H142287   2.804   2.750   9.666 -0.2640 -0.4555  0.1404
 6932TIP3    H242288   2.710   2.853   9.607  0.4442  0.3202  0.3579
 6933TIP3   OH242289   2.064   1.259  10.174  0.5284 -0.1726 -0.7381
 6933TIP3    H142290   2.080   1.194  10.242  1.1030  1.8494  1.1773
 6933TIP3    H242291   2.099   1.220  10.094  0.6976 -2.2431  0.2830
 6934TIP3   OH242292   3.152   1.541   1.810  0.0673 -0.0203  0.6322
 6934TIP3    H142293   3.086   1.472   1.805  0.6097 -0.5432  0.5902
 6934TIP3    H242294   3.114   1.614   1.760 -0.3927 -0.3835  0.4435
 6935TIP3   OH242295   1.917   0.556  34.984  0.3836  0.2884 -0.1967
 6935TIP3    H142296   1.870   0.473  34.976  1.4155 -0.2845 -0.4065
 6935TIP3    H242297   1.870   0.615  34.925 -0.4483 -0.0939  0.0665
 6936TIP3   OH242298   3.550   1.186   5.820 -0.0535 -0.0216 -0.0253
 6936TIP3    H142299   3.638   1.217   5.839 -0.3799 -0.0802  1.7820
 6936TIP3    H242300   3.493   1.247   5.867 -0.9045 -0.7531 -0.0924
 6937TIP3   OH242301   3.010   2.074  41.042  0.0974  0.4511  0.3050
 6937TIP3    H142302   3.002   1.992  40.992 -1.4837  0.9672 -0.3470
 6937TIP3    H242303   3.005   2.143  40.976 -0.6502  1.1250  1.0482
 6938TIP3   OH242304   3.027   1.788  44.252 -0.0075 -0.6498 -0.2886
 6938TIP3    H142305   3.014   1.881  44.272  1.3365 -0.8524  1.7832
 6938TIP3    H242306   3.086   1.788  44.176 -0.0475  0.1829 -0.3259
 6939TIP3   OH242307   3.098   2.237  12.537 -0.0784  0.4272  0.1075
 6939TIP3    H142308   3.153   2.220  12.461 -0.3720  1.4974 -0.3581
 6939TIP3    H242309   3.081   2.150  12.573 -0.4910 -0.1773 -1.4415
 6940TIP3   OH242310   1.881   0.672   8.924  0.3011 -0.3556 -0.0921
 6940TIP3    H142311   1.882   0.710   9.012  1.6897  1.1573 -0.7078
 6940TIP3    H242312   1.836   0.737   8.870  0.9536 -0.4688 -0.7998
 6941TIP3   OH242313   2.416   1.177   8.897 -1.1336 -0.2776  0.7892
 6941TIP3    H142314   2.432   1.217   8.982  1.6990  0.9853 -0.2200
 6941TIP3    H242315   2.464   1.094   8.900  0.1135  0.3862  0.0272
 6942TIP3   OH242316   2.580   1.153  47.683  0.2648  0.1829 -0.3896
 6942TIP3    H142317   2.519   1.103  47.739  0.1372  3.0111  2.2932
 6942TIP3    H242318   2.527   1.226  47.650  1.4015  0.8718 -0.7374
 6943TIP3   OH242319   1.138   3.541  26.095 -0.1895  0.0876  0.6026
 6943TIP3    H142320   1.077   3.478  26.132 -1.5345  0.4732 -0.8301
 6943TIP3    H242321   1.103   3.626  26.123  0.5291  0.2693  0.9625
 6944TIP3   OH242322   2.877   2.425   1.920 -0.6370  0.0557 -0.3030
 6944TIP3    H142323   2.826   2.363   1.869  0.2527  0.5066 -1.7838
 6944TIP3    H242324   2.861   2.510   1.879 -1.0051  0.6750  1.0457
 6945TIP3   OH242325   3.915   3.925   9.454  0.0425  0.6971 -0.0557
 6945TIP3    H142326   3.869   3.894   9.533 -1.9335 -0.9740 -1.7501
 6945TIP3    H242327   3.949   3.846   9.414  1.9563  1.6454 -0.3947
 6946TIP3   OH242328   1.655   0.202  15.664  0.6481 -0.3698  0.5817
 6946TIP3    H142329   1.618   0.115  15.678  0.4195 -0.1531  1.4148
 6946TIP3    H242330   1.750   0.189  15.671  0.8012 -0.9984 -1.9842
 6947TIP3   OH242331   2.205   1.174  47.621 -0.8219 -0.1059  0.1062
 6947TIP3    H142332   2.121   1.134  47.603 -0.3870 -1.8459  1.6521
 6947TIP3    H242333   2.250   1.112  47.679  1.3077  1.0116 -0.2315
 6948TIP3   OH242334   0.920   2.644   4.018  0.0551  0.6301  0.4033
 6948TIP3    H142335   0.928   2.706   4.090  0.6539  0.6738  0.3063
 6948TIP3    H242336   1.006   2.601   4.013 -1.2925 -2.6895  2.6663
 6949TIP3   OH242337   3.639   2.861  36.125  0.0136 -0.0980  0.2054
 6949TIP3    H142338   3.585   2.829  36.052 -0.0628 -2.1955  1.1259
 6949TIP3    H242339   3.722   2.886  36.084 -0.5347  0.1147 -0.7968
 6950TIP3   OH242340   2.273   1.956   8.201 -0.0125  0.4028 -0.7941
 6950TIP3    H142341   2.252   2.036   8.153 -0.9505  1.0016  0.5425
 6950TIP3    H242342   2.237   1.971   8.289  2.0051 -0.4546  0.2523
 6951TIP3   OH242343   3.866   3.451  11.734 -0.2815  0.0709  0.0916
 6951TIP3    H142344   3.837   3.488  11.650 -2.2847 -0.5949  0.4347
 6951TIP3    H242345   3.785   3.420  11.776  0.9372 -1.8781  1.1705
 6952TIP3   OH242346   3.563   1.407   2.086 -0.1224 -0.1792  0.2305
 6952TIP3    H142347   3.518   1.492   2.089  1.8196  0.8730  1.7278
 6952TIP3    H242348   3.522   1.356   2.156 -1.0550 -0.3763 -0.4416
 6953TIP3   OH242349   3.736   0.612  43.725  0.3438  0.0491  0.2438
 6953TIP3    H142350   3.664   0.562  43.764 -0.1648 -0.0273 -0.7349
 6953TIP3    H242351   3.798   0.625  43.796 -1.2517  1.3224  1.5054
 6954TIP3   OH242352   3.155   2.649   9.703  0.7440  0.1208 -0.0703
 6954TIP3    H142353   3.204   2.569   9.725  1.5124  1.0933  2.0340
 6954TIP3    H242354   3.063   2.625   9.716  0.7942 -0.9878 -1.5356
 6955TIP3   OH242355   3.492   2.670  13.885  0.0249 -0.1329  0.5335
 6955TIP3    H142356   3.465   2.761  13.870  1.2384 -0.0094 -1.2198
 6955TIP3    H242357   3.432   2.618  13.832  1.6887 -0.0156 -1.5968
 6956TIP3   OH242358   2.519   0.294   1.572 -0.1475 -0.4902 -0.4518
 6956TIP3    H142359   2.606   0.295   1.612 -1.8539 -0.7691  3.7865
 6956TIP3    H242360   2.534   0.322   1.481  4.0286  1.6970  0.6566
 6957TIP3   OH242361   2.039   1.903  15.195 -0.0975  0.0217  0.1517
 6957TIP3    H142362   1.982   1.979  15.204 -4.1682 -2.5864 -0.5622
 6957TIP3    H242363   2.043   1.866  15.283  1.6495  0.8302  0.4459
 6958TIP3   OH242364   1.669   3.451   8.826  0.4149 -0.3643 -0.4375
 6958TIP3    H142365   1.707   3.410   8.749  0.6962 -1.7875  0.4169
 6958TIP3    H242366   1.710   3.405   8.900  0.1249  0.9278  0.5571
 6959TIP3   OH242367   2.984   1.169  17.122  0.6037  0.3266  0.1357
 6959TIP3    H142368   3.015   1.114  17.194 -2.2763 -1.3868  0.2417
 6959TIP3    H242369   3.055   1.168  17.057  1.1894 -2.4801  0.7244
 6960TIP3   OH242370   1.613   2.283  36.442 -0.2334 -0.0714 -0.9352
 6960TIP3    H142371   1.700   2.244  36.438 -0.0986  0.2466 -1.2164
 6960TIP3    H242372   1.554   2.210  36.462  0.4219  0.1912  2.4702
 6961TIP3   OH242373   3.806   3.194   8.721 -0.0114 -0.0146 -0.5100
 6961TIP3    H142374   3.833   3.108   8.688 -0.8823 -0.5608  0.1666
 6961TIP3    H242375   3.712   3.199   8.701 -0.1144  0.4887  0.0752
 6962TIP3   OH242376   2.455   2.007  43.970 -0.7971 -0.1882 -0.3767
 6962TIP3    H142377   2.525   2.064  44.003 -0.5351 -1.2286  0.9307
 6962TIP3    H242378   2.374   2.046  44.002 -0.6871 -0.0154 -0.3118
 6963TIP3   OH242379   3.464   0.763   1.283  0.4560  0.1754  0.1501
 6963TIP3    H142380   3.386   0.816   1.299  0.3518 -0.1388  0.7035
 6963TIP3    H242381   3.488   0.783   1.192 -0.9389 -0.5648 -0.4275
 6964TIP3   OH242382   0.233   3.462   2.591  0.0375  0.7835  0.9488
 6964TIP3    H142383   0.298   3.511   2.640  1.3655 -0.5461  0.5987
 6964TIP3    H242384   0.156   3.460   2.648  2.4859 -3.5561  4.7906
 6965TIP3   OH242385   0.764   1.019  33.092 -0.9536 -0.7059  0.1665
 6965TIP3    H142386   0.719   1.104  33.092  0.2729 -0.0112 -0.8174
 6965TIP3    H242387   0.847   1.036  33.137 -1.4508 -1.8647  1.6146
 6966TIP3   OH242388   3.490   1.964  39.380 -0.0204 -0.3351 -0.1777
 6966TIP3    H142389   3.560   2.014  39.338 -0.9996  0.9356 -0.3550
 6966TIP3    H242390   3.527   1.934  39.462  1.3544 -1.3484 -1.1281
 6967TIP3   OH242391   0.981   2.794  44.309  0.3175 -0.0638  0.2786
 6967TIP3    H142392   0.985   2.799  44.405  1.0377 -0.8822  0.2980
 6967TIP3    H242393   0.899   2.837  44.287  0.2661  0.3642  1.2480
 6968TIP3   OH242394   3.391   3.990  12.050 -0.0862 -0.3779  0.6775
 6968TIP3    H142395   3.423   4.077  12.026 -0.4898 -0.2343  0.6515
 6968TIP3    H242396   3.370   3.996  12.143 -0.8338 -0.2206  0.5059
 6969TIP3   OH242397   3.840   0.384  24.201  0.7214  0.3002  0.2310
 6969TIP3    H142398   3.857   0.290  24.210  0.5312  0.4116  2.0810
 6969TIP3    H242399   3.793   0.392  24.118 -1.9851 -1.6562  1.4230
 6970TIP3   OH242400   1.989   0.951   9.293  0.5457  0.2067  0.1433
 6970TIP3    H142401   2.050   0.896   9.245 -0.8780  0.5057 -2.1928
 6970TIP3    H242402   1.963   1.018   9.230 -1.4437  0.6537  1.3381
 6971TIP3   OH242403   2.489   0.015  13.286 -0.3124  0.0545 -0.3812
 6971TIP3    H142404   2.565   0.072  13.295 -0.1973 -0.0853 -0.4518
 6971TIP3    H242405   2.414   0.072  13.297 -0.2040  0.3233 -1.0098
 6972TIP3   OH242406   3.738   0.285   1.278  0.3985 -0.5656  0.1714
 6972TIP3    H142407   3.769   0.252   1.362  0.3739  0.9183  0.8038
 6972TIP3    H242408   3.705   0.373   1.298  0.2287 -0.2550 -1.3593
 6973TIP3   OH242409   1.061   0.321   5.395  0.3961 -0.3101  0.1029
 6973TIP3    H142410   1.053   0.227   5.409  0.2040 -0.3792 -0.4321
 6973TIP3    H242411   1.155   0.336   5.386  0.6144 -0.1232  2.2717
 6974TIP3   OH242412   2.502   0.704  10.062  0.1284 -0.0208 -0.5316
 6974TIP3    H142413   2.581   0.744  10.026 -0.3773  0.6216 -0.9420
 6974TIP3    H242414   2.471   0.645   9.994  0.7595 -0.9901 -0.0062
 6975TIP3   OH242415   2.342   2.033   3.186 -0.0972  0.2931 -0.5316
 6975TIP3    H142416   2.309   2.025   3.276 -0.7495  0.4558 -0.7528
 6975TIP3    H242417   2.303   1.959   3.140  0.3689  0.1178 -0.6423
 6976TIP3   OH242418   3.433   0.924  45.676  0.3371  0.3537  0.2747
 6976TIP3    H142419   3.462   0.969  45.755 -0.6733  0.5961  0.5249
 6976TIP3    H242420   3.513   0.887  45.638  0.8950  0.6419  1.1458
 6977TIP3   OH242421   1.050   3.998   5.122 -0.0564  0.3525  0.8877
 6977TIP3    H142422   0.962   3.958   5.123  0.1068 -0.0382  0.4633
 6977TIP3    H242423   1.107   3.927   5.094  0.0956  1.1477 -0.9767
 6978TIP3   OH242424   2.159   3.800  36.592 -0.0337  0.3578 -0.8365
 6978TIP3    H142425   2.204   3.822  36.510  0.6489 -0.8020 -0.8016
 6978TIP3    H242426   2.106   3.877  36.611  0.4101  0.9764 -1.9435
 6979TIP3   OH242427   1.370   4.063  39.789  0.0183 -0.2197 -0.1915
 6979TIP3    H142428   1.418   3.983  39.766  2.1077  0.8514  0.2071
 6979TIP3    H242429   1.302   4.033  39.850 -0.8857 -2.0038 -1.9344
 6980TIP3   OH242430   3.222   1.741  47.177  0.1876 -0.1772 -0.7980
 6980TIP3    H142431   3.156   1.804  47.148  1.7423  1.8687 -0.1891
 6980TIP3    H242432   3.173   1.676  47.227 -1.5518  0.3620 -1.7320
 6981TIP3   OH242433   1.642   3.586  15.225  0.2975  0.2378 -0.7931
 6981TIP3    H142434   1.555   3.547  15.230  0.0413  0.9323  1.2248
 6981TIP3    H242435   1.629   3.667  15.176  0.2052 -0.5670 -2.1443
 6982TIP3   OH242436   0.250   1.496  16.920  0.2064 -0.2141 -0.3520
 6982TIP3    H142437   0.170   1.548  16.928 -0.4569 -1.0426 -1.3277
 6982TIP3    H242438   0.320   1.556  16.944 -0.6247  0.8395 -0.4848
 6983TIP3   OH242439   1.262   2.581  44.681 -0.9891  0.5844  0.0131
 6983TIP3    H142440   1.275   2.669  44.716  0.0711  0.3459  0.2518
 6983TIP3    H242441   1.267   2.524  44.758 -0.1492  0.1889 -0.3211
 6984TIP3   OH242442   0.579   1.107  37.222  0.1492  0.0111  0.0588
 6984TIP3    H142443   0.486   1.097  37.202  0.2903 -1.7198  0.0914
 6984TIP3    H242444   0.586   1.081  37.315  0.6539  0.1232  0.0543
 6985TIP3   OH242445   1.215   0.997  42.977 -0.3233 -0.6434 -0.1788
 6985TIP3    H142446   1.223   1.050  43.056  1.6038 -2.3292  0.8372
 6985TIP3    H242447   1.240   0.909  43.004 -1.4254 -1.6754 -2.2686
 6986TIP3   OH242448   2.231   0.372  34.302  0.2339  0.1196 -0.3227
 6986TIP3    H142449   2.222   0.464  34.327 -0.5429 -0.0695  0.1309
 6986TIP3    H242450   2.298   0.339  34.361  0.5263  0.3987 -0.4928
 6987TIP3   OH242451   0.494   1.075  33.312  0.2338  0.1445 -0.2115
 6987TIP3    H142452   0.487   1.023  33.232  0.2359  0.6706 -0.5581
 6987TIP3    H242453   0.405   1.078  33.346  0.3350 -0.6002  0.1492
 6988TIP3   OH242454   3.429   2.475  36.379  0.3438 -0.5430  0.0582
 6988TIP3    H142455   3.488   2.476  36.454  1.0177  0.8807 -0.4478
 6988TIP3    H242456   3.358   2.417  36.405 -0.1086  0.8981  2.3379
 6989TIP3   OH242457   3.023   2.456  34.115  0.3479 -0.7720 -0.3352
 6989TIP3    H142458   3.028   2.515  34.191  1.8130  1.1279 -1.7893
 6989TIP3    H242459   2.930   2.448  34.097  0.0587  0.0994  0.6579
 6990TIP3   OH242460   3.491   0.966  32.876  0.6907 -0.6090 -0.3795
 6990TIP3    H142461   3.494   0.970  32.972  2.2298  0.2184 -0.4409
 6990TIP3    H242462   3.582   0.976  32.849  0.1791 -0.0295 -1.9662
 6991TIP3   OH242463   3.537   2.839  32.001  0.4093 -0.2207  0.0553
 6991TIP3    H142464   3.450   2.811  31.975  0.2612  0.1477  0.1438
 6991TIP3    H242465   3.540   2.932  31.981 -0.0292  0.2962  2.1169
 6992TIP3   OH242466   2.716   3.147  39.779 -0.2846 -0.0713  0.6168
 6992TIP3    H142467   2.794   3.175  39.731 -0.0023  0.3395  1.3058
 6992TIP3    H242468   2.749   3.122  39.865 -0.9230  0.1914  0.9419
 6993TIP3   OH242469   1.289   3.626   3.428 -0.5889  0.1365  0.0065
 6993TIP3    H142470   1.333   3.565   3.487 -1.1315  1.5366  1.9377
 6993TIP3    H242471   1.196   3.605   3.435 -0.6150 -0.1019 -0.8820
 6994TIP3   OH242472   3.466   3.816  25.804 -0.2053  0.6615 -0.1729
 6994TIP3    H142473   3.399   3.748  25.803 -1.6680  2.0339 -0.3885
 6994TIP3    H242474   3.498   3.820  25.714  0.1043  0.0830 -0.0938
 6995TIP3   OH242475   2.399   0.138  30.186 -0.1230  0.0213 -0.3971
 6995TIP3    H142476   2.444   0.133  30.270  1.1648 -0.8230 -1.1138
 6995TIP3    H242477   2.308   0.116  30.206 -0.2181  1.5563  1.0410
 6996TIP3   OH242478   2.781   2.725  11.653  1.0257  0.3762 -0.4126
 6996TIP3    H142479   2.847   2.706  11.586 -0.2630 -0.8898 -1.3836
 6996TIP3    H242480   2.710   2.664  11.634  0.6476 -0.0859  2.1928
 6997TIP3   OH242481   0.144   2.219  21.568 -0.3546  0.0568 -0.4562
 6997TIP3    H142482   0.060   2.176  21.585  0.5886 -0.9548  2.2020
 6997TIP3    H242483   0.144   2.294  21.628  0.3453  0.5072 -1.0086
 6998TIP3   OH242484   0.845   1.570  43.602 -0.3907 -0.4855  0.7721
 6998TIP3    H142485   0.760   1.532  43.579  0.4648 -2.2175  0.2339
 6998TIP3    H242486   0.876   1.609  43.521 -0.4968 -0.2182  0.8602
 6999TIP3   OH242487   0.266   2.724  37.632 -0.9069  0.8352 -0.2688
 6999TIP3    H142488   0.281   2.730  37.726  0.5629 -1.4729 -0.2844
 6999TIP3    H242489   0.350   2.746  37.592 -1.4725  1.6440 -1.0703
 7000TIP3   OH242490   2.297   2.376  47.685 -0.1918 -0.3892 -0.0229
 7000TIP3    H142491   2.252   2.292  47.695 -0.9509  0.1694  1.8014
 7000TIP3    H242492   2.374   2.356  47.632  0.0360 -2.3990  0.9543
 7001TIP3   OH242493   1.620   3.444  32.779  0.0771  0.7736  0.1549
 7001TIP3    H142494   1.551   3.377  32.778  1.2912 -0.6289  2.4342
 7001TIP3    H242495   1.630   3.469  32.687 -0.3515 -2.2874 -0.8271
 7002TIP3   OH242496   0.439   2.301  34.090  0.5566 -0.2082  0.3832
 7002TIP3    H142497   0.357   2.281  34.134 -0.9797 -0.9182 -2.5599
 7002TIP3    H242498   0.457   2.223  34.036  2.2659  0.5955 -0.2882
 7003TIP3   OH242499   1.108   1.621  42.324 -0.7675  0.0591 -0.1189
 7003TIP3    H142500   1.194   1.610  42.366 -0.5569 -1.6320 -0.9046
 7003TIP3    H242501   1.126   1.677  42.249 -0.1515 -0.9567 -0.7561
 7004TIP3   OH242502   2.634   2.691  11.336  0.1002 -0.0708 -0.3034
 7004TIP3    H142503   2.649   2.783  11.312  1.5579 -0.5397 -1.2730
 7004TIP3    H242504   2.540   2.678  11.319 -0.2311  1.3355  0.2449
 7005TIP3   OH242505   0.782   0.576  11.066 -0.6305  0.1775 -0.5780
 7005TIP3    H142506   0.812   0.667  11.062  0.3293 -0.0461  0.6199
 7005TIP3    H242507   0.854   0.526  11.028  0.9185 -0.4024  2.6893
 7006TIP3   OH242508   0.852   1.590  32.749  0.1696  0.1772  0.1520
 7006TIP3    H142509   0.868   1.554  32.662 -1.1750  1.1654 -0.5277
 7006TIP3    H242510   0.826   1.514  32.802 -0.1372 -0.2580 -0.6152
 7007TIP3   OH242511   1.021   1.516  42.730 -0.2094 -0.4167  0.3125
 7007TIP3    H142512   0.967   1.467  42.667 -0.6192  0.3817  0.0209
 7007TIP3    H242513   0.963   1.531  42.804 -1.0781  2.0859 -0.7700
 7008TIP3   OH242514   0.548   2.534   3.255 -0.2897  0.2722 -0.2007
 7008TIP3    H142515   0.498   2.467   3.301  1.1097 -0.1358  0.7837
 7008TIP3    H242516   0.499   2.615   3.272 -0.4443 -0.0557  1.0466
 7009TIP3   OH242517   1.942   2.609  38.338 -0.3160 -0.9320  0.1877
 7009TIP3    H142518   1.904   2.601  38.250  1.2529  2.7921 -1.0409
 7009TIP3    H242519   1.889   2.676  38.381  1.6401  0.6197  0.3138
 7010TIP3   OH242520   3.193   1.385  34.670  0.3449  1.1633 -0.1618
 7010TIP3    H142521   3.237   1.470  34.680 -1.0882  1.8424  0.7126
 7010TIP3    H242522   3.103   1.407  34.647 -0.2036 -0.0891  0.6617
 7011TIP3   OH242523   2.675   0.062  41.500 -0.7215 -0.3137  0.0614
 7011TIP3    H142524   2.696  -0.029  41.517  1.0576 -0.0409 -0.4139
 7011TIP3    H242525   2.747   0.111  41.540 -1.1496  0.8276 -0.5124
 7012TIP3   OH242526   4.041   0.410   7.003 -0.0301 -0.2486 -0.5812
 7012TIP3    H142527   3.947   0.411   7.019  0.2949  0.9078  1.8138
 7012TIP3    H242528   4.064   0.317   7.001 -1.1510 -0.5368 -0.8082
 7013TIP3   OH242529   0.975   1.525  16.944  0.1733 -0.2184 -0.3542
 7013TIP3    H142530   0.965   1.617  16.966  1.5468  0.1356 -1.0343
 7013TIP3    H242531   1.052   1.497  16.994  1.2064 -0.3210 -1.9163
 7014TIP3   OH242532   4.104   1.227  16.368  0.0837  0.2931 -0.0979
 7014TIP3    H142533   4.146   1.144  16.389 -0.9839 -0.0957  0.6358
 7014TIP3    H242534   4.164   1.271  16.308  1.2518 -0.4597  0.4874
 7015TIP3   OH242535   0.381   0.034  46.382 -0.2988 -0.2491  0.1697
 7015TIP3    H142536   0.290   0.054  46.403 -0.4171 -0.6778  0.0715
 7015TIP3    H242537   0.407  -0.029  46.449 -0.6860 -1.6478 -0.9626
 7016TIP3   OH242538   3.900   1.303  44.306  0.2516  0.1817  0.1667
 7016TIP3    H142539   3.849   1.241  44.254 -1.5346  0.8797  1.0130
 7016TIP3    H242540   3.951   1.352  44.241  0.6907 -1.2314 -0.6116
 7017TIP3   OH242541   1.017   1.323  43.009 -0.3348 -0.1965  0.1756
 7017TIP3    H142542   1.027   1.285  42.922  0.5411  0.4195 -0.0045
 7017TIP3    H242543   1.105   1.355  43.031 -1.3902  4.0760 -0.8185
 7018TIP3   OH242544   0.006   2.508  41.978  0.1285  0.4393 -0.8562
 7018TIP3    H142545   0.063   2.462  42.040 -1.0014 -0.9643 -0.7977
 7018TIP3    H242546   0.044   2.488  41.892 -0.2384 -0.4915 -0.8183
 7019TIP3   OH242547   0.626   0.507   6.569  0.1240  0.2693 -0.2931
 7019TIP3    H142548   0.559   0.566   6.533 -0.2909  0.7517  1.1788
 7019TIP3    H242549   0.584   0.422   6.572 -1.0512  0.8609  2.0755
 7020TIP3   OH242550   3.624   3.327  31.801 -0.1080 -0.6858 -0.9021
 7020TIP3    H142551   3.602   3.266  31.871  1.1178  0.5922  0.6733
 7020TIP3    H242552   3.592   3.411  31.832 -0.9205 -0.3175 -2.6083
 7021TIP3   OH242553   3.035   0.235   7.436 -0.0875  0.1424  0.3567
 7021TIP3    H142554   3.011   0.193   7.519  0.2816  1.6677  1.2664
 7021TIP3    H242555   3.027   0.329   7.453 -2.2775  0.4975 -2.0309
 7022TIP3   OH242556   3.133   0.090  10.058  0.1376  0.0105  0.0320
 7022TIP3    H142557   3.181   0.171  10.074 -0.4495  0.7426 -1.6668
 7022TIP3    H242558   3.198   0.031  10.021  0.2670  0.1660  0.0104
 7023TIP3   OH242559   1.373   2.408  41.472 -0.0432  0.2505  0.1063
 7023TIP3    H142560   1.349   2.493  41.508 -0.0940  2.1836 -3.9453
 7023TIP3    H242561   1.469   2.411  41.467 -0.0016 -0.2352  0.5785
 7024TIP3   OH242562   3.279   3.393   7.960 -0.2267 -0.8507  0.0962
 7024TIP3    H142563   3.338   3.350   8.023  0.1745 -0.8029 -0.2429
 7024TIP3    H242564   3.306   3.484   7.960 -0.2040 -0.8566 -0.1721
 7025TIP3   OH242565   2.175   2.849   9.526 -0.3407  0.1029  0.6870
 7025TIP3    H142566   2.242   2.897   9.575  0.7678 -0.8350  0.1180
 7025TIP3    H242567   2.172   2.763   9.567  0.5200 -0.6550 -0.7737
 7026TIP3   OH242568   3.648   2.302  47.252 -0.1814 -0.0076  0.3617
 7026TIP3    H142569   3.687   2.218  47.228  1.9973  1.2612 -0.8272
 7026TIP3    H242570   3.665   2.311  47.346 -0.8674 -1.0854  0.5988
 7027TIP3   OH242571   0.100   1.842   8.534  0.7459 -0.3489 -0.2707
 7027TIP3    H142572   0.064   1.777   8.474 -0.0092  0.4930 -0.7397
 7027TIP3    H242573   0.061   1.925   8.508  0.7889  0.1248  1.0637
 7028TIP3   OH242574   0.167   3.292  14.781 -0.6767  0.0455 -0.1360
 7028TIP3    H142575   0.108   3.342  14.723 -0.5470 -0.3674 -0.6293
 7028TIP3    H242576   0.108   3.249  14.843 -0.7353  1.6088  0.9489
 7029TIP3   OH242577   1.536   1.677   7.102 -0.4644 -0.6106 -0.4122
 7029TIP3    H142578   1.510   1.587   7.121  2.5733 -1.8430 -1.4692
 7029TIP3    H242579   1.541   1.681   7.006  2.3024 -0.3337 -0.3407
 7030TIP3   OH242580   0.413   1.007  36.026 -0.4651 -0.0925  0.1678
 7030TIP3    H142581   0.502   1.042  36.028  1.2402 -3.9653  1.6809
 7030TIP3    H242582   0.409   0.956  35.945 -1.7686  0.8873 -0.4229
 7031TIP3   OH242583   1.936   0.735   1.559  0.6749 -0.7891 -0.2766
 7031TIP3    H142584   1.967   0.715   1.471  1.3580 -1.8885  0.1924
 7031TIP3    H242585   1.926   0.649   1.601 -0.9158 -0.3542  0.3066
 7032TIP3   OH242586   0.084   0.327  47.677  0.3811  0.1845  0.4764
 7032TIP3    H142587   0.101   0.343  47.770  0.6381 -1.4932  0.7423
 7032TIP3    H242588   0.171   0.321  47.637  0.3610 -2.0056  0.6845
 7033TIP3   OH242589   0.131   3.391  47.278  0.5193 -0.0189 -0.1911
 7033TIP3    H142590   0.036   3.386  47.269  0.5780 -1.2001 -0.3104
 7033TIP3    H242591   0.152   3.483  47.263 -0.8773  0.8452  2.5566
 7034TIP3   OH242592   0.428   0.668  40.617 -0.0223  0.2098  0.2983
 7034TIP3    H142593   0.455   0.683  40.526  1.5278  1.2383  0.8759
 7034TIP3    H242594   0.499   0.615  40.654 -0.7415 -0.3797  0.8474
 7035TIP3   OH242595   0.197   1.819  10.370 -0.0373  0.0373  0.2119
 7035TIP3    H142596   0.129   1.847  10.309  1.5850  0.9859 -1.2322
 7035TIP3    H242597   0.278   1.819  10.319  1.0521 -1.2956  1.8053
 7036TIP3   OH242598   2.336   3.822  45.717  0.2054  0.4108  0.3998
 7036TIP3    H142599   2.390   3.744  45.726 -1.3036 -0.7894 -0.5438
 7036TIP3    H242600   2.276   3.819  45.791 -0.2784  0.3125  0.0108
 7037TIP3   OH242601   2.712   1.445  31.253 -0.1279  0.2106 -0.3309
 7037TIP3    H142602   2.767   1.523  31.259  1.1361 -0.5668 -1.2705
 7037TIP3    H242603   2.772   1.372  31.268 -1.3547 -0.5890  0.8768
 7038TIP3   OH242604   3.009   0.279  13.179  0.0807 -0.3801  0.0535
 7038TIP3    H142605   3.004   0.255  13.086 -0.1056 -0.4890  0.0926
 7038TIP3    H242606   2.955   0.357  13.187 -0.5471 -0.8220  0.2212
 7039TIP3   OH242607   3.153   2.034  43.068 -0.0868  0.3170  0.1787
 7039TIP3    H142608   3.156   2.119  43.111  1.8116 -0.0527  0.8689
 7039TIP3    H242609   3.147   1.971  43.141  2.0849 -0.2601 -0.0546
 7040TIP3   OH242610   3.234   3.971  15.050  0.2393 -0.0368 -0.0802
 7040TIP3    H142611   3.227   3.928  15.135 -0.3373  0.9205  0.3773
 7040TIP3    H242612   3.154   4.024  15.044  1.4530  1.8890 -0.0779
 7041TIP3   OH242613   1.245   3.764  15.291 -0.4996  0.4485 -0.2237
 7041TIP3    H142614   1.289   3.737  15.372 -0.9756  1.6308  0.4636
 7041TIP3    H242615   1.281   3.851  15.273 -1.6304  0.9077 -0.3322
 7042TIP3   OH242616   1.906   0.543   6.948 -0.7429  0.5829  0.5032
 7042TIP3    H142617   1.971   0.584   6.891 -0.9262  0.5237  0.2496
 7042TIP3    H242618   1.943   0.457   6.968 -1.3271  0.0300 -0.6956
 7043TIP3   OH242619   2.419   0.968  44.627 -0.1997 -0.3038 -0.1651
 7043TIP3    H142620   2.423   0.875  44.650  1.5640 -0.3570 -0.5820
 7043TIP3    H242621   2.463   0.975  44.543 -1.9812  0.6642 -1.0763
 7044TIP3   OH242622   3.616   3.546  35.719  0.0530  0.4866  0.4169
 7044TIP3    H142623   3.596   3.557  35.627 -0.7864  1.3336  0.6869
 7044TIP3    H242624   3.606   3.452  35.735 -0.4534  0.4347 -0.2001
 7045TIP3   OH242625   1.953   0.146   3.438  0.1493 -0.7440  0.3262
 7045TIP3    H142626   1.950   0.130   3.343  1.5676 -0.7567  0.2527
 7045TIP3    H242627   1.880   0.205   3.455  1.5422  1.5831 -1.2879
 7046TIP3   OH242628   1.697   3.822  33.351  0.3811  0.1317 -0.6266
 7046TIP3    H142629   1.779   3.792  33.311  0.2584 -0.4355 -0.4628
 7046TIP3    H242630   1.722   3.846  33.440  0.4373  0.3113 -0.6905
 7047TIP3   OH242631   0.065   1.130  14.147 -0.1699 -0.2652  0.0493
 7047TIP3    H142632   0.121   1.167  14.079  2.0360 -0.3503  1.6679
 7047TIP3    H242633   0.118   1.060  14.185 -1.7453 -0.9055  1.1413
 7048TIP3   OH242634   0.288   1.373  31.908 -0.4683  0.3066  0.1615
 7048TIP3    H142635   0.304   1.464  31.930 -0.1303  0.0273  1.1576
 7048TIP3    H242636   0.254   1.335  31.989 -0.2716 -0.5261 -0.1351
 7049TIP3   OH242637   0.771   0.755   6.428  0.5777 -0.1649  0.2801
 7049TIP3    H142638   0.708   0.728   6.361 -1.5521  0.9322  1.7233
 7049TIP3    H242639   0.805   0.673   6.462  1.7653 -0.7583 -2.0965
 7050TIP3   OH242640   1.388   3.710   2.949  0.2460 -0.7440  0.4115
 7050TIP3    H142641   1.462   3.752   2.906  0.4029 -0.8970  0.5297
 7050TIP3    H242642   1.371   3.632   2.898 -1.5985  0.6556 -1.2719
 7051TIP3   OH242643   0.478   0.736   5.199 -0.0394  0.3868  0.3607
 7051TIP3    H142644   0.430   0.714   5.278  0.0412 -0.3055  0.2223
 7051TIP3    H242645   0.563   0.693   5.209 -0.1635 -0.0150 -0.2605
 7052TIP3   OH242646   3.047   3.349   8.068 -0.1241  0.6055 -0.0131
 7052TIP3    H142647   3.133   3.371   8.034 -0.3346  0.7849 -0.4336
 7052TIP3    H242648   3.021   3.426   8.120 -0.6669  1.1814 -1.1122
 7053TIP3   OH242649   1.122   0.569   5.261  0.5888 -0.0563 -0.9925
 7053TIP3    H142650   1.089   0.491   5.305  0.5291 -0.4879 -1.7805
 7053TIP3    H242651   1.207   0.542   5.227  0.7438  0.3499 -0.9340
 7054TIP3   OH242652   4.103   3.278  30.612  0.6738 -0.1338  0.5562
 7054TIP3    H142653   4.087   3.204  30.671 -0.3029 -1.9686 -1.8598
 7054TIP3    H242654   4.189   3.311  30.638  0.4441 -1.0671  2.7347
 7055TIP3   OH242655   2.033   3.591  28.724  0.1870  0.1508 -0.0350
 7055TIP3    H142656   2.016   3.664  28.783 -1.3029 -0.1197 -0.0990
 7055TIP3    H242657   1.966   3.527  28.744  1.6708 -1.3896  0.2546
 7056TIP3   OH242658   1.899   1.675   3.467  0.7387 -0.2630  0.3338
 7056TIP3    H142659   1.993   1.678   3.484  0.6312  0.5107  0.8110
 7056TIP3    H242660   1.883   1.749   3.408  0.7583 -1.6304 -1.5040
 7057TIP3   OH242661   1.452   2.977  10.734  0.0921 -0.5442  0.0536
 7057TIP3    H142662   1.437   2.977  10.828 -0.4445  1.4846  0.0049
 7057TIP3    H242663   1.367   2.998  10.695  0.6743  0.3962 -0.7715
 7058TIP3   OH242664   1.053   3.938  42.474  0.2074 -0.4625 -0.5919
 7058TIP3    H142665   1.097   3.982  42.547  0.1373  1.2733 -1.5331
 7058TIP3    H242666   0.984   3.886  42.515 -1.5657  2.4977  0.4936
 7059TIP3   OH242667   1.568   2.634   8.847 -0.7104  0.4204  0.5450
 7059TIP3    H142668   1.621   2.703   8.807 -1.7535  0.4986 -0.7183
 7059TIP3    H242669   1.611   2.552   8.820  0.0776  0.5249  1.4168
 7060TIP3   OH242670   1.696   2.253   0.471  0.2632 -0.0959  0.3852
 7060TIP3    H142671   1.785   2.225   0.494  0.0792  0.4602  1.9031
 7060TIP3    H242672   1.675   2.320   0.536 -1.4075 -0.4603  0.2623
 7061TIP3   OH242673   0.496   1.536  34.635 -0.1774  0.1751 -0.3607
 7061TIP3    H142674   0.449   1.619  34.648 -1.4488 -0.2908 -1.7352
 7061TIP3    H242675   0.586   1.562  34.615 -0.0381  1.1251  1.3270
 7062TIP3   OH242676   3.829   2.372   1.228  1.0175  0.4231  0.0019
 7062TIP3    H142677   3.852   2.442   1.167 -0.4938  2.0594  1.1979
 7062TIP3    H242678   3.837   2.412   1.315  0.7964 -1.1098  0.7698
 7063TIP3   OH242679   3.096   3.756   4.589 -0.6353 -0.0254 -0.1407
 7063TIP3    H142680   3.027   3.797   4.536 -0.9470 -0.0501  0.2454
 7063TIP3    H242681   3.051   3.687   4.638 -0.7528  1.2753  1.6571
 7064TIP3   OH242682   2.526   1.435   6.207 -0.0671 -0.6575  0.0623
 7064TIP3    H142683   2.530   1.530   6.197 -0.4933 -0.8226 -2.3359
 7064TIP3    H242684   2.514   1.422   6.301 -2.4427  1.7658  0.2352
 7065TIP3   OH242685   0.776   0.956  36.996  0.3973 -0.2012 -0.5150
 7065TIP3    H142686   0.725   0.991  37.070  0.2125 -1.7717  0.1349
 7065TIP3    H242687   0.769   1.024  36.929  1.2446  1.6648  1.1547
 7066TIP3   OH242688   3.152   0.814  38.727 -0.4961  0.5239 -0.7284
 7066TIP3    H142689   3.192   0.836  38.644 -0.4011  2.4768 -0.2022
 7066TIP3    H242690   3.214   0.844  38.793 -0.0341 -2.0040  0.1167
 7067TIP3   OH242691   1.387   3.634  31.567  0.0890 -0.1640  0.2625
 7067TIP3    H142692   1.338   3.595  31.495 -1.6225  2.4000 -0.0856
 7067TIP3    H242693   1.320   3.660  31.631  1.2459  0.7956  1.1463
 7068TIP3   OH242694   3.127   2.080  33.625 -0.1893  0.1795 -0.2886
 7068TIP3    H142695   3.105   1.988  33.641  1.0205 -0.1432 -0.3470
 7068TIP3    H242696   3.214   2.077  33.584 -0.4823  1.3134 -1.0528
 7069TIP3   OH242697   1.765   0.267  27.018  0.3080  0.0447  0.0305
 7069TIP3    H142698   1.695   0.326  26.992 -0.4629 -0.7831  0.1927
 7069TIP3    H242699   1.731   0.220  27.094  0.2223 -1.8275 -1.0996
 7070TIP3   OH242700   0.448   0.373   5.205  0.2331 -0.3602  0.6236
 7070TIP3    H142701   0.522   0.401   5.151 -0.7756 -1.0745 -1.1851
 7070TIP3    H242702   0.392   0.323   5.146 -0.8056 -1.3958  2.4036
 7071TIP3   OH242703   2.933   0.934   5.537  0.6499  0.2466 -0.3963
 7071TIP3    H142704   2.869   0.969   5.475  0.7794  0.1752 -0.5705
 7071TIP3    H242705   2.880   0.899   5.608  0.5054  0.4520 -0.4015
 7072TIP3   OH242706   2.946   0.964   4.884  1.0322  0.6595  0.1495
 7072TIP3    H142707   2.982   0.876   4.886  0.6947  0.4839 -1.0223
 7072TIP3    H242708   2.954   0.992   4.793  0.0060  1.3567  0.2468
 7073TIP3   OH242709   2.403   1.456  45.439 -0.4915 -0.7590 -0.2065
 7073TIP3    H142710   2.439   1.476  45.525 -1.3512  0.5610 -0.1250
 7073TIP3    H242711   2.455   1.507  45.378 -1.3450  0.1307 -0.2170
 7074TIP3   OH242712   3.027   0.357  40.131 -0.0714  0.3102 -0.4417
 7074TIP3    H142713   3.012   0.264  40.149  0.6657 -0.3154 -2.6483
 7074TIP3    H242714   3.065   0.392  40.212  1.0477 -1.6851 -0.0311
 7075TIP3   OH242715   3.336   3.133  14.620  0.6494  0.2501 -0.2385
 7075TIP3    H142716   3.290   3.057  14.656  2.4176  0.4329  2.6923
 7075TIP3    H242717   3.389   3.097  14.548 -1.4400 -0.5067 -1.4905
 7076TIP3   OH242718   0.974   4.006  40.150 -0.3396  0.4016  0.2261
 7076TIP3    H142719   0.894   4.044  40.112 -1.3102 -1.7018  0.0001
 7076TIP3    H242720   0.955   3.999  40.243  0.0927  1.0573  0.3643
 7077TIP3   OH242721   3.456   3.956  44.801  0.8413 -0.7217 -0.1151
 7077TIP3    H142722   3.384   3.949  44.864  1.0330 -1.9219 -0.0044
 7077TIP3    H242723   3.486   4.046  44.809 -1.1688  0.0544 -0.7483
 7078TIP3   OH242724   1.243   1.645  10.172 -0.1220  0.0951 -0.7383
 7078TIP3    H142725   1.289   1.590  10.235  1.2127  1.2641 -0.6358
 7078TIP3    H242726   1.231   1.729  10.218 -1.2497  0.2149 -1.2191
 7079TIP3   OH242727   0.215   2.973  38.902 -0.8977  0.2650  0.6691
 7079TIP3    H142728   0.171   2.900  38.858 -0.0952  0.5773 -0.7222
 7079TIP3    H242729   0.153   3.046  38.894  0.0881  0.9264 -2.0047
 7080TIP3   OH242730   2.518   2.323  40.922  0.5034 -0.2313  0.3469
 7080TIP3    H142731   2.448   2.301  40.860 -0.1074  0.8839  0.6233
 7080TIP3    H242732   2.531   2.417  40.911  0.6262 -0.0854  1.6784
 7081TIP3   OH242733   0.354   2.898   4.864  0.6142  0.2851 -0.1687
 7081TIP3    H142734   0.371   2.955   4.788 -0.1310  2.3954  1.1416
 7081TIP3    H242735   0.259   2.904   4.877  0.6279 -0.7250  0.4264
 7082TIP3   OH242736   0.857   0.792   0.706  0.2246 -0.1246  0.4276
 7082TIP3    H142737   0.935   0.845   0.723 -0.5553  1.0058  0.6179
 7082TIP3    H242738   0.818   0.778   0.792 -0.4701  0.4238  0.2099
 7083TIP3   OH242739   1.421   4.083  45.466 -0.0927 -0.3465  0.0549
 7083TIP3    H142740   1.487   4.078  45.397 -1.6032 -0.1310 -1.4446
 7083TIP3    H242741   1.381   4.169  45.456  0.7906  0.4200  2.3330
 7084TIP3   OH242742   0.887   0.560  33.956  0.3434 -0.2041 -0.1082
 7084TIP3    H142743   0.897   0.645  33.914 -2.7140  0.2656 -0.0741
 7084TIP3    H242744   0.815   0.518  33.910  0.0034 -1.6435  1.6035
 7085TIP3   OH242745   2.167   2.008  18.656  0.3028 -0.7756  0.1561
 7085TIP3    H142746   2.243   1.978  18.605 -0.2186  1.5994 -2.3058
 7085TIP3    H242747   2.107   2.042  18.590 -0.7853  1.8349  2.3172
 7086TIP3   OH242748   1.310   3.679  30.594 -0.8039  0.1025  0.0696
 7086TIP3    H142749   1.394   3.721  30.573 -0.4563 -1.4088 -1.8705
 7086TIP3    H242750   1.329   3.624  30.670  0.1111 -0.4985 -0.5626
 7087TIP3   OH242751   2.058   3.609  29.466  0.5430  0.3658 -0.3834
 7087TIP3    H142752   1.997   3.681  29.450  0.2704  0.3596  0.5728
 7087TIP3    H242753   2.005   3.530  29.462  1.0908  0.0524 -2.8908
 7088TIP3   OH242754   2.386   2.924  14.153  0.0799  0.0948  0.4485
 7088TIP3    H142755   2.448   2.980  14.201  0.6329  0.0582 -0.2170
 7088TIP3    H242756   2.372   2.969  14.070 -0.8372  0.1266  0.6026
 7089TIP3   OH242757   0.387   0.754  15.141 -0.3109  0.8810 -0.5236
 7089TIP3    H142758   0.421   0.724  15.225  0.7992  2.1543 -0.4912
 7089TIP3    H242759   0.346   0.676  15.103 -0.1057  0.0825  0.8259
 7090TIP3   OH242760   1.555   0.443  14.795 -0.3602  0.3652  0.3966
 7090TIP3    H142761   1.579   0.536  14.795  0.1695  0.2544  1.6213
 7090TIP3    H242762   1.479   0.439  14.853 -2.0476  0.3880 -1.7244
 7091TIP3   OH242763   3.043   1.077  40.602  0.1703 -0.4744 -0.0180
 7091TIP3    H142764   3.131   1.102  40.575  1.2538 -1.4460  2.3128
 7091TIP3    H242765   3.041   1.096  40.696 -2.9381  1.6807 -0.3585
 7092TIP3   OH242766   2.264   3.650  29.635 -0.4467  0.1419  0.5009
 7092TIP3    H142767   2.192   3.659  29.572 -0.2497  0.4119  0.3109
 7092TIP3    H242768   2.241   3.573  29.686  0.3005 -1.2278 -1.1114
 7093TIP3   OH242769   3.322   0.526  44.229  0.6016 -0.4387 -0.2711
 7093TIP3    H142770   3.289   0.539  44.140 -4.2633 -0.9824  1.1681
 7093TIP3    H242771   3.330   0.431  44.238  1.1677 -0.3806 -0.1313
 7094TIP3   OH242772   1.450   0.084  12.973  0.3234  0.5143 -0.1533
 7094TIP3    H142773   1.393   0.138  12.918  0.0483 -0.2089 -0.5842
 7094TIP3    H242774   1.391   0.036  13.030  0.6312  1.9773  1.5163
 7095TIP3   OH242775   1.215   1.844  31.128  0.5973  0.6595  0.0446
 7095TIP3    H142776   1.259   1.768  31.090  2.2317  1.1948  0.8138
 7095TIP3    H242777   1.252   1.919  31.082 -0.1384  1.0896  0.1258
 7096TIP3   OH242778   3.162   2.304   1.439 -0.6134 -0.0289  0.2791
 7096TIP3    H142779   3.071   2.310   1.469 -0.3550  2.3517  0.7679
 7096TIP3    H242780   3.212   2.355   1.503  0.6696  1.0164 -1.4591
 7097TIP3   OH242781   3.619   1.143  33.432  0.1523 -0.1646 -0.1305
 7097TIP3    H142782   3.701   1.174  33.394  0.7002 -2.2284 -0.7864
 7097TIP3    H242783   3.637   1.052  33.458 -2.4075 -1.3993 -2.1697
 7098TIP3   OH242784   2.828   3.546  28.435  0.2359 -0.1280 -0.1105
 7098TIP3    H142785   2.875   3.546  28.518  1.0100 -0.1796 -0.5394
 7098TIP3    H242786   2.871   3.614  28.383  0.5977 -0.9558 -0.9248
 7099TIP3   OH242787   3.679   1.257  17.420 -0.3784 -0.5489 -0.3289
 7099TIP3    H142788   3.669   1.166  17.449 -1.6176  0.4044  2.5719
 7099TIP3    H242789   3.736   1.297  17.486  0.0851  0.8426 -1.5188
 7100TIP3   OH242790   1.804   3.101  10.871 -0.0187 -0.0232 -0.2760
 7100TIP3    H142791   1.719   3.126  10.834  0.8351  1.8236 -1.1420
 7100TIP3    H242792   1.854   3.183  10.872  1.9388 -1.1637 -0.3116
 7101TIP3   OH242793   1.342   0.081   0.619  0.5054 -0.3593 -0.3339
 7101TIP3    H142794   1.425   0.061   0.577  0.2521  1.4839 -1.8348
 7101TIP3    H242795   1.362   0.153   0.679  0.3548 -1.2982  0.9022
 7102TIP3   OH242796   2.391   1.396  34.382 -0.3859  0.3810  0.2419
 7102TIP3    H142797   2.347   1.471  34.341 -0.0789  0.4565  0.0463
 7102TIP3    H242798   2.382   1.325  34.317 -0.8420  0.1922  0.5090
 7103TIP3   OH242799   3.854   1.638  11.123  0.0544  0.0515 -0.3141
 7103TIP3    H142800   3.809   1.719  11.100 -0.4037 -0.4064 -1.0476
 7103TIP3    H242801   3.896   1.657  11.207 -1.2825  0.5608  0.2588
 7104TIP3   OH242802   0.477   0.003  14.194 -0.6510  0.5348  0.1650
 7104TIP3    H142803   0.406  -0.036  14.245 -0.0312  0.4816  1.0208
 7104TIP3    H242804   0.540   0.032  14.260  1.9394 -2.7477 -0.5630
 7105TIP3   OH242805   2.826   0.252  41.130  0.2726 -0.6357 -0.5005
 7105TIP3    H142806   2.848   0.303  41.208 -2.6972 -1.3291  0.9077
 7105TIP3    H242807   2.812   0.163  41.162 -1.5725 -0.8131 -1.7004
 7106TIP3   OH242808   2.405   3.027  35.326 -0.0544 -0.5403 -0.0578
 7106TIP3    H142809   2.393   3.115  35.291  0.0517 -0.4030  0.2571
 7106TIP3    H242810   2.491   3.028  35.367 -0.3567 -0.5817  0.5837
 7107TIP3   OH242811   2.384   3.712   3.192 -0.1508  0.2769 -0.1557
 7107TIP3    H142812   2.349   3.736   3.277  1.0006  0.3849  0.2992
 7107TIP3    H242813   2.420   3.624   3.204 -1.2274 -0.3035 -0.9141
 7108TIP3   OH242814   2.807   2.366  46.369 -0.6172 -0.5472  0.5057
 7108TIP3    H142815   2.766   2.452  46.360 -0.7565 -0.4408  1.9204
 7108TIP3    H242816   2.746   2.306  46.324 -1.3355 -0.1198  0.8856
 7109TIP3   OH242817   3.414   2.041  18.154 -0.3338 -0.2518 -0.1812
 7109TIP3    H142818   3.441   2.082  18.072  4.2350  2.2945  2.2024
 7109TIP3    H242819   3.456   1.955  18.151  0.5611  0.1663 -0.2402
 7110TIP3   OH242820   1.697   2.307  20.587  0.1833  0.5001 -0.1269
 7110TIP3    H142821   1.700   2.276  20.496 -2.1800  1.1185 -0.4743
 7110TIP3    H242822   1.667   2.231  20.636  1.9820  0.0029  0.2729
 7111TIP3   OH242823   1.555   3.909  27.935 -0.0898 -0.8041  0.1990
 7111TIP3    H142824   1.502   3.847  27.985 -0.1155 -0.9224  0.0278
 7111TIP3    H242825   1.513   3.994  27.950 -2.2719 -1.2819 -2.4135
 7112TIP3   OH242826   0.236   0.402  45.149 -0.3478  0.1651  0.5269
 7112TIP3    H142827   0.298   0.466  45.112  0.7591 -0.9525  0.3883
 7112TIP3    H242828   0.154   0.420  45.103 -0.4198  2.2894  1.3767
 7113TIP3   OH242829   2.747   2.196   7.932  0.3507  0.1945 -0.3780
 7113TIP3    H142830   2.654   2.186   7.949  0.1589 -0.0024 -1.4882
 7113TIP3    H242831   2.768   2.283   7.966  0.0673 -0.2653  1.0629
 7114TIP3   OH242832   2.763   2.876  14.064  0.5931  0.5810 -0.0287
 7114TIP3    H142833   2.852   2.857  14.093  0.4321  0.3851  0.3406
 7114TIP3    H242834   2.758   2.837  13.976  1.2248  1.5698 -0.5357
 7115TIP3   OH242835   3.258   2.445  10.982  1.6496  0.2000 -0.4165
 7115TIP3    H142836   3.227   2.515  11.039  2.8045  1.2209 -0.9771
 7115TIP3    H242837   3.204   2.452  10.903  0.5057 -0.7759  0.2611
 7116TIP3   OH242838   0.420   2.323  39.853  0.0919  0.0095 -0.4363
 7116TIP3    H142839   0.458   2.299  39.937 -1.8272  0.9348  0.7657
 7116TIP3    H242840   0.454   2.410  39.835 -1.7122  1.0668  0.9014
 7117TIP3   OH242841   1.412   3.457  15.301 -0.8443  1.0335 -0.0730
 7117TIP3    H142842   1.372   3.401  15.235  0.1564 -0.3420  0.4580
 7117TIP3    H242843   1.338   3.484  15.357 -1.3959  0.6145 -0.5894
 7118TIP3   OH242844   3.684   4.087  10.823 -0.4276  0.1520 -0.3260
 7118TIP3    H142845   3.759   4.121  10.871 -0.3448  1.1384 -1.1095
 7118TIP3    H242846   3.628   4.047  10.890  0.1667  0.5908  0.4436
 7119TIP3   OH242847   3.488   0.887  32.037  0.3633 -0.0910 -0.6093
 7119TIP3    H142848   3.438   0.941  32.099 -0.8335  0.2880 -1.8668
 7119TIP3    H242849   3.434   0.885  31.958  1.9659 -0.3835 -1.7254
 7120TIP3   OH242850   2.712   1.466  33.077  0.0675  0.0323 -0.2407
 7120TIP3    H142851   2.790   1.480  33.023 -0.2093 -1.5395 -1.1026
 7120TIP3    H242852   2.727   1.381  33.119 -1.3564 -0.5159 -0.7718
 7121TIP3   OH242853   2.686   3.984  35.590  0.2824  0.0344  0.0943
 7121TIP3    H142854   2.636   4.031  35.524 -2.0178 -0.4924  1.3614
 7121TIP3    H242855   2.721   3.908  35.543 -1.4996 -0.4652 -0.5249
 7122TIP3   OH242856   1.708   1.898  46.672  0.4169  0.0606  0.2922
 7122TIP3    H142857   1.668   1.952  46.740 -0.0291 -0.0790  0.1407
 7122TIP3    H242858   1.648   1.824  46.661 -0.9900  1.4251 -2.1724
 7123TIP3   OH242859   2.922   0.651  47.567  0.0375 -0.4987  0.9010
 7123TIP3    H142860   2.959   0.687  47.486 -2.7750  1.7960  0.4537
 7123TIP3    H242861   2.907   0.728  47.622 -2.7076 -1.3498  1.5142
 7124TIP3   OH242862   2.626   3.422   6.284 -0.5373 -0.2495  0.0036
 7124TIP3    H142863   2.687   3.440   6.356  0.8102 -2.3235 -0.5334
 7124TIP3    H242864   2.552   3.377   6.326 -0.4878 -0.0632  0.2981
 7125TIP3   OH242865   1.200   3.523  42.172  0.1790 -0.2005 -0.3206
 7125TIP3    H142866   1.276   3.577  42.194 -0.4947  0.8498 -0.5082
 7125TIP3    H242867   1.204   3.450  42.234  1.2171 -0.0595 -0.1962
 7126TIP3   OH242868   4.094   1.536  36.450  0.1571  0.1989  0.4092
 7126TIP3    H142869   4.129   1.455  36.414  2.7691  0.6432  1.7042
 7126TIP3    H242870   4.132   1.605  36.395  1.8764  0.7230  2.1331
 7127TIP3   OH242871   0.868   2.284  42.357  0.1960  0.1433 -0.2882
 7127TIP3    H142872   0.911   2.263  42.274  1.9956  0.2274  0.5603
 7127TIP3    H242873   0.893   2.212  42.415 -0.2415  0.5715  0.4431
 7128TIP3   OH242874   3.556   0.022  28.883  0.0442 -0.3260 -0.0920
 7128TIP3    H142875   3.465   0.041  28.906  1.1710  2.4191  2.9268
 7128TIP3    H242876   3.558   0.025  28.787 -2.7838  1.0259 -0.2112
 7129TIP3   OH242877   2.265   2.690  46.183  0.4127 -0.4198  0.0603
 7129TIP3    H142878   2.355   2.659  46.177 -0.1561 -2.5875  1.2853
 7129TIP3    H242879   2.238   2.704  46.092  2.1095  0.7872 -0.3027
 7130TIP3   OH242880   2.574   3.909  32.602  0.1159 -0.3007 -0.5282
 7130TIP3    H142881   2.647   3.964  32.631  0.6307 -0.2595 -1.8700
 7130TIP3    H242882   2.519   3.900  32.681 -0.3134  2.6091 -0.3787
 7131TIP3   OH242883   3.094   1.741  39.618 -0.9086 -0.1882 -0.3284
 7131TIP3    H142884   3.141   1.730  39.701  0.0178  2.7729 -0.3334
 7131TIP3    H242885   3.027   1.673  39.619 -1.8535  0.5678  3.5437
 7132TIP3   OH242886   2.920   1.584  32.560 -0.1195 -0.4125  0.3757
 7132TIP3    H142887   2.933   1.651  32.493  1.5364 -2.0920 -1.0944
 7132TIP3    H242888   2.825   1.573  32.566 -0.3350  0.6431 -0.7983
 7133TIP3   OH242889   1.618   2.141  10.544 -0.1754  0.4673  0.3774
 7133TIP3    H142890   1.606   2.205  10.614  0.2356  0.7539  0.1930
 7133TIP3    H242891   1.705   2.159  10.510 -1.0129  1.5083 -1.3849
 7134TIP3   OH242892   2.518   1.538  21.974 -0.1834  0.2975  0.9822
 7134TIP3    H142893   2.545   1.547  21.883 -1.5684 -1.5962  0.3280
 7134TIP3    H242894   2.532   1.625  22.012 -0.0406  1.2574 -1.1417
 7135TIP3   OH242895   0.934   3.901   8.121 -0.2294  0.7155  0.2504
 7135TIP3    H142896   0.892   3.987   8.115 -1.6887 -0.0918 -2.0260
 7135TIP3    H242897   0.994   3.898   8.047  0.8303  0.2764  1.1090
 7136TIP3   OH242898   2.774   0.711  30.843 -0.3533 -0.0971  0.3781
 7136TIP3    H142899   2.791   0.805  30.853  0.2767 -0.2346  0.6294
 7136TIP3    H242900   2.742   0.683  30.929 -1.0589 -0.0108  0.1492
 7137TIP3   OH242901   0.289   2.590  31.697  0.3548 -0.2423 -0.6391
 7137TIP3    H142902   0.212   2.535  31.683  0.3005 -0.0834 -0.9645
 7137TIP3    H242903   0.326   2.603  31.609  1.5782 -1.5086 -0.3485
 7138TIP3   OH242904   3.748   2.382  32.519 -0.5340  0.1412 -0.4565
 7138TIP3    H142905   3.838   2.351  32.516 -0.2650 -0.1153  3.8378
 7138TIP3    H242906   3.696   2.303  32.531 -1.1362  0.4399 -1.0492
 7139TIP3   OH242907   1.520   3.436   0.953  0.1742 -0.3072  0.1722
 7139TIP3    H142908   1.545   3.515   1.000 -0.5383 -0.4324  0.7721
 7139TIP3    H242909   1.476   3.381   1.018 -2.3047  0.1958 -0.9567
 7140TIP3   OH242910   0.163   4.007  10.582 -0.3707  0.0222  1.0957
 7140TIP3    H142911   0.093   3.977  10.640 -2.0395  0.7274 -0.4816
 7140TIP3    H242912   0.150   4.101  10.575  0.8687  0.1946  0.8971
 7141TIP3   OH242913   3.585   0.828   1.583 -0.4967 -0.3283  0.0424
 7141TIP3    H142914   3.658   0.781   1.542 -0.2345 -1.1559  1.3707
 7141TIP3    H242915   3.507   0.790   1.542 -0.4180 -3.6115  2.5052
 7142TIP3   OH242916   0.480   1.402  14.967 -0.8278 -0.0064  0.1664
 7142TIP3    H142917   0.556   1.356  15.003 -0.1343  1.3129  0.4434
 7142TIP3    H242918   0.412   1.335  14.960  0.2443 -1.1273  0.2654
 7143TIP3   OH242919   1.236   1.597  38.006 -0.1325  0.0579  0.2482
 7143TIP3    H142920   1.244   1.579  37.913  1.9531  1.3448  0.1151
 7143TIP3    H242921   1.326   1.599  38.038 -0.8334 -1.5038  2.5641
 7144TIP3   OH242922   1.109   2.909  31.960  0.5309 -0.0895 -0.1535
 7144TIP3    H142923   1.063   2.960  32.026  1.5934 -0.4440  0.8963
 7144TIP3    H242924   1.065   2.930  31.877 -1.6330 -0.5733  0.8090
 7145TIP3   OH242925   1.103   2.528  17.098  0.1494  0.1761  0.2679
 7145TIP3    H142926   1.170   2.568  17.041 -0.1743  1.0188  0.4681
 7145TIP3    H242927   1.063   2.460  17.043  0.5566  0.2724 -0.1597
 7146TIP3   OH242928   2.946   2.762  31.241 -0.5242 -0.0739  0.1378
 7146TIP3    H142929   2.925   2.768  31.334  1.0555 -4.1159  1.0118
 7146TIP3    H242930   2.869   2.721  31.201 -0.6955  0.4443 -0.0640
 7147TIP3   OH242931   3.886   3.133  43.754  0.2624 -0.7781  0.3493
 7147TIP3    H142932   3.875   3.227  43.766  0.3827 -0.5770 -0.9113
 7147TIP3    H242933   3.937   3.104  43.829  2.1414  0.5717 -0.3284
 7148TIP3   OH242934   2.891   2.776   8.237 -0.8404  1.1826  0.3843
 7148TIP3    H142935   2.825   2.773   8.306  0.5873 -3.1363  1.8603
 7148TIP3    H242936   2.932   2.690   8.239  1.7073  2.0516 -3.5942
 7149TIP3   OH242937   0.110   2.477  40.548  0.1801 -0.0021  0.4533
 7149TIP3    H142938   0.142   2.565  40.567  0.4003 -0.2880  1.4859
 7149TIP3    H242939   0.019   2.477  40.578 -0.4013  0.3854 -1.1846
 7150TIP3   OH242940   2.046   3.397  26.214 -0.2629 -0.3076  0.0628
 7150TIP3    H142941   1.964   3.447  26.220  1.7945  3.4441 -0.3000
 7150TIP3    H242942   2.057   3.359  26.301 -2.2679 -0.8005  0.1554
 7151TIP3   OH242943   3.895   2.696   1.447  0.0917 -0.2617 -0.1564
 7151TIP3    H142944   3.831   2.697   1.375  0.2596 -0.7310 -0.3182
 7151TIP3    H242945   3.862   2.760   1.510 -0.4430 -0.3727 -0.3211
 7152TIP3   OH242946   0.329   3.171  42.655  0.0418 -0.0647 -0.1726
 7152TIP3    H142947   0.250   3.204  42.612  0.8429  1.9754 -0.1770
 7152TIP3    H242948   0.336   3.223  42.735  0.5116 -1.3755  0.6780
 7153TIP3   OH242949   1.364   3.114  37.904 -0.4566 -0.4591  0.0923
 7153TIP3    H142950   1.334   3.205  37.902  0.7497 -0.0407 -0.0994
 7153TIP3    H242951   1.348   3.087  37.995  0.6819  0.5048  0.6148
 7154TIP3   OH242952   1.832   2.448  40.333 -0.1205 -0.4819  0.6366
 7154TIP3    H142953   1.902   2.395  40.295  0.5424  0.3188  0.7137
 7154TIP3    H242954   1.844   2.439  40.428 -0.4246 -0.7272  0.6549
 7155TIP3   OH242955   0.216   1.613   4.863 -0.2364 -0.3351 -0.2156
 7155TIP3    H142956   0.202   1.618   4.958 -0.6364 -0.3756 -0.2716
 7155TIP3    H242957   0.306   1.642   4.851 -0.6476  1.1112  0.0369
 7156TIP3   OH242958   1.310   2.258  32.487 -0.1402 -0.0200  0.3989
 7156TIP3    H142959   1.339   2.275  32.576 -0.5374 -0.1954  0.5683
 7156TIP3    H242960   1.214   2.261  32.492 -0.1715 -0.2983  0.0365
 7157TIP3   OH242961   1.524   3.213  11.529  0.2598  0.1276  0.3807
 7157TIP3    H142962   1.517   3.192  11.436  0.6370 -0.8972  0.5726
 7157TIP3    H242963   1.433   3.213  11.560  0.2019 -0.6518  0.2384
 7158TIP3   OH242964   0.105   1.333  33.693 -0.3280 -0.5323  0.3534
 7158TIP3    H142965   0.146   1.248  33.683 -0.9309 -0.9600  1.3799
 7158TIP3    H242966   0.035   1.333  33.627  2.2486  0.8913 -2.6635
 7159TIP3   OH242967   2.731   2.011  38.149 -0.6808 -0.0502 -0.1966
 7159TIP3    H142968   2.824   1.997  38.165 -0.2828  0.7137 -1.6324
 7159TIP3    H242969   2.695   1.923  38.134  0.3073 -0.2148 -1.9136
 7160TIP3   OH242970   2.100   2.240   3.970 -0.3902  0.2129  0.2704
 7160TIP3    H142971   2.146   2.253   4.053  0.9499  0.1935 -0.4418
 7160TIP3    H242972   2.036   2.311   3.967 -2.3543 -1.3051  2.5162
 7161TIP3   OH242973   0.330   0.862  47.580  0.9956  0.4411  0.3524
 7161TIP3    H142974   0.306   0.771  47.597 -1.6867  1.3815  2.5201
 7161TIP3    H242975   0.286   0.911  47.650  0.3114  3.6159 -2.0896
 7162TIP3   OH242976   1.341   2.932  30.839 -0.1961  0.2425  0.5215
 7162TIP3    H142977   1.436   2.925  30.836 -0.2599 -0.5694 -0.0485
 7162TIP3    H242978   1.320   2.998  30.774 -0.1692 -1.6567 -1.5522
 7163TIP3   OH242979   1.128   2.805   9.571  0.4817  0.3445  0.5683
 7163TIP3    H142980   1.094   2.792   9.482  0.8140 -3.2371  0.7983
 7163TIP3    H242981   1.211   2.850   9.558 -0.4559  1.8270 -0.6921
 7164TIP3   OH242982   3.989   2.765  32.147  0.4523 -0.7378 -0.3435
 7164TIP3    H142983   3.909   2.735  32.104  0.6834 -1.0452 -0.5607
 7164TIP3    H242984   3.992   2.714  32.228 -0.9132  1.0931  0.9301
 7165TIP3   OH242985   0.166   0.619  36.917 -0.2752  0.0550  0.0778
 7165TIP3    H142986   0.258   0.644  36.925 -0.0363 -0.6824 -0.2216
 7165TIP3    H242987   0.118   0.683  36.969  0.2392  1.4686 -1.1329
 7166TIP3   OH242988   0.092   3.636  26.344 -0.1414  0.7915  0.2977
 7166TIP3    H142989   0.136   3.702  26.397  0.8591  0.0785  0.3803
 7166TIP3    H242990   0.070   3.566  26.405  3.3100 -1.2318 -0.4961
 7167TIP3   OH242991   0.089   3.183  43.891 -0.5145  1.0949 -0.7454
 7167TIP3    H142992   0.135   3.263  43.919 -0.8359  1.2887 -0.7702
 7167TIP3    H242993   0.141   3.151  43.817 -0.1778  1.0814 -0.5106
 7168TIP3   OH242994   3.911   0.067  11.403 -0.4091 -0.2279  0.7486
 7168TIP3    H142995   3.930   0.005  11.333 -1.7454  0.5509 -0.3497
 7168TIP3    H242996   3.826   0.105  11.380 -0.2952  0.9789  2.1334
 7169TIP3   OH242997   0.406   0.420   9.248  0.0863  0.3591  0.2313
 7169TIP3    H142998   0.344   0.381   9.186  1.0837  0.5688 -0.9189
 7169TIP3    H242999   0.413   0.511   9.221  1.3902  0.1898 -0.0696
 7170TIP3   OH243000   2.325   4.090  35.459 -0.7891  0.4806 -1.0040
 7170TIP3    H143001   2.248   4.055  35.416 -0.0043 -0.8802 -1.3566
 7170TIP3    H243002   2.380   4.123  35.388 -1.0175  1.4538 -0.7552
 7171TIP3   OH243003   0.558   2.170  11.436  0.1364  0.1152  0.9215
 7171TIP3    H143004   0.633   2.120  11.404  0.1015 -1.0066  2.4611
 7171TIP3    H243005   0.587   2.208  11.518 -0.5025  0.9688  0.7699
 7172TIP3   OH243006   0.845   3.400   6.377  0.8093 -0.2667 -0.2743
 7172TIP3    H143007   0.932   3.431   6.402  0.5032 -0.0694  0.5697
 7172TIP3    H243008   0.841   3.310   6.411  1.3012 -0.8974 -1.7977
 7173TIP3   OH243009   3.272   1.055   7.897  0.3992  0.4795  0.0543
 7173TIP3    H143010   3.195   1.093   7.854 -0.5930 -0.3477  1.0452
 7173TIP3    H243011   3.246   0.966   7.920  1.6944  0.1451  0.3214
 7174TIP3   OH243012   1.910   0.029  26.975  0.4814  0.5577  0.8000
 7174TIP3    H143013   1.864   0.113  26.970 -1.7245 -0.5606  1.2391
 7174TIP3    H243014   1.936   0.022  27.067  2.2854  1.4906  0.4289
 7175TIP3   OH243015   1.251   3.117  42.572 -0.2474  0.1836 -0.0679
 7175TIP3    H143016   1.225   3.201  42.610 -0.2801 -0.6183  1.8049
 7175TIP3    H243017   1.298   3.072  42.642  0.7821 -0.9207 -1.3946
 7176TIP3   OH243018   2.259   1.765   1.996 -0.1599 -0.0443 -0.0757
 7176TIP3    H143019   2.205   1.834   2.033 -1.1608 -0.4500 -0.7264
 7176TIP3    H243020   2.202   1.721   1.932  0.5174 -1.3131  0.1506
 7177TIP3   OH243021   1.804   3.630   9.456 -0.0953 -0.4205 -0.1406
 7177TIP3    H143022   1.758   3.712   9.437  0.6819  0.0588  0.0017
 7177TIP3    H243023   1.873   3.625   9.390  1.4489  0.3311  1.3164
 7178TIP3   OH243024   3.394   1.322  21.529  0.3914 -0.5956 -0.4319
 7178TIP3    H143025   3.354   1.323  21.442  2.8481 -0.5479 -1.6459
 7178TIP3    H243026   3.336   1.268  21.581 -1.2511 -0.4957 -2.0456
 7179TIP3   OH243027   2.118   1.312  21.223 -0.1863  0.0319  0.2279
 7179TIP3    H143028   2.055   1.368  21.178  0.6642  1.1058  0.3273
 7179TIP3    H243029   2.163   1.264  21.153  1.1468  1.7086 -0.1398
 7180TIP3   OH243030   3.810   0.997  47.704 -0.0454 -0.1181 -0.1402
 7180TIP3    H143031   3.815   0.910  47.744 -0.7236 -0.8268 -1.5233
 7180TIP3    H243032   3.794   1.056  47.778 -1.1185 -1.3533  0.6682
 7181TIP3   OH243033   2.266   0.947  32.007  0.7045  0.0625 -0.1475
 7181TIP3    H143034   2.180   0.973  32.040  0.7966  1.4170 -0.8612
 7181TIP3    H243035   2.262   0.966  31.913  0.9706 -2.2023 -0.6576
 7182TIP3   OH243036   3.234   2.193  34.948 -0.1939 -0.0967  0.1877
 7182TIP3    H143037   3.315   2.174  34.901 -0.3734  0.3398 -0.3126
 7182TIP3    H243038   3.226   2.122  35.012  0.1342 -0.6254 -0.3457
 7183TIP3   OH243039   2.178   4.078   8.057  0.7253  0.5263 -0.0415
 7183TIP3    H143040   2.142   4.082   8.146 -0.6714 -0.4678 -0.5313
 7183TIP3    H243041   2.123   4.138   8.007 -0.6883 -1.4218 -0.9231
 7184TIP3   OH243042   1.963   2.047  19.506 -0.9021  0.1594 -0.2695
 7184TIP3    H143043   1.895   2.103  19.470 -1.1616  0.2795  0.3975
 7184TIP3    H243044   1.937   2.032  19.596 -0.0251  0.2402  0.0091
 7185TIP3   OH243045   0.881   2.518  37.467  0.2746 -0.0588 -0.3867
 7185TIP3    H143046   0.939   2.526  37.542  1.5019 -1.5059 -1.1340
 7185TIP3    H243047   0.899   2.596  37.414 -1.0647  1.3097  1.0619
 7186TIP3   OH243048   0.321   1.849  45.343 -0.3584 -0.3043 -0.1581
 7186TIP3    H143049   0.339   1.760  45.374  0.4818  0.1474  0.7121
 7186TIP3    H243050   0.236   1.843  45.299  0.6602 -1.9644 -2.0176
 7187TIP3   OH243051   2.129   2.592  46.647 -0.2490 -0.1184  0.3697
 7187TIP3    H143052   2.182   2.523  46.607  1.4410  0.4587  1.4778
 7187TIP3    H243053   2.069   2.545  46.705  0.8325 -0.6934  1.0644
 7188TIP3   OH243054   1.934   0.077   5.381  0.3778 -0.3860 -0.0174
 7188TIP3    H143055   1.985   0.046   5.455  0.6533  2.4521  1.1139
 7188TIP3    H243056   1.997   0.126   5.328 -0.2676 -0.5989 -1.0028
 7189TIP3   OH243057   2.629   3.759   2.970  0.6828 -0.3285 -0.2357
 7189TIP3    H143058   2.617   3.783   2.878 -2.5943 -0.0914  0.1504
 7189TIP3    H243059   2.546   3.781   3.012  1.9537 -0.7644  2.7421
 7190TIP3   OH243060   2.705   2.816  38.343  0.1062  0.0669 -0.6067
 7190TIP3    H143061   2.677   2.724  38.348  0.6558 -0.2831 -2.9307
 7190TIP3    H243062   2.627   2.862  38.311 -0.0630  0.3720  0.2248
 7191TIP3   OH243063   3.296   3.441  44.636 -0.1364  0.0046  0.2880
 7191TIP3    H143064   3.256   3.356  44.650  0.0924 -0.0717  0.4907
 7191TIP3    H243065   3.314   3.474  44.724  0.9511 -0.3071  0.2046
 7192TIP3   OH243066   3.113   1.395   8.618  0.4190  0.3020 -0.3885
 7192TIP3    H143067   3.095   1.345   8.538 -0.8752  0.0867  0.0074
 7192TIP3    H243068   3.027   1.408   8.657  1.1817 -2.0929  2.4596
 7193TIP3   OH243069   2.018   2.967   1.051 -0.1291  0.1018  0.2572
 7193TIP3    H143070   1.959   3.020   1.105 -1.3786 -1.8647  0.9454
 7193TIP3    H243071   2.018   2.881   1.094 -2.4145 -2.0914 -3.5421
 7194TIP3   OH243072   2.267   1.661  45.852  0.1909  0.3819  1.2584
 7194TIP3    H143073   2.281   1.569  45.874  0.3639 -0.0663 -0.5323
 7194TIP3    H243074   2.348   1.688  45.809 -0.7851  0.5464 -0.6178
 7195TIP3   OH243075   1.351   2.243   3.915 -0.3334  0.1233  0.3504
 7195TIP3    H143076   1.423   2.180   3.918  0.3822  0.9043  0.1651
 7195TIP3    H243077   1.381   2.316   3.971 -1.4411  0.0045  1.1387
 7196TIP3   OH243078   0.245   0.481  37.855 -0.0457 -0.2981  0.3363
 7196TIP3    H143079   0.323   0.513  37.810 -0.8433  0.5737 -0.4553
 7196TIP3    H243080   0.257   0.510  37.946  0.2591  0.3869  0.0870
 7197TIP3   OH243081   0.800   1.519  42.008  0.1311  0.3373  0.1072
 7197TIP3    H143082   0.726   1.520  41.947 -0.4999 -1.5087  0.7801
 7197TIP3    H243083   0.783   1.591  42.068  0.6014  1.9995 -1.6730
 7198TIP3   OH243084   0.346   2.761   1.682  0.2283 -0.1850 -0.1865
 7198TIP3    H143085   0.363   2.739   1.591 -0.7643 -1.1793 -0.1519
 7198TIP3    H243086   0.251   2.774   1.686 -0.0768 -2.4229  1.1559
 7199TIP3   OH243087   1.218   3.728  28.962 -0.2797  0.4677  0.2181
 7199TIP3    H143088   1.255   3.640  28.971 -0.5982  0.4745  2.0952
 7199TIP3    H243089   1.123   3.714  28.965 -0.3871  1.0124  3.7475
 7200TIP3   OH243090   3.919   1.928   2.543 -0.0936 -0.5408  0.0831
 7200TIP3    H143091   3.870   2.003   2.576 -1.3381 -0.9618 -0.7436
 7200TIP3    H243092   3.955   1.887   2.622 -0.7032  0.0411  0.6782
 7201TIP3   OH243093   1.256   2.233  41.729 -0.1049  0.4429  0.2868
 7201TIP3    H143094   1.303   2.174  41.670 -1.9164 -0.3928 -0.4080
 7201TIP3    H243095   1.290   2.320  41.709  0.6535 -0.0532 -0.6538
 7202TIP3   OH243096   2.777   1.269  12.491  0.1981 -0.0094 -0.4082
 7202TIP3    H143097   2.873   1.262  12.492  0.2200 -0.3083 -1.9818
 7202TIP3    H243098   2.760   1.363  12.493  0.5816  0.0968 -1.5351
 7203TIP3   OH243099   3.654   3.525  14.841  0.0754  0.4734 -0.4860
 7203TIP3    H143100   3.625   3.453  14.897 -0.1614  1.1215  0.2253
 7203TIP3    H243101   3.741   3.497  14.810 -0.5681 -0.7253 -1.3149
 7204TIP3   OH243102   0.706   0.009  25.939 -0.2654  0.0987  1.0213
 7204TIP3    H143103   0.659  -0.003  25.856 -1.0985 -1.4576  1.6701
 7204TIP3    H243104   0.798   0.018  25.913 -0.6549  1.0244 -0.1378
 7205TIP3   OH243105   1.454   1.051  32.770 -0.0450 -0.5378 -0.2724
 7205TIP3    H143106   1.417   0.970  32.734 -0.8220 -0.0605 -0.5708
 7205TIP3    H243107   1.501   1.090  32.696 -0.5649 -0.1930 -0.4219
 7206TIP3   OH243108   1.093   0.605  43.937  0.4248  0.1907 -0.5860
 7206TIP3    H143109   1.051   0.520  43.921  1.5463 -0.5612  0.3069
 7206TIP3    H243110   1.023   0.669  43.921 -0.3401 -0.8627 -1.6406
 7207TIP3   OH243111   3.627   3.949  40.187 -0.0431 -0.2601  0.0404
 7207TIP3    H143112   3.650   3.932  40.095 -0.4537  0.3551 -0.1801
 7207TIP3    H243113   3.560   4.017  40.183 -0.1144 -0.2793  0.7962
 7208TIP3   OH243114   0.285   1.502   1.875  0.1499  0.8833  0.4604
 7208TIP3    H143115   0.236   1.553   1.940  0.3822  2.1259 -0.3150
 7208TIP3    H243116   0.234   1.509   1.795  0.5944  0.5444  0.1436
 7209TIP3   OH243117   1.601   3.770  36.066 -0.2175 -0.2698 -0.5645
 7209TIP3    H143118   1.544   3.846  36.067  0.6756  0.4555 -1.6510
 7209TIP3    H243119   1.659   3.782  36.142 -0.7122 -0.3840 -0.1652
 7210TIP3   OH243120   2.368   0.630  45.982 -0.0858 -0.3111  0.3547
 7210TIP3    H143121   2.416   0.647  45.901 -0.4971 -1.1192 -0.0707
 7210TIP3    H243122   2.280   0.662  45.964 -0.0097  0.1037  0.7199
 7211TIP3   OH243123   3.829   0.692  35.229  0.1103  0.4349 -0.2303
 7211TIP3    H143124   3.838   0.730  35.316  0.8071  1.7783 -0.8620
 7211TIP3    H243125   3.891   0.741  35.174  0.2364 -0.8774 -1.3311
 7212TIP3   OH243126   4.049   3.951   1.345  0.5003  0.0501 -0.1917
 7212TIP3    H143127   4.128   4.005   1.334  1.9008 -2.0938 -1.4496
 7212TIP3    H243128   4.078   3.877   1.399 -0.8079 -0.4802 -0.1723
 7213TIP3   OH243129   0.379   3.440  36.866 -0.8222 -0.2096  0.4901
 7213TIP3    H143130   0.412   3.364  36.818 -0.4966  1.6743 -2.5529
 7213TIP3    H243131   0.454   3.471  36.916 -0.1082 -0.2866 -0.4911
 7214TIP3   OH243132   3.298   2.359  37.856 -0.1014  0.7704  0.2071
 7214TIP3    H143133   3.266   2.272  37.878  0.8069 -0.3580 -2.5826
 7214TIP3    H243134   3.219   2.414  37.856 -0.9851 -0.4708  0.0377
 7215TIP3   OH243135   3.403   2.217   8.426 -0.3717  0.0840 -0.0975
 7215TIP3    H143136   3.342   2.196   8.497 -0.4687 -1.0212 -0.4938
 7215TIP3    H243137   3.452   2.135   8.411 -0.5352  0.2151 -1.4814
 7216TIP3   OH243138   0.686   1.426  39.909  0.0953 -0.1471 -0.3345
 7216TIP3    H143139   0.752   1.459  39.848  0.1890 -0.1056 -0.2102
 7216TIP3    H243140   0.614   1.490  39.904 -0.4173 -0.7771 -1.3039
 7217TIP3   OH243141   0.495   1.045   3.773  0.4508  0.2024  0.0140
 7217TIP3    H143142   0.426   0.981   3.789  0.1458  0.5397  0.0430
 7217TIP3    H243143   0.521   1.029   3.682  1.6455 -1.1892  0.5452
 7218TIP3   OH243144   2.998   4.069  44.598 -0.0653  0.1664  0.2170
 7218TIP3    H143145   3.085   4.104  44.620  0.3029 -0.2240 -0.5875
 7218TIP3    H243146   2.955   4.057  44.683  0.1439  1.6683  0.5646
 7219TIP3   OH243147   3.891   1.094  41.125  0.1582 -0.8034  0.1421
 7219TIP3    H143148   3.881   1.034  41.199 -0.3193 -1.2189 -0.2571
 7219TIP3    H243149   3.932   1.172  41.163  1.1727 -1.5290  0.5964
 7220TIP3   OH243150   0.912   0.274  36.915  0.9971  0.5382  0.2605
 7220TIP3    H143151   0.862   0.193  36.922  1.0853  0.4330 -0.3282
 7220TIP3    H243152   0.987   0.252  36.861 -0.1008  1.5349 -1.7687
 7221TIP3   OH243153   1.046   3.496   8.791  0.2214  0.1140 -1.0079
 7221TIP3    H143154   1.129   3.539   8.811  0.2690  0.3097 -1.6237
 7221TIP3    H243155   0.986   3.567   8.770 -0.0182 -0.0484 -0.8837
 7222TIP3   OH243156   1.911   0.300   2.461 -0.1897 -0.0577  0.4212
 7222TIP3    H143157   1.816   0.292   2.452  0.1193 -1.9447 -2.2545
 7222TIP3    H243158   1.933   0.240   2.532 -0.8782 -0.5001  0.2718
 7223TIP3   OH243159   3.507   2.608  31.781  0.1164  0.9910 -0.3674
 7223TIP3    H143160   3.458   2.534  31.818  0.5542  1.0452  0.3483
 7223TIP3    H243161   3.452   2.684  31.798  0.9700  1.2356  1.5838
 7224TIP3   OH243162   2.987   2.832  11.820  0.4301  0.1917 -0.5966
 7224TIP3    H143163   2.942   2.833  11.735  1.3074  0.6936 -1.0684
 7224TIP3    H243164   3.070   2.787  11.802  1.3096  1.6811 -0.3771
 7225TIP3   OH243165   1.439   0.892   4.440  0.4728  0.2177  0.0416
 7225TIP3    H143166   1.512   0.869   4.497  0.0979 -0.3027  0.3220
 7225TIP3    H243167   1.400   0.969   4.482  1.9406  1.6603 -1.0895
 7226TIP3   OH243168   2.920   0.115   8.370 -0.2120 -0.5953 -0.4822
 7226TIP3    H143169   2.881   0.199   8.394 -0.6549 -0.8416 -0.3233
 7226TIP3    H243170   2.925   0.117   8.274 -1.6742 -0.9988 -0.6035
 7227TIP3   OH243171   2.663   1.536   9.637 -0.2367 -0.2850  0.1904
 7227TIP3    H143172   2.688   1.569   9.723  0.7566 -0.8647  0.1462
 7227TIP3    H243173   2.647   1.615   9.584  0.5785  0.1022  0.5056
 7228TIP3   OH243174   0.352   1.475  39.632 -0.1761  0.2049 -0.3885
 7228TIP3    H143175   0.369   1.387  39.601  2.0474 -0.5378  2.4356
 7228TIP3    H243176   0.334   1.526  39.553 -1.7046 -2.7157 -2.1056
 7229TIP3   OH243177   2.019   1.683   7.161  0.0502 -0.1284 -0.6013
 7229TIP3    H143178   1.943   1.725   7.121  0.7875  0.9538 -0.9160
 7229TIP3    H243179   2.094   1.717   7.112  0.9912  1.1606  1.5640
 7230TIP3   OH243180   3.684   1.252  47.543  0.4365 -0.0372  1.0984
 7230TIP3    H143181   3.676   1.158  47.526  0.8800 -0.3315  2.4115
 7230TIP3    H243182   3.779   1.267  47.548  0.3511  0.3453  1.5968
 7231TIP3   OH243183   2.034   3.005   3.225 -0.2611 -0.1575  0.1825
 7231TIP3    H143184   1.985   3.033   3.147  0.4543  0.6102  0.0017
 7231TIP3    H243185   2.111   3.061   3.227  0.0837 -0.6404  1.0653
 7232TIP3   OH243186   4.030   1.331  35.626  0.0335 -0.0831 -0.0667
 7232TIP3    H143187   4.003   1.343  35.535 -1.0576 -0.0284  0.2556
 7232TIP3    H243188   4.025   1.237  35.641  2.1357 -0.3451 -0.6218
 7233TIP3   OH243189   2.610   1.593   6.769  0.5940 -0.7507 -0.3653
 7233TIP3    H143190   2.579   1.578   6.680  0.7616  0.5123 -0.6532
 7233TIP3    H243191   2.531   1.619   6.817  0.9547  1.4554 -0.8593
 7234TIP3   OH243192   3.477   1.191  39.930  0.8251  0.1605  0.2673
 7234TIP3    H143193   3.521   1.247  39.865  0.8208 -0.5339 -0.3471
 7234TIP3    H243194   3.494   1.102  39.900 -0.3769 -0.1390  0.4406
 7235TIP3   OH243195   1.396   3.898  46.431  0.0869 -0.4638 -0.2743
 7235TIP3    H143196   1.314   3.854  46.409 -0.1873  0.6148 -1.5920
 7235TIP3    H243197   1.382   3.934  46.518 -0.7081 -0.5986 -0.3358
 7236TIP3   OH243198   3.707   1.436  39.044  0.4884  0.0991 -0.3576
 7236TIP3    H143199   3.690   1.344  39.062 -0.8859  0.4247  0.0971
 7236TIP3    H243200   3.623   1.480  39.059  0.9019  1.3066 -1.3774
 7237TIP3   OH243201   2.585   1.220  34.475  0.4434  0.1983 -0.5087
 7237TIP3    H143202   2.627   1.223  34.389 -1.5896 -4.3737 -1.9644
 7237TIP3    H243203   2.494   1.244  34.458 -0.1031 -1.2566  0.1653
 7238TIP3   OH243204   2.408   1.948   5.183  0.3148  0.0941  0.0257
 7238TIP3    H143205   2.418   2.000   5.262 -0.4320  1.0627 -0.4976
 7238TIP3    H243206   2.393   2.012   5.114 -0.9929 -0.8125 -0.5728
 7239TIP3   OH243207   2.230   1.786  22.153 -0.2902  0.5490 -0.1681
 7239TIP3    H143208   2.163   1.797  22.220  2.4209 -0.5107  3.0266
 7239TIP3    H243209   2.242   1.691  22.147  0.8161  0.7061 -0.7118
 7240TIP3   OH243210   0.724   2.866  42.189 -0.0398  0.3345 -0.5535
 7240TIP3    H143211   0.795   2.850  42.126 -1.1049 -3.9221 -0.9362
 7240TIP3    H243212   0.767   2.913  42.261  2.6163 -0.0498 -1.7522
 7241TIP3   OH243213   2.796   0.271   1.604  0.5338  0.2638 -0.1068
 7241TIP3    H143214   2.862   0.339   1.596  0.3943  0.5670  1.1318
 7241TIP3    H243215   2.840   0.200   1.650  0.9176 -0.8627 -2.0663
 7242TIP3   OH243216   0.316   1.017  34.818  0.7305 -0.1246  0.1989
 7242TIP3    H143217   0.255   1.014  34.892  1.5069  1.9459  1.0199
 7242TIP3    H243218   0.310   0.931  34.777  0.2449 -1.3243  2.6430
 7243TIP3   OH243219   1.963   2.760   7.801  0.4875 -0.2364 -0.0576
 7243TIP3    H143220   1.953   2.677   7.847  0.3502 -0.9868 -1.4045
 7243TIP3    H243221   1.893   2.815   7.836 -0.4525 -1.2361 -0.3125
 7244TIP3   OH243222   2.605   0.959  44.417  0.1867 -0.3128 -0.4059
 7244TIP3    H143223   2.574   1.011  44.343  1.1229 -0.9595 -1.2942
 7244TIP3    H243224   2.659   0.891  44.377  0.1854 -1.0744  0.8387
 7245TIP3   OH243225   3.906   3.739  40.741  0.0394 -0.2257  0.2607
 7245TIP3    H143226   3.835   3.775  40.687  1.1268  0.1171 -0.9840
 7245TIP3    H243227   3.902   3.645  40.724 -1.0142 -0.4076  1.3378
 7246TIP3   OH243228   3.840   3.581  26.265 -0.7657 -0.2585 -0.2441
 7246TIP3    H143229   3.904   3.537  26.320  0.5514  0.2488 -1.3204
 7246TIP3    H243230   3.837   3.530  26.185 -1.0166  0.2484 -0.5652
 7247TIP3   OH243231   2.701   3.073  29.274 -0.2374  0.7474 -0.2034
 7247TIP3    H143232   2.623   3.101  29.323  0.5325  2.1246  0.2961
 7247TIP3    H243233   2.772   3.076  29.339  0.0439 -1.8686 -0.2698
 7248TIP3   OH243234   2.208   1.355  46.164  0.0934  0.3602 -0.1482
 7248TIP3    H143235   2.249   1.274  46.134 -2.3326 -0.6214 -0.9753
 7248TIP3    H243236   2.203   1.345  46.260 -0.5354 -0.6625 -0.2734
 7249TIP3   OH243237   3.929   1.269   9.644 -0.3088  0.0109  0.9526
 7249TIP3    H143238   4.021   1.263   9.670 -0.5128 -0.0996  1.6908
 7249TIP3    H243239   3.890   1.327   9.710 -0.5418  0.9507  0.0154
 7250TIP3   OH243240   2.443   0.193  35.638 -0.1787  0.1104 -0.3401
 7250TIP3    H143241   2.408   0.127  35.579  0.3107  1.2917 -2.0213
 7250TIP3    H243242   2.420   0.161  35.726 -1.7274 -1.2453 -1.1774
 7251TIP3   OH243243   1.293   3.683   4.691 -0.2376 -0.0138 -0.0920
 7251TIP3    H143244   1.314   3.774   4.713 -2.2183  0.1745  1.3687
 7251TIP3    H243245   1.318   3.633   4.769  0.5106 -0.6827 -0.7478
 7252TIP3   OH243246   4.000   2.758  36.208 -0.5239 -0.3562 -0.1988
 7252TIP3    H143247   3.997   2.834  36.266  0.8536 -0.6796  0.3347
 7252TIP3    H243248   3.935   2.777  36.140 -0.2126  1.3003 -0.0836
 7253TIP3   OH243249   0.629   1.828  44.236  0.2364 -0.9126 -0.3853
 7253TIP3    H143250   0.560   1.894  44.235 -1.0699 -2.2173 -0.1305
 7253TIP3    H243251   0.661   1.829  44.326  2.2978  1.3535 -1.0327
 7254TIP3   OH243252   2.604   2.665  44.600 -0.0417 -0.4706 -0.0533
 7254TIP3    H143253   2.523   2.628  44.636  0.8418 -2.9181 -0.4209
 7254TIP3    H243254   2.658   2.684  44.676 -0.1650 -0.7756  0.1106
 7255TIP3   OH243255   0.489   3.058  36.663 -0.0170  0.0070 -0.1318
 7255TIP3    H143256   0.505   2.964  36.657 -0.4421 -0.0463 -0.5290
 7255TIP3    H243257   0.439   3.079  36.584 -0.3976  0.4667  0.2201
 7256TIP3   OH243258   3.177   3.489  37.509  0.1200 -0.0065 -0.7344
 7256TIP3    H143259   3.094   3.533  37.490 -0.3108  0.0274  0.9862
 7256TIP3    H243260   3.195   3.512  37.600  2.0294 -0.0333 -1.0804
 7257TIP3   OH243261   4.001   2.790  44.595  0.2171 -0.1212  0.1773
 7257TIP3    H143262   4.061   2.841  44.649  0.7271 -0.4032 -0.1184
 7257TIP3    H243263   4.056   2.753  44.526 -0.5510  0.9471 -1.0679
 7258TIP3   OH243264   0.361   3.830  33.166 -0.3931  0.2057 -0.0667
 7258TIP3    H143265   0.390   3.757  33.221 -1.3357  0.5221  0.8930
 7258TIP3    H243266   0.440   3.882  33.152  0.2285 -0.8300 -0.5181
 7259TIP3   OH243267   0.934   3.256  43.149  0.4802 -0.2724 -0.0171
 7259TIP3    H143268   0.930   3.207  43.232 -0.3550 -0.0148  0.1040
 7259TIP3    H243269   0.896   3.196  43.085  1.1390 -0.4761 -0.2236
 7260TIP3   OH243270   3.166   0.506  15.818  0.5696 -0.1169  0.4469
 7260TIP3    H143271   3.179   0.595  15.784  1.1575 -0.4896 -0.3279
 7260TIP3    H243272   3.122   0.519  15.902  0.3673  0.8930  0.1981
 7261TIP3   OH243273   3.944   3.281  41.827  0.4738 -0.2638 -0.3265
 7261TIP3    H143274   4.011   3.340  41.861 -0.9368  1.4336 -0.3528
 7261TIP3    H243275   3.861   3.317  41.860 -0.5199 -1.7024 -1.1247
 7262TIP3   OH243276   3.904   2.487  46.795  0.2537  0.2437 -0.0983
 7262TIP3    H143277   3.912   2.395  46.770  2.1584  0.3260  0.0866
 7262TIP3    H243278   3.895   2.486  46.890 -0.1344  0.2513 -0.1296
 7263TIP3   OH243279   2.826   1.343   6.861  0.4410  0.2097 -0.3566
 7263TIP3    H143280   2.895   1.277   6.870  0.3988  0.3349  1.1261
 7263TIP3    H243281   2.841   1.403   6.934  0.0534  1.4653 -1.2797
 7264TIP3   OH243282   3.936   3.504  36.741 -0.1984  0.5396  0.3692
 7264TIP3    H143283   3.911   3.591  36.711  0.1915  0.1796 -1.0401
 7264TIP3    H243284   4.029   3.513  36.763  0.4989 -0.0598 -2.0656
 7265TIP3   OH243285   2.031   3.814   5.773 -0.0064 -0.7125 -0.0080
 7265TIP3    H143286   2.000   3.829   5.684  0.8886 -0.0719 -0.2263
 7265TIP3    H243287   2.087   3.737   5.766  2.6090  1.0924 -0.6788
 7266TIP3   OH243288   2.830   3.520  30.068  0.4124  0.4823 -0.0693
 7266TIP3    H143289   2.768   3.566  30.124  0.1720 -0.0516  0.1076
 7266TIP3    H243290   2.911   3.571  30.074  0.2852  0.6218  0.4867
 7267TIP3   OH243291   0.217   0.396  44.710 -0.4701  0.7431 -0.3130
 7267TIP3    H143292   0.127   0.424  44.692  0.0065  1.8250 -1.1262
 7267TIP3    H243293   0.267   0.477  44.716  0.5228  0.1436 -0.2324
 7268TIP3   OH243294   2.037   0.725  12.699 -0.7335 -0.4040 -0.4461
 7268TIP3    H143295   2.001   0.756  12.616 -0.9734 -1.9733 -0.9492
 7268TIP3    H243296   2.036   0.630  12.692 -1.6130 -0.5998  1.7218
 7269TIP3   OH243297   3.485   3.516  37.970 -0.1746  0.4087 -0.1735
 7269TIP3    H143298   3.460   3.440  37.917  0.5941  0.5492 -0.7549
 7269TIP3    H243299   3.402   3.559  37.992 -0.7423 -1.2500  1.1891
 7270TIP3   OH243300   3.041   0.121  43.139  0.1437 -0.2230  0.2414
 7270TIP3    H143301   3.108   0.170  43.092 -1.1068 -0.1332 -1.5331
 7270TIP3    H243302   2.970   0.184  43.153 -0.6096 -0.9588 -0.1783
 7271TIP3   OH243303   0.868   0.813  43.782  0.1008  0.1301  0.0068
 7271TIP3    H143304   0.824   0.736  43.818 -2.4886  0.1786 -2.6329
 7271TIP3    H243305   0.808   0.886  43.800  1.2658  1.0596  0.2143
 7272TIP3   OH243306   2.140   2.692  34.326 -0.1869  0.0675 -0.1302
 7272TIP3    H143307   2.070   2.733  34.376 -1.9315  0.4874 -2.7301
 7272TIP3    H243308   2.200   2.764  34.306  0.3347 -0.0357  0.9932
 7273TIP3   OH243309   3.878   0.265  45.019  0.1718 -0.3204  0.0193
 7273TIP3    H143310   3.958   0.224  45.054  0.0184 -2.7069 -2.1244
 7273TIP3    H243311   3.809   0.200  45.034 -0.5303 -0.0147 -1.6410
 7274TIP3   OH243312   1.698   2.505  31.236  0.0815 -0.2521 -0.0005
 7274TIP3    H143313   1.713   2.500  31.142  2.1185 -0.4662  0.2829
 7274TIP3    H243314   1.635   2.576  31.247  0.3861  0.2769 -1.4645
 7275TIP3   OH243315   2.550   1.044  45.122 -0.0663 -0.0007 -0.4566
 7275TIP3    H143316   2.533   1.012  45.211  0.6791  0.8694  0.0241
 7275TIP3    H243317   2.543   0.966  45.067  0.1895 -0.6989  0.4684
 7276TIP3   OH243318   3.071   3.158   3.337 -0.5384 -0.4277  0.2309
 7276TIP3    H143319   3.134   3.087   3.324 -1.6223 -1.3365 -0.2329
 7276TIP3    H243320   3.106   3.208   3.412  1.7637  0.3033 -1.2263
 7277TIP3   OH243321   2.134   2.441  34.166  0.4939  0.2259  0.3639
 7277TIP3    H143322   2.143   2.534  34.187  2.1139 -0.2616  2.1481
 7277TIP3    H243323   2.137   2.437  34.071  0.2216  2.0004  0.2488
 7278TIP3   OH243324   3.676   1.509  35.718  0.2886  0.0109 -0.4972
 7278TIP3    H143325   3.646   1.540  35.803  0.9693  0.1580 -0.3083
 7278TIP3    H243326   3.688   1.589  35.666  0.4092 -0.0435 -0.5531
 7279TIP3   OH243327   2.517   1.556  22.249  0.0457 -0.5913  0.0505
 7279TIP3    H143328   2.454   1.540  22.179 -0.6539 -1.3741  0.8406
 7279TIP3    H243329   2.600   1.574  22.204 -0.6001 -0.1560 -0.9835
 7280TIP3   OH243330   2.920   0.137  40.896 -0.4375 -0.3294 -0.4623
 7280TIP3    H143331   2.909   0.183  40.979  0.4111 -0.3335 -0.3353
 7280TIP3    H243332   2.840   0.155  40.847 -1.2644 -0.9059  0.6335
 7281TIP3   OH243333   1.254   0.270  10.794 -0.1146  0.3211  0.2884
 7281TIP3    H143334   1.213   0.184  10.784  0.6865  0.0246 -0.5704
 7281TIP3    H243335   1.345   0.256  10.771  0.0101  1.4237  0.0634
 7282TIP3   OH243336   1.466   1.962  33.531  0.8960  0.0891  0.2038
 7282TIP3    H143337   1.448   2.051  33.563  0.0599 -0.9268  2.8206
 7282TIP3    H243338   1.488   1.913  33.610  1.2441 -2.0765 -1.1740
 7283TIP3   OH243339   2.114   0.479  34.629 -0.2279 -0.2544 -0.8522
 7283TIP3    H143340   2.023   0.484  34.659  0.0402 -1.4345  0.2358
 7283TIP3    H243341   2.133   0.386  34.626  0.9072 -0.0209 -1.2121
 7284TIP3   OH243342   0.083   0.585  36.654  0.1330  0.1675 -0.0499
 7284TIP3    H143343   0.155   0.597  36.716  0.8827 -2.1320 -0.3518
 7284TIP3    H243344   0.005   0.581  36.709  0.4841  0.7282  0.4909
 7285TIP3   OH243345   3.429   0.029  29.948 -0.0725  0.6332  0.0685
 7285TIP3    H143346   3.415   0.054  29.856  1.2919 -0.4513 -0.4677
 7285TIP3    H243347   3.518   0.058  29.967  0.7481 -1.6943  0.1083
 7286TIP3   OH243348   1.576   2.529  37.969  0.1851 -0.0751  0.3491
 7286TIP3    H143349   1.583   2.539  37.874  1.5725 -1.6049  0.2489
 7286TIP3    H243350   1.505   2.466  37.981  1.7857 -2.0353  0.1142
 7287TIP3   OH243351   3.307   1.005  44.128 -0.8352 -0.1271  0.5424
 7287TIP3    H143352   3.323   1.004  44.223 -3.3685  0.5716  1.0648
 7287TIP3    H243353   3.348   1.087  44.098  1.7301 -1.2991  0.5878
 7288TIP3   OH243354   2.332   0.585  15.615 -0.2069 -0.4849 -0.3117
 7288TIP3    H143355   2.339   0.652  15.546 -1.0583  0.7607  0.7609
 7288TIP3    H243356   2.360   0.504  15.572 -0.0167  0.3803 -1.9196
 7289TIP3   OH243357   3.312   2.340  41.944 -0.0652  0.2901 -0.0299
 7289TIP3    H143358   3.312   2.433  41.921  0.0816 -0.0958 -1.7414
 7289TIP3    H243359   3.405   2.316  41.944 -0.1659 -0.1735 -1.1225
 7290TIP3   OH243360   1.556   1.118  10.732  0.2320 -0.0335  0.3077
 7290TIP3    H143361   1.566   1.081  10.644  0.2413  0.2310  0.1951
 7290TIP3    H243362   1.571   1.212  10.720  2.3166 -0.2424  0.9394
 7291TIP3   OH243363   3.123   2.224  10.246 -0.0921  0.1091 -0.2009
 7291TIP3    H143364   3.036   2.253  10.216  0.6722 -0.4238 -3.2838
 7291TIP3    H243365   3.176   2.223  10.167  2.1983 -1.6121  1.2434
 7292TIP3   OH243366   1.004   1.299  43.296 -0.4077 -0.2307 -0.4366
 7292TIP3    H143367   0.993   1.294  43.202 -1.7803 -0.7610 -0.2621
 7292TIP3    H243368   1.038   1.214  43.322  0.4951  0.0953 -0.4957
 7293TIP3   OH243369   1.944   0.299  35.400  0.0803 -0.0644  0.0406
 7293TIP3    H143370   2.036   0.315  35.422  0.0164  1.3362 -0.5908
 7293TIP3    H243371   1.895   0.332  35.475  0.0143  1.4298 -0.6269
 7294TIP3   OH243372   1.740   3.605  14.372 -0.1601  0.2822 -0.1384
 7294TIP3    H143373   1.771   3.692  14.346 -0.9971  0.5513 -0.2852
 7294TIP3    H243374   1.650   3.620  14.402  0.0250 -0.3855  0.7725
 7295TIP3   OH243375   1.068   0.375   6.576  0.2996  0.0827  0.1539
 7295TIP3    H143376   1.118   0.430   6.517  1.8462  0.2641  1.5716
 7295TIP3    H243377   1.008   0.435   6.621  0.9605  0.3890  0.6418
 7296TIP3   OH243378   2.098   3.757   4.939  0.0858 -0.0472 -0.2714
 7296TIP3    H143379   2.092   3.666   4.967  2.1642 -0.1073  0.1606
 7296TIP3    H243380   2.107   3.752   4.844 -1.7201 -0.1449 -0.4674
 7297TIP3   OH243381   2.040   1.879   6.257  0.1794  0.6453  0.2044
 7297TIP3    H143382   2.010   1.803   6.307 -1.4664  0.0685 -1.5533
 7297TIP3    H243383   2.127   1.899   6.293  0.2567 -1.4674  1.3343
 7298TIP3   OH243384   0.912   0.428  33.651 -0.0073 -0.7167 -0.5031
 7298TIP3    H143385   0.948   0.484  33.582  0.1879 -0.0051  0.1662
 7298TIP3    H243386   0.845   0.481  33.693  1.2977 -0.3429  1.2052
 7299TIP3   OH243387   3.409   1.778  33.803 -0.6165  0.4155  0.1172
 7299TIP3    H143388   3.324   1.784  33.759 -0.8951  0.5743  0.6646
 7299TIP3    H243389   3.390   1.730  33.884 -0.2183  0.6210  0.3319
 7300TIP3   OH243390   2.225   0.339  26.696 -0.4388  0.5298 -0.5409
 7300TIP3    H143391   2.134   0.334  26.665 -0.1372  0.2861 -1.4187
 7300TIP3    H243392   2.254   0.426  26.671 -0.0777  0.2008 -1.2885
 7301TIP3   OH243393   3.873   2.913  37.564  0.0435 -0.4204 -0.3466
 7301TIP3    H143394   3.807   2.975  37.593 -0.6228 -1.2860  0.0397
 7301TIP3    H243395   3.954   2.964  37.560 -0.9451  1.1068 -2.5511
 7302TIP3   OH243396   2.100   4.049  13.729 -0.3751 -0.1066 -0.1878
 7302TIP3    H143397   2.114   4.044  13.823  2.1007  1.5864 -0.3623
 7302TIP3    H243398   2.181   4.087  13.695 -2.2164  1.9457 -2.6937
 7303TIP3   OH243399   3.540   2.311  39.525  0.3320 -0.1668  0.0326
 7303TIP3    H143400   3.524   2.260  39.604 -0.2245 -0.5253 -0.3061
 7303TIP3    H243401   3.493   2.393  39.539 -1.0368 -0.8254 -0.5399
 7304TIP3   OH243402   0.828   1.357  43.756 -0.0955  0.3734  0.4503
 7304TIP3    H143403   0.852   1.429  43.698  0.1764 -0.6634 -0.7784
 7304TIP3    H243404   0.754   1.390  43.806 -2.1680  0.4578 -2.4003
 7305TIP3   OH243405   0.839   3.889   5.619  0.0626  0.8049 -0.5086
 7305TIP3    H143406   0.828   3.932   5.535  1.4256  2.3364  0.0383
 7305TIP3    H243407   0.921   3.841   5.611 -0.4648 -0.1390 -0.4568
 7306TIP3   OH243408   0.160   0.177  12.636 -0.1835 -0.0031 -0.2182
 7306TIP3    H143409   0.214   0.217  12.567  1.7448 -0.6023  0.8626
 7306TIP3    H243410   0.089   0.133  12.588  0.1930  0.9230 -1.7020
 7307TIP3   OH243411   1.445   3.840  40.819 -0.0202 -0.1631  0.3543
 7307TIP3    H143412   1.462   3.927  40.783 -0.4387 -0.4712 -0.5914
 7307TIP3    H243413   1.514   3.829  40.886  0.7491  0.4229 -0.3179
 7308TIP3   OH243414   2.626   1.836  16.372  0.2543 -0.0687  0.8184
 7308TIP3    H143415   2.704   1.783  16.359 -0.9563 -1.7795  0.0734
 7308TIP3    H243416   2.554   1.780  16.342 -1.0733  2.1783 -0.5079
 7309TIP3   OH243417   3.442   4.019  37.663 -0.0277 -0.4558  0.3676
 7309TIP3    H143418   3.477   4.026  37.752 -0.5145 -2.2914  0.7511
 7309TIP3    H243419   3.492   3.947  37.624  0.7136  0.8188 -1.1406
 7310TIP3   OH243420   0.493   0.313  44.738 -0.3110 -0.6846 -0.2733
 7310TIP3    H143421   0.504   0.223  44.769 -0.3990  0.0355  2.0261
 7310TIP3    H243422   0.399   0.328  44.738 -0.2649 -0.3632  0.1058
 7311TIP3   OH243423   2.441   1.742  45.226 -0.2703 -0.0289 -0.1189
 7311TIP3    H143424   2.485   1.827  45.226 -0.3971  0.0767 -1.7677
 7311TIP3    H243425   2.511   1.679  45.213 -0.4233  0.0234 -1.2645
 7312TIP3   OH243426   3.970   0.616  34.210  0.3232 -0.0326  0.4403
 7312TIP3    H143427   4.006   0.606  34.299 -2.4893 -3.2330  1.4286
 7312TIP3    H243428   4.008   0.544  34.161 -1.0347 -0.6421  0.2236
 7313TIP3   OH243429   1.267   1.257  46.149 -0.4803  0.0418 -0.7965
 7313TIP3    H143430   1.324   1.181  46.156 -0.7170 -0.2922 -2.3308
 7313TIP3    H243431   1.297   1.303  46.071 -1.3436  0.6836 -0.7633
 7314TIP3   OH243432   2.940   2.671  38.934 -0.2252 -0.2444 -0.8194
 7314TIP3    H143433   2.930   2.765  38.953 -0.1112 -0.3749 -0.0904
 7314TIP3    H243434   2.930   2.665  38.839  1.1148  0.6860 -1.0463
 7315TIP3   OH243435   0.901   3.387  11.954 -0.1370 -0.0863 -0.8257
 7315TIP3    H143436   0.987   3.404  11.915  0.0563 -0.2723 -0.4827
 7315TIP3    H243437   0.869   3.310  11.909 -0.2970  0.2111 -1.2279
 7316TIP3   OH243438   1.100   3.996  41.670 -0.5385  0.2905  0.4383
 7316TIP3    H143439   1.175   3.938  41.683 -1.1960 -0.7191 -0.1264
 7316TIP3    H243440   1.044   3.980  41.746 -0.9266 -0.1540  0.0646
 7317TIP3   OH243441   3.434   0.424  15.245  0.0738 -0.0521 -0.7354
 7317TIP3    H143442   3.482   0.398  15.324 -0.7177 -0.2981 -0.3226
 7317TIP3    H243443   3.410   0.515  15.261 -1.3509 -0.5181 -0.0179
 7318TIP3   OH243444   3.465   1.633   0.808  0.6271 -0.8002 -0.5125
 7318TIP3    H143445   3.393   1.687   0.842  0.3635 -1.6156  0.2698
 7318TIP3    H243446   3.531   1.634   0.877  1.0038 -0.7629 -0.8669
 7319TIP3   OH243447   2.486   3.894  39.690 -0.1046  0.1121 -0.1828
 7319TIP3    H143448   2.546   3.893  39.765  0.2182  1.3460 -0.4111
 7319TIP3    H243449   2.421   3.827  39.711 -0.2816  0.7387  1.4202
 7320TIP3   OH243450   1.428   0.274   7.908 -0.2355 -0.4562 -0.0638
 7320TIP3    H143451   1.368   0.202   7.930 -0.6590 -0.8513 -2.2867
 7320TIP3    H243452   1.515   0.236   7.918 -0.4229 -0.8558  0.1054
 7321TIP3   OH243453   1.966   1.752  19.527  0.8879 -0.3294 -0.3934
 7321TIP3    H143454   1.940   1.774  19.617 -0.1810 -0.1708 -0.7264
 7321TIP3    H243455   1.986   1.836  19.486 -0.6845 -0.1809 -0.9084
 7322TIP3   OH243456   2.059   3.068  46.631  0.1028 -0.2234 -0.4179
 7322TIP3    H143457   2.066   3.032  46.719 -0.0697 -0.8798 -0.6597
 7322TIP3    H243458   2.147   3.099  46.610 -0.0255  0.6350  0.2655
 7323TIP3   OH243459   3.265   1.549  45.527 -0.4371 -0.4734  0.6517
 7323TIP3    H143460   3.194   1.546  45.591 -2.0044 -0.4385 -0.9735
 7323TIP3    H243461   3.240   1.483  45.462  0.9207 -0.3017 -0.0769
 7324TIP3   OH243462   1.909   1.107   4.419 -0.1055 -0.0382  0.3486
 7324TIP3    H143463   1.912   1.113   4.515  1.1803  0.4071  0.2974
 7324TIP3    H243464   1.889   1.196   4.391 -2.3727 -0.5248  0.2288
 7325TIP3   OH243465   0.204   3.005  42.823  0.0844 -0.7711 -0.7193
 7325TIP3    H143466   0.114   2.989  42.795  0.1476 -0.1672 -1.2801
 7325TIP3    H243467   0.242   3.058  42.753  0.8982 -1.0785 -0.5206
 7326TIP3   OH243468   3.429   3.724   3.509 -0.1441  0.0278 -0.5625
 7326TIP3    H143469   3.370   3.763   3.574 -0.3261  0.0965 -0.7680
 7326TIP3    H243470   3.376   3.656   3.467 -0.0083 -0.0548 -0.5976
 7327TIP3   OH243471   2.434   3.663  40.130 -1.1375  0.4413  0.0869
 7327TIP3    H143472   2.474   3.730  40.075 -1.4414 -0.8972 -1.8620
 7327TIP3    H243473   2.409   3.709  40.210  0.5957  2.1625 -0.2879
 7328TIP3   OH243474   0.036   3.323  12.019  0.4825 -0.1802  0.1713
 7328TIP3    H143475   0.042   3.234  12.055  2.2377  0.0422  0.5213
 7328TIP3    H243476  -0.050   3.354  12.047 -1.2021 -2.5537 -1.8715
 7329TIP3   OH243477   2.621   3.723   6.210 -0.5683  0.3848  0.0341
 7329TIP3    H143478   2.615   3.739   6.304  1.1360  1.5478 -0.0090
 7329TIP3    H243479   2.618   3.628   6.201  0.8649  0.1624  1.4309
 7330TIP3   OH243480   1.136   1.683  46.370 -0.1477 -0.1540  0.4536
 7330TIP3    H143481   1.059   1.639  46.335  0.6526 -1.5180  0.3201
 7330TIP3    H243482   1.133   1.666  46.464 -0.2532  0.2043  0.5176
 7331TIP3   OH243483   2.518   1.815  45.850  0.5303  0.2265 -0.0173
 7331TIP3    H143484   2.548   1.870  45.778 -0.2735  0.2191 -0.3602
 7331TIP3    H243485   2.508   1.875  45.924  1.5146  0.2067  0.1490
 7332TIP3   OH243486   3.452   0.043  26.783 -0.1275  0.3080  0.4478
 7332TIP3    H143487   3.391   0.057  26.855  0.3308 -0.1679  0.9323
 7332TIP3    H243488   3.530   0.005  26.824  0.2151  0.2262 -0.2643
 7333TIP3   OH243489   1.798   0.061  27.866  0.0153 -0.3642 -0.2586
 7333TIP3    H143490   1.810   0.092  27.956 -0.5938  0.6761 -0.5128
 7333TIP3    H243491   1.868   0.104  27.816 -1.1651  1.1435 -0.7135
 7334TIP3   OH243492   1.368   0.285  45.799  0.3669 -0.0352 -0.1726
 7334TIP3    H143493   1.310   0.213  45.773  0.2596 -0.2436  0.5978
 7334TIP3    H243494   1.431   0.244  45.859  0.7014  0.3913 -0.2285
 7335TIP3   OH243495   2.730   2.600  10.069 -0.0805 -0.4285 -0.1841
 7335TIP3    H143496   2.649   2.581  10.021 -0.2859  0.5481 -0.2514
 7335TIP3    H243497   2.744   2.523  10.123 -0.6831 -0.9062 -0.6820
 7336TIP3   OH243498   0.840   3.101  40.382  0.2163  0.3992  0.1997
 7336TIP3    H143499   0.765   3.158  40.402 -0.1641  0.0761 -0.2608
 7336TIP3    H243500   0.804   3.012  40.386  0.2896  0.2817 -1.1056
 7337TIP3   OH243501   2.037   3.505  36.392  0.2885 -0.1914 -0.3860
 7337TIP3    H143502   2.011   3.426  36.345  1.8424 -0.3431 -1.0462
 7337TIP3    H243503   2.084   3.473  36.469 -1.2747  0.0793  0.7474
 7338TIP3   OH243504   2.478   3.311  40.308 -0.0832  0.2025 -0.0289
 7338TIP3    H143505   2.531   3.368  40.251  2.0752 -1.3208  0.3699
 7338TIP3    H243506   2.462   3.364  40.386  0.4512  0.8762 -0.3634
 7339TIP3   OH243507   2.837   1.011   3.619  0.1365 -0.3272  0.2187
 7339TIP3    H143508   2.932   1.015   3.631 -0.0345 -0.5958  1.8464
 7339TIP3    H243509   2.812   1.100   3.596  0.7195 -0.1178  0.3803
 7340TIP3   OH243510   2.536   3.043  32.100 -0.3799  0.0390 -0.5518
 7340TIP3    H143511   2.613   3.006  32.057  0.6430 -0.5393  1.6311
 7340TIP3    H243512   2.508   2.975  32.162 -0.5225  1.5757  1.1548
 7341TIP3   OH243513   2.338   0.963  11.728 -0.1901 -0.2367  0.7570
 7341TIP3    H143514   2.284   1.038  11.752 -0.3476 -0.2131  0.3416
 7341TIP3    H243515   2.402   0.955  11.799  0.1073  0.5661  0.5913
 7342TIP3   OH243516   3.671   0.358  23.977 -0.3099  0.2150  0.4128
 7342TIP3    H143517   3.590   0.408  23.982  0.7997  2.1067  0.2263
 7342TIP3    H243518   3.663   0.306  23.897 -1.6875 -0.3319  0.8769
 7343TIP3   OH243519   2.130   0.421  45.250  0.4148  0.4907  0.1537
 7343TIP3    H143520   2.073   0.349  45.276  1.3141 -0.3879 -0.2316
 7343TIP3    H243521   2.094   0.453  45.168 -1.3305  2.0369  1.4254
 7344TIP3   OH243522   2.479   1.027  13.045 -0.4226 -0.4892 -0.3263
 7344TIP3    H143523   2.435   1.019  12.960 -0.2845 -1.2874 -0.3352
 7344TIP3    H243524   2.569   1.054  13.023 -0.9974  1.6316 -0.2797
 7345TIP3   OH243525   0.897   0.989  37.359  0.5270  0.1677 -0.1903
 7345TIP3    H143526   0.973   0.934  37.378 -0.6192 -1.3302  0.2566
 7345TIP3    H243527   0.934   1.068  37.318  2.4146  0.1376  1.3220
 7346TIP3   OH243528   0.236   1.192  13.922  0.5923 -0.4441  0.2157
 7346TIP3    H143529   0.309   1.134  13.945  1.1245 -0.0530 -0.4438
 7346TIP3    H243530   0.236   1.194  13.827  0.0707  0.0050  0.2222
 7347TIP3   OH243531   0.252   4.017  41.316  0.8935  0.0545  0.3862
 7347TIP3    H143532   0.232   4.047  41.404  0.3495  0.6571  0.0657
 7347TIP3    H243533   0.184   3.953  41.296  2.3272 -1.8555  1.2557
 7348TIP3   OH243534   3.670   1.786  33.996  0.5897 -0.3822 -0.0665
 7348TIP3    H143535   3.667   1.812  34.089  1.3227 -0.5897  0.0215
 7348TIP3    H243536   3.646   1.694  33.996 -0.9367 -0.0134 -0.2625
 7349TIP3   OH243537   1.114   0.068  27.984  0.4882 -0.0187  0.3615
 7349TIP3    H143538   1.150   0.038  28.067  1.2614 -1.2325 -0.3858
 7349TIP3    H243539   1.155   0.153  27.969  2.7839 -1.1627 -0.2575
 7350TIP3   OH243540   2.304   3.994   1.581 -0.4854  0.2989 -1.2137
 7350TIP3    H143541   2.276   4.081   1.551 -0.0006  1.6786  1.8981
 7350TIP3    H243542   2.237   3.935   1.549 -0.6192  1.6831 -3.8090
 7351TIP3   OH243543   3.704   2.395  35.413  0.0837  0.1907  0.2459
 7351TIP3    H143544   3.645   2.449  35.360  1.1826  1.8158  0.6006
 7351TIP3    H243545   3.663   2.392  35.499 -0.6063 -0.6284 -0.0921
 7352TIP3   OH243546   2.863   2.398  20.167 -0.3118  0.6982  0.0758
 7352TIP3    H143547   2.855   2.480  20.119 -0.5777  0.9993  0.6276
 7352TIP3    H243548   2.955   2.395  20.194 -0.2025  0.6100 -0.2987
 7353TIP3   OH243549   3.952   3.864  36.267 -0.7529 -0.0350 -0.3771
 7353TIP3    H143550   3.912   3.947  36.292  0.7249  0.6722 -0.2899
 7353TIP3    H243551   4.040   3.887  36.238 -0.6213 -1.4681 -1.2329
 7354TIP3   OH243552   3.669   0.859  13.911 -0.2081  0.1749  0.7312
 7354TIP3    H143553   3.677   0.781  13.856 -3.6102  0.3858 -0.2620
 7354TIP3    H243554   3.746   0.912  13.888 -0.0856 -0.9566 -1.8683
 7355TIP3   OH243555   2.029   2.127  47.469  0.0632 -0.2898  0.1988
 7355TIP3    H143556   1.939   2.138  47.500 -0.8470 -0.8652 -2.1143
 7355TIP3    H243557   2.021   2.085  47.384  2.5164  0.0378 -0.2659
 7356TIP3   OH243558   2.326   3.059   8.716 -0.7571 -0.2985  0.1984
 7356TIP3    H143559   2.265   2.985   8.716 -2.3011  0.9064 -0.8002
 7356TIP3    H243560   2.272   3.134   8.742  0.7181  0.5338  0.9633
 7357TIP3   OH243561   3.159   3.953  37.590  0.0082  0.2546  0.1979
 7357TIP3    H143562   3.252   3.968  37.607  0.0531  0.1147  0.0756
 7357TIP3    H243563   3.153   3.947  37.494  0.3249 -2.5100  0.2578
 7358TIP3   OH243564   1.334   2.299  10.156 -1.0163 -0.8886 -0.2458
 7358TIP3    H143565   1.248   2.302  10.199 -1.4202  1.3065 -1.0437
 7358TIP3    H243566   1.384   2.234  10.205 -3.7312 -3.8072 -1.0049
 7359TIP3   OH243567   3.698   2.754   3.638 -0.2323 -0.0336 -0.2067
 7359TIP3    H143568   3.793   2.740   3.638 -0.6046 -4.3728 -3.4217
 7359TIP3    H243569   3.682   2.805   3.558 -0.6735  1.5416  0.8261
 7360TIP3   OH243570   3.723   2.073  31.538  0.1618 -0.1284  0.5097
 7360TIP3    H143571   3.745   2.158  31.498 -1.0841  1.0749  2.2032
 7360TIP3    H243572   3.802   2.021  31.527  1.5681  1.8190  0.7966
 7361TIP3   OH243573   0.832   2.616  15.575  0.4596  0.4269 -0.2410
 7361TIP3    H143574   0.906   2.624  15.515  0.9277  0.0420  0.2703
 7361TIP3    H243575   0.772   2.686  15.549  0.1395 -0.4049 -1.8502
 7362TIP3   OH243576   1.104   3.300  12.742  0.1831  0.3360 -0.0356
 7362TIP3    H143577   1.012   3.278  12.728  0.1729  0.2290  0.1925
 7362TIP3    H243578   1.103   3.366  12.811  0.4110 -1.5864  1.9306
 7363TIP3   OH243579   1.405   2.793  43.833 -0.5412 -0.2171 -0.2554
 7363TIP3    H143580   1.463   2.814  43.760 -1.3380  2.5669 -0.1944
 7363TIP3    H243581   1.320   2.830  43.807 -1.4519 -1.2751  1.0791
 7364TIP3   OH243582   1.708   0.593   7.133 -0.0565 -0.3982 -0.1451
 7364TIP3    H143583   1.780   0.577   7.073  0.7173 -1.4232  1.0077
 7364TIP3    H243584   1.633   0.610   7.076  0.0985 -3.5225 -1.5228
 7365TIP3   OH243585   0.769   1.597   2.033  0.6179  0.4009  0.4186
 7365TIP3    H143586   0.696   1.568   1.979  1.3035 -0.3436 -0.1287
 7365TIP3    H243587   0.846   1.558   1.993  1.4429  1.9254  0.4188
 7366TIP3   OH243588   0.980   3.523  44.211  0.3723 -0.2835  0.4867
 7366TIP3    H143589   0.927   3.595  44.245  0.3611  0.1131 -0.3339
 7366TIP3    H243590   1.071   3.550  44.227  0.4344  0.6459 -1.1489
 7367TIP3   OH243591   1.201   0.381  39.087 -0.0666  0.6409  0.3807
 7367TIP3    H143592   1.261   0.430  39.144 -0.2601  0.9774  0.3009
 7367TIP3    H243593   1.148   0.449  39.045 -1.5420  0.2784  1.6062
 7368TIP3   OH243594   1.559   3.213  15.106  0.7991  0.1909 -0.1076
 7368TIP3    H143595   1.587   3.164  15.029 -1.0066 -0.9774 -0.0777
 7368TIP3    H243596   1.617   3.182  15.176  0.7485 -0.6821 -0.4415
 7369TIP3   OH243597   3.445   1.397  32.684  0.5636 -0.2501 -0.0640
 7369TIP3    H143598   3.463   1.377  32.776 -0.6761 -1.7469 -0.1078
 7369TIP3    H243599   3.357   1.435  32.683  0.6094 -0.1434 -0.6258
 7370TIP3   OH243600   0.499   2.586  39.001  0.2185 -0.1079 -0.3141
 7370TIP3    H143601   0.582   2.538  39.003  0.8091  0.8039 -1.6078
 7370TIP3    H243602   0.451   2.554  39.078  1.7593 -0.6575  0.4689
 7371TIP3   OH243603   1.899   2.708  36.230  0.8155 -0.5510 -0.2200
 7371TIP3    H143604   1.833   2.691  36.297  1.1576 -1.5172 -0.1133
 7371TIP3    H243605   1.858   2.772  36.172  0.7027  0.6880  1.1829
 7372TIP3   OH243606   2.557   0.592   3.470 -0.1404 -0.0245 -0.3045
 7372TIP3    H143607   2.610   0.527   3.515 -0.7884  0.2690  0.9227
 7372TIP3    H243608   2.621   0.653   3.433  0.4159 -0.1640  0.3958
 7373TIP3   OH243609   2.040   2.900  36.622 -0.1306 -0.0341 -0.3078
 7373TIP3    H143610   1.990   2.839  36.676 -0.1599 -0.5755 -0.9325
 7373TIP3    H243611   2.076   2.846  36.551  1.8918  0.1912  0.4608
 7374TIP3   OH243612   1.812   2.210  36.809 -0.1827  0.6046  0.5654
 7374TIP3    H143613   1.844   2.290  36.850  1.4916  0.2080  0.0734
 7374TIP3    H243614   1.789   2.153  36.882  2.3781  0.0639  1.0404
 7375TIP3   OH243615   2.545   3.927  43.148 -0.3535 -0.5180  0.5382
 7375TIP3    H143616   2.529   3.836  43.122  0.9353  0.1583 -3.1227
 7375TIP3    H243617   2.458   3.967  43.150 -0.6599 -0.8078 -2.5288
 7376TIP3   OH243618   4.061   1.623  40.084 -0.2144  0.3637 -0.6605
 7376TIP3    H143619   4.015   1.635  40.002  2.3651  2.4597 -1.9378
 7376TIP3    H243620   4.051   1.706  40.130 -0.0015 -0.1130  0.2816
 7377TIP3   OH243621   2.369   3.406  47.009 -0.1428  0.5265 -0.2220
 7377TIP3    H143622   2.436   3.338  47.006 -0.5744  0.1325 -1.3550
 7377TIP3    H243623   2.419   3.488  47.015  0.6345  0.4370 -3.3770
 7378TIP3   OH243624   1.578   0.318   1.445 -0.0677  0.1939  1.1225
 7378TIP3    H143625   1.618   0.392   1.399  0.0301 -0.7618 -0.3639
 7378TIP3    H243626   1.632   0.307   1.523  1.8065 -0.2407 -0.1839
 7379TIP3   OH243627   2.817   0.094   9.478  0.3593  0.0909  0.3343
 7379TIP3    H143628   2.788   0.003   9.484  0.1806  0.0729 -0.6772
 7379TIP3    H243629   2.824   0.123   9.569 -0.5633 -0.6285  0.6483
 7380TIP3   OH243630   3.583   3.305  26.064 -0.0827  0.2620 -0.6010
 7380TIP3    H143631   3.648   3.375  26.055 -0.1344  0.2339 -1.3063
 7380TIP3    H243632   3.627   3.236  26.113 -0.0455  0.8075  0.1510
 7381TIP3   OH243633   2.632   3.887  14.266 -0.4182  0.0947 -0.0037
 7381TIP3    H143634   2.660   3.928  14.347 -1.4608  0.2120  0.3186
 7381TIP3    H243635   2.691   3.921  14.199  1.1904 -0.8731  0.8612
 7382TIP3   OH243636   3.176   3.378  34.146 -0.2257  0.3317  0.5704
 7382TIP3    H143637   3.124   3.417  34.077  0.0293 -1.2321 -0.5736
 7382TIP3    H243638   3.208   3.452  34.197 -1.2311  1.4706 -0.3891
 7383TIP3   OH243639   2.700   3.984   3.400 -0.3001 -0.5175  0.1784
 7383TIP3    H143640   2.773   4.045   3.386 -0.1781 -0.4241  1.1711
 7383TIP3    H243641   2.729   3.902   3.358 -0.8744  0.3363 -2.0532
 7384TIP3   OH243642   1.026   2.137  33.877 -0.6213 -0.0342  0.2184
 7384TIP3    H143643   1.060   2.101  33.796 -0.1596  0.3686  0.2244
 7384TIP3    H243644   0.934   2.110  33.879 -0.2172 -1.4891  0.3929
 7385TIP3   OH243645   1.310   1.775  33.238 -0.0861  0.2840 -0.2579
 7385TIP3    H143646   1.228   1.751  33.194  1.1082 -2.2139 -1.3515
 7385TIP3    H243647   1.352   1.837  33.179 -0.0008 -0.5247 -1.0819
 7386TIP3   OH243648   3.956   2.638  47.694 -0.3997 -0.2472 -0.8017
 7386TIP3    H143649   4.047   2.634  47.664  0.1602  0.6105  0.6760
 7386TIP3    H243650   3.956   2.709  47.758 -1.8621 -1.0319  0.0980
 7387TIP3   OH243651   0.463   3.995  32.195 -0.0168  0.2488  0.0272
 7387TIP3    H143652   0.548   3.958  32.171 -0.4496 -0.2228 -0.8154
 7387TIP3    H243653   0.400   3.943  32.146 -0.7459  1.1270  0.0169
 7388TIP3   OH243654   1.802   0.788  35.624 -0.7339  0.2036  0.6329
 7388TIP3    H143655   1.729   0.729  35.604 -1.7916  2.1904 -1.9343
 7388TIP3    H243656   1.760   0.871  35.646  0.6415  1.8389 -2.4110
 7389TIP3   OH243657   3.892   2.789  33.039  0.1001 -0.8497  0.0860
 7389TIP3    H143658   3.875   2.850  33.112 -0.0415 -0.8802  0.0777
 7389TIP3    H243659   3.948   2.722  33.077 -1.1415 -1.6515  0.5437
 7390TIP3   OH243660   1.607   3.383  37.769  0.0474 -0.0225  0.0812
 7390TIP3    H143661   1.640   3.294  37.763 -0.1924 -0.1608  0.7169
 7390TIP3    H243662   1.685   3.439  37.762  0.2981 -0.3103  0.5592
 7391TIP3   OH243663   2.682   0.066  25.230 -0.3497  0.1846  0.0087
 7391TIP3    H143664   2.660   0.089  25.140  1.3584 -1.3278 -0.8505
 7391TIP3    H243665   2.645  -0.021  25.242 -0.3618  0.2776  0.7089
 7392TIP3   OH243666   0.760   0.266  15.740  0.0570 -0.8487 -0.6782
 7392TIP3    H143667   0.780   0.186  15.691  0.6446  0.0429 -1.9420
 7392TIP3    H243668   0.668   0.283  15.722 -0.0145 -1.1212 -0.5740
 7393TIP3   OH243669   2.870   0.097   5.902 -0.1270  0.1044 -0.3786
 7393TIP3    H143670   2.861   0.117   5.809 -0.8116  1.0127 -0.1331
 7393TIP3    H243671   2.962   0.114   5.922  0.3876 -1.4811 -1.1804
 7394TIP3   OH243672   2.077   0.755  14.161  0.4530  0.0953 -0.1394
 7394TIP3    H143673   2.124   0.692  14.107 -1.5997 -1.4591 -0.2013
 7394TIP3    H243674   2.015   0.797  14.102  2.0339  2.5759 -0.1978
 7395TIP3   OH243675   0.835   0.054  31.034 -0.1096 -0.2593 -0.1971
 7395TIP3    H143676   0.752   0.026  31.070  1.1669 -2.1019  1.4995
 7395TIP3    H243677   0.814   0.132  30.983 -2.4909  0.8256  2.2133
 7396TIP3   OH243678   2.797   1.929  38.440  0.9066  0.0911 -0.2836
 7396TIP3    H143679   2.864   1.994  38.420  1.9029 -1.0022 -0.6436
 7396TIP3    H243680   2.716   1.965  38.402  1.0465  1.8747  0.9967
 7397TIP3   OH243681   2.446   4.092  40.485 -0.2731 -0.0881 -1.0631
 7397TIP3    H143682   2.498   4.027  40.532  0.3047  0.5704 -0.7850
 7397TIP3    H243683   2.463   4.174  40.530  0.1910  0.5369 -2.3265
 7398TIP3   OH243684   1.119   0.688   5.997 -0.1896  0.1070 -0.3523
 7398TIP3    H143685   1.180   0.724   6.061  0.3650  0.2525 -0.9490
 7398TIP3    H243686   1.131   0.593   6.003  0.9429  0.1721 -1.2632
 7399TIP3   OH243687   3.402   1.380   1.003  0.1149 -0.4269 -0.3228
 7399TIP3    H143688   3.470   1.380   1.070 -0.0022  1.9076 -0.1299
 7399TIP3    H243689   3.436   1.439   0.935 -1.3474  0.1554 -0.5859
 7400TIP3   OH243690   0.839   0.834  36.089 -0.3979  0.6074 -0.3224
 7400TIP3    H143691   0.855   0.901  36.155 -0.1183 -0.6335  0.9244
 7400TIP3    H243692   0.924   0.792  36.077 -0.9960 -0.9426  0.5617
 7401TIP3   OH243693   0.295   2.248  47.065 -0.4525 -0.3154 -0.0686
 7401TIP3    H143694   0.376   2.214  47.104 -0.0599 -2.9134 -2.7689
 7401TIP3    H243695   0.324   2.317  47.005 -0.7184  1.2954  1.5572
 7402TIP3   OH243696   2.840   2.522  40.553  0.8825  0.1239  0.8586
 7402TIP3    H143697   2.868   2.568  40.474 -1.6341 -0.8093 -0.6993
 7402TIP3    H243698   2.813   2.592  40.613  0.1600  0.8140 -0.2292
 7403TIP3   OH243699   0.302   2.734   6.106 -0.3103 -0.1253  0.3824
 7403TIP3    H143700   0.295   2.823   6.141  1.6505  0.1303  0.2571
 7403TIP3    H243701   0.315   2.679   6.183 -0.0771 -0.1134  0.3505
 7404TIP3   OH243702   2.225   2.212   4.731 -0.6773 -0.5890  0.0935
 7404TIP3    H143703   2.230   2.307   4.740  0.4643 -0.6069 -0.1988
 7404TIP3    H243704   2.307   2.187   4.689 -0.7063 -1.7691  0.6873
 7405TIP3   OH243705   1.405   0.158  28.511 -0.4821 -0.5766 -0.0060
 7405TIP3    H143706   1.474   0.142  28.447 -0.2198 -0.3710  0.2260
 7405TIP3    H243707   1.342   0.214  28.465 -0.7858 -1.2388 -0.4099
 7406TIP3   OH243708   2.335   1.856   0.326  0.0802 -0.1663 -0.1596
 7406TIP3    H143709   2.261   1.902   0.365 -0.0928 -0.1763 -0.4786
 7406TIP3    H243710   2.411   1.909   0.348 -0.2835  1.1268 -1.8558
 7407TIP3   OH243711   2.652   2.655  31.662 -0.0717 -0.3538  0.9456
 7407TIP3    H143712   2.727   2.610  31.622  0.0194  0.6744 -0.1071
 7407TIP3    H243713   2.596   2.679  31.588  0.8376  2.9656  1.1504
 7408TIP3   OH243714   1.420   3.903  31.053  0.1072 -0.1388 -0.0388
 7408TIP3    H143715   1.395   3.959  30.980 -0.3134 -0.4200 -0.1184
 7408TIP3    H243716   1.338   3.887  31.100 -0.5196 -3.3725 -1.9013
 7409TIP3   OH243717   4.039   0.003  13.897  0.5619  0.5781 -0.7304
 7409TIP3    H143718   4.049  -0.065  13.963  2.1767  2.1047  0.7063
 7409TIP3    H243719   3.996   0.075  13.943  1.8272  1.7217 -1.2618
 7410TIP3   OH243720   0.194   0.700  14.530 -0.1958 -0.7384  0.8388
 7410TIP3    H143721   0.257   0.644  14.485  0.3375 -0.9529  1.8283
 7410TIP3    H243722   0.118   0.644  14.545  0.3221 -1.2105  1.7948
 7411TIP3   OH243723   0.242   0.619  35.239  0.0082  0.0088  0.4256
 7411TIP3    H143724   0.179   0.579  35.178  0.6306 -1.2713  0.5902
 7411TIP3    H243725   0.324   0.572  35.223  0.3540  0.1193  1.7961
 7412TIP3   OH243726   2.970   1.983   5.691 -0.4652 -0.0376  0.1609
 7412TIP3    H143727   2.886   2.023   5.716 -0.4275  0.2858 -0.2142
 7412TIP3    H243728   2.956   1.889   5.700 -0.6002  0.0452  0.9308
 7413TIP3   OH243729   0.000   2.551   4.902  0.4196  0.4237  0.5394
 7413TIP3    H143730  -0.035   2.636   4.875  0.4066  0.3320  0.2718
 7413TIP3    H243731   0.032   2.511   4.821  0.9657  0.4229  0.7517
 7414TIP3   OH243732   0.519   1.015  36.306 -0.3216 -0.3266  0.4138
 7414TIP3    H143733   0.550   0.995  36.218 -0.8990  0.7985 -0.0567
 7414TIP3    H243734   0.443   0.958  36.319 -0.9255  0.3140 -0.2586
 7415TIP3   OH243735   1.486   0.841  12.286  0.4667  0.3675  0.2552
 7415TIP3    H143736   1.560   0.784  12.265 -0.0096 -1.0160  2.0304
 7415TIP3    H243737   1.524   0.913  12.336  0.8656  0.8678 -0.7246
 7416TIP3   OH243738   1.875   3.858  30.767 -0.3253  0.2476  0.3012
 7416TIP3    H143739   1.792   3.906  30.777  0.4580  1.7419 -0.1375
 7416TIP3    H243740   1.864   3.809  30.685 -1.5136 -1.1847  1.2605
 7417TIP3   OH243741   1.708   2.408  15.947  0.4633 -0.2415  0.0537
 7417TIP3    H143742   1.657   2.489  15.943 -0.0181 -0.5443 -0.0607
 7417TIP3    H243743   1.797   2.436  15.967  0.2414  0.2949  0.2959
 7418TIP3   OH243744   2.546   0.178  35.901  0.1306 -0.4027 -0.4877
 7418TIP3    H143745   2.548   0.273  35.911 -1.3947 -0.4908  1.1373
 7418TIP3    H243746   2.637   0.151  35.914  0.6458  0.8334 -1.2862
 7419TIP3   OH243747   2.956   3.107  31.337 -0.2875 -0.7515  0.5394
 7419TIP3    H143748   2.902   3.043  31.384 -2.4210 -0.1587 -0.9533
 7419TIP3    H243749   2.937   3.190  31.380 -1.2149 -0.4174 -0.4821
 7420TIP3   OH243750   2.322   4.037   2.954 -0.3159 -0.1182 -0.0868
 7420TIP3    H143751   2.282   4.116   2.991  0.4049  0.8182 -1.2124
 7420TIP3    H243752   2.415   4.044   2.976 -0.3677 -1.0660  0.4738
 7421TIP3   OH243753   2.774   3.178  33.747  0.9057  0.2281 -0.3136
 7421TIP3    H143754   2.793   3.167  33.654 -2.5467  0.1154 -1.1498
 7421TIP3    H243755   2.738   3.266  33.754 -0.4508 -0.3559  0.5503
 7422TIP3   OH243756   2.713   3.978   4.445 -0.3859 -0.5502  0.2416
 7422TIP3    H143757   2.651   3.907   4.461 -0.5269 -0.1395  1.5981
 7422TIP3    H243758   2.672   4.032   4.377 -0.3357 -1.6648 -0.7118
 7423TIP3   OH243759   1.141   4.051   4.748  0.5649  0.5655  0.0194
 7423TIP3    H143760   1.209   4.001   4.794 -0.3590 -1.2973 -0.5449
 7423TIP3    H243761   1.182   4.080   4.667  1.6686  2.3797  1.1431
 7424TIP3   OH243762   2.855   2.711   3.725 -0.0806  0.4609  0.3404
 7424TIP3    H143763   2.881   2.730   3.815  1.0109 -0.8952  0.3390
 7424TIP3    H243764   2.887   2.785   3.674  1.8195 -0.0835  0.6862
 7425TIP3   OH243765   0.473   2.297  13.187  0.2411  0.5042 -0.5416
 7425TIP3    H143766   0.456   2.368  13.249  1.7890  0.5904 -0.1837
 7425TIP3    H243767   0.558   2.318  13.149  0.5279 -0.9310 -0.7552
 7426TIP3   OH243768   0.311   0.353   8.121  0.4881  0.3031 -0.2815
 7426TIP3    H143769   0.253   0.378   8.193 -1.1111  1.7234 -1.9514
 7426TIP3    H243770   0.303   0.257   8.117 -0.6533  0.3410  0.4341
 7427TIP3   OH243771   3.794   2.186  37.193  0.7482 -0.1889  0.2149
 7427TIP3    H143772   3.786   2.281  37.193  1.0322 -0.1378  1.8070
 7427TIP3    H243773   3.834   2.165  37.277  0.1297 -1.7702  0.1575
 7428TIP3   OH243774   0.432   0.298   6.495 -0.0622 -0.5461 -0.1007
 7428TIP3    H143775   0.369   0.244   6.543  0.7401 -0.6483  0.8799
 7428TIP3    H243776   0.379   0.363   6.450 -0.8076  0.0786  1.6071
 7429TIP3   OH243777   3.451   1.491  36.548  0.0177 -0.1269 -0.1941
 7429TIP3    H143778   3.535   1.502  36.503 -0.4192  0.3118 -0.9159
 7429TIP3    H243779   3.411   1.578  36.546 -1.4027 -0.7687 -1.7882
 7430TIP3   OH243780   4.050   0.832  31.544  0.5619  0.6724 -0.4070
 7430TIP3    H143781   4.019   0.761  31.600 -0.7883  2.3358  1.0386
 7430TIP3    H243782   4.142   0.842  31.567  0.0940  1.1511  1.3508
 7431TIP3   OH243783   0.313   3.970  10.836  0.0752  0.3306 -0.4855
 7431TIP3    H143784   0.315   4.057  10.798  0.7688  0.6531  0.2639
 7431TIP3    H243785   0.310   3.984  10.930 -2.0077 -0.4491 -0.3783
 7432TIP3   OH243786   2.320   2.031  14.329  0.3176  0.1873  0.5248
 7432TIP3    H143787   2.312   1.949  14.379  0.0610 -1.5145 -2.0893
 7432TIP3    H243788   2.237   2.038  14.282  0.4409  1.8529  0.5215
 7433TIP3   OH243789   3.846   1.951   7.971  0.5768 -0.0311 -0.1896
 7433TIP3    H143790   3.809   2.013   8.033 -0.9166 -0.2220 -0.8413
 7433TIP3    H243791   3.929   1.924   8.010 -0.1329  0.1535  1.5261
 7434TIP3   OH243792   2.013   0.210  43.220  0.0905  0.5059 -0.1444
 7434TIP3    H143793   1.928   0.254  43.210 -0.2189 -0.1662 -0.5172
 7434TIP3    H243794   2.065   0.242  43.147 -0.7383 -1.1033 -1.4945
 7435TIP3   OH243795   1.779   1.436  33.704 -0.2654 -0.2953 -0.1807
 7435TIP3    H143796   1.771   1.444  33.799  0.7650 -1.0850  0.0010
 7435TIP3    H243797   1.788   1.525  33.672 -0.7988 -0.0133  0.4478
 7436TIP3   OH243798   0.713   0.620  33.714  0.1864  0.1588 -0.1517
 7436TIP3    H143799   0.633   0.602  33.764  0.4696  0.7213  0.5122
 7436TIP3    H243800   0.695   0.703  33.670 -0.3149 -0.6487 -1.5390
 7437TIP3   OH243801   3.406   1.192  15.977  0.1087 -0.3151  0.3804
 7437TIP3    H143802   3.502   1.190  15.969  0.0994  2.0506 -1.7022
 7437TIP3    H243803   3.377   1.110  15.938  1.2969 -1.0082  0.9226
 7438TIP3   OH243804   3.250   2.410  45.099 -0.2581 -0.6725 -0.1189
 7438TIP3    H143805   3.208   2.423  45.185 -0.3558 -2.0580  0.0734
 7438TIP3    H243806   3.211   2.476  45.043  1.6279  1.9737  1.4771
 7439TIP3   OH243807   2.211   2.099  35.937 -0.3801  0.5731 -0.0635
 7439TIP3    H143808   2.228   2.011  35.904  1.0701 -0.3283  2.7978
 7439TIP3    H243809   2.265   2.156  35.882  1.4153 -0.7658  0.2150
 7440TIP3   OH243810   0.362   1.328  35.976  0.1117 -0.0053 -0.3224
 7440TIP3    H143811   0.354   1.422  35.992 -1.9159 -0.2505  0.4193
 7440TIP3    H243812   0.428   1.299  36.039  1.0362  0.9578 -0.8158
 7441TIP3   OH243813   3.357   4.031  47.670  0.2271  0.0092  0.0298
 7441TIP3    H143814   3.434   3.994  47.713 -1.5423 -1.4011  2.1969
 7441TIP3    H243815   3.289   3.964  47.680 -1.2032  1.0004 -2.2254
 7442TIP3   OH243816   1.889   2.758  43.504 -0.0430 -0.0723 -0.2751
 7442TIP3    H143817   1.884   2.717  43.590  0.0482 -0.3433 -0.3974
 7442TIP3    H243818   1.891   2.852  43.522  1.1882 -0.1466  0.0903
 7443TIP3   OH243819   1.171   1.787  19.132  0.0688 -0.0639 -0.3796
 7443TIP3    H143820   1.246   1.807  19.075  1.1620 -1.6144  0.4461
 7443TIP3    H243821   1.172   1.856  19.198  1.0543 -0.2977 -0.1299
 7444TIP3   OH243822   0.812   2.326  37.083  0.1708 -0.2836  0.1492
 7444TIP3    H143823   0.757   2.379  37.140 -0.7754  0.2821 -1.2509
 7444TIP3    H243824   0.887   2.382  37.064  0.4984 -0.4789  0.8115
 7445TIP3   OH243825   3.933   3.061  36.950 -0.0349 -0.9745  0.2482
 7445TIP3    H143826   3.890   3.084  37.032  0.9829  1.2983  0.2436
 7445TIP3    H243827   3.872   3.090  36.882 -0.5388 -2.1480  0.1815
 7446TIP3   OH243828   2.102   3.166  43.535 -0.2426 -0.4496 -0.0955
 7446TIP3    H143829   2.134   3.208  43.614 -0.6073 -0.6979  0.1887
 7446TIP3    H243830   2.172   3.106  43.509 -0.2201 -0.5346  0.1652
 7447TIP3   OH243831   0.406   1.713  15.906  0.4965 -0.0336 -0.3551
 7447TIP3    H143832   0.383   1.631  15.950 -0.3732  0.4768  0.2009
 7447TIP3    H243833   0.426   1.773  15.978 -1.8521  1.0847 -0.5391
 7448TIP3   OH243834   2.424   1.694  19.841  0.4010  0.0993  0.0813
 7448TIP3    H143835   2.434   1.765  19.904  1.3848  0.6853 -0.6979
 7448TIP3    H243836   2.411   1.616  19.894  0.0723  0.7483  0.9748
 7449TIP3   OH243837   0.772   1.326  33.662 -0.1111 -0.2992  0.4647
 7449TIP3    H143838   0.751   1.242  33.621 -0.1832  0.9907 -2.3507
 7449TIP3    H243839   0.866   1.337  33.646 -0.6737  1.5782 -2.3046
 7450TIP3   OH243840   1.712   1.559  21.811 -0.0292  0.1873 -0.3147
 7450TIP3    H143841   1.789   1.502  21.809  1.0874  1.6248 -0.2241
 7450TIP3    H243842   1.719   1.611  21.731  0.6750  2.2592  0.9939
 7451TIP3   OH243843   1.393   2.523  14.881  0.5837 -0.5549 -0.2089
 7451TIP3    H143844   1.398   2.430  14.903  1.9220 -0.4953 -0.1925
 7451TIP3    H243845   1.482   2.546  14.854  0.2447  0.6982 -0.3027
 7452TIP3   OH243846   2.160   2.358   7.675 -0.3700  0.0469 -0.3303
 7452TIP3    H143847   2.237   2.310   7.706  0.9288  0.2053 -3.0782
 7452TIP3    H243848   2.178   2.377   7.583 -2.9551  1.6390 -0.6127
 7453TIP3   OH243849   0.074   3.846  30.442  0.6236 -0.2846 -0.3262
 7453TIP3    H143850   0.130   3.922  30.460 -0.0797  0.5227 -1.4034
 7453TIP3    H243851   0.062   3.847  30.347 -1.4652 -0.2220 -0.1142
 7454TIP3   OH243852   3.158   0.333  37.919  0.4647  0.2056  0.3613
 7454TIP3    H143853   3.198   0.248  37.905 -0.3385  0.0227 -0.9364
 7454TIP3    H243854   3.126   0.330  38.009  0.4426 -0.8571  0.3282
 7455TIP3   OH243855   1.975   2.035  32.713  0.6744  0.2337 -0.3456
 7455TIP3    H143856   1.984   2.129  32.730  2.1777  0.0575 -0.0732
 7455TIP3    H243857   2.061   2.007  32.684 -0.1515 -0.7846 -1.9476
 7456TIP3   OH243858   0.328   2.171  35.782  0.3167  0.2731 -0.3294
 7456TIP3    H143859   0.335   2.082  35.818 -0.2449  0.3213 -0.0928
 7456TIP3    H243860   0.371   2.165  35.697 -0.5130 -0.4633 -0.7141
 7457TIP3   OH243861   1.433   0.337   6.864  0.7260 -0.7497 -0.2796
 7457TIP3    H143862   1.367   0.407   6.856  0.1628 -1.3400 -0.9879
 7457TIP3    H243863   1.491   0.367   6.934  0.4852  0.4210 -0.5523
 7458TIP3   OH243864   2.351   0.033  33.316  0.2138 -0.1586  0.0671
 7458TIP3    H143865   2.356   0.112  33.371 -0.6592 -0.8880  1.2366
 7458TIP3    H243866   2.264  -0.002  33.332  0.2507 -0.8723 -1.1603
 7459TIP3   OH243867   1.690   3.527  31.344  0.1050 -0.2260 -0.3041
 7459TIP3    H143868   1.708   3.534  31.438  1.2955  0.3104 -0.5479
 7459TIP3    H243869   1.679   3.618  31.315  3.2546 -0.0370 -1.2815
 7460TIP3   OH243870   0.682   0.031  38.715  0.4495  0.2529 -0.5103
 7460TIP3    H143871   0.728  -0.042  38.755  0.5649  0.0805 -0.9467
 7460TIP3    H243872   0.696   0.019  38.621  0.9538  1.1603 -0.5570
 7461TIP3   OH243873   2.193   2.903  43.636 -0.0655  0.2422 -0.1431
 7461TIP3    H143874   2.241   2.883  43.716  1.1315  2.1799 -0.3127
 7461TIP3    H243875   2.101   2.896  43.661  0.2438  2.1705  1.8473
 7462TIP3   OH243876   2.435   2.276   1.743 -0.0394 -0.5526 -0.0080
 7462TIP3    H143877   2.477   2.212   1.801  0.6427  2.0219  2.5594
 7462TIP3    H243878   2.384   2.222   1.682  2.4728 -3.6174  0.3080
 7463TIP3   OH243879   2.831   0.545   5.725 -0.3871 -0.0982 -0.6545
 7463TIP3    H143880   2.921   0.568   5.701 -0.5236  1.0424 -0.0858
 7463TIP3    H243881   2.795   0.624   5.765 -1.5934 -0.5988 -0.7124
 7464TIP3   OH243882   2.328   3.266   1.523  0.1988  0.0115  0.2034
 7464TIP3    H143883   2.235   3.240   1.524  0.1289  0.1930 -0.7635
 7464TIP3    H243884   2.326   3.358   1.548  0.1028  0.0657 -0.0035
 7465TIP3   OH243885   3.423   2.592  40.045  0.2614 -0.4997 -0.2019
 7465TIP3    H143886   3.488   2.561  40.108 -0.7218  0.1532  1.1869
 7465TIP3    H243887   3.455   2.677  40.016  1.0192 -1.0615 -1.0896
 7466TIP3   OH243888   2.953   0.742   0.988  0.1482 -0.2944  0.4333
 7466TIP3    H143889   2.859   0.738   0.968  0.0274 -0.3262  0.9839
 7466TIP3    H243890   2.994   0.684   0.924 -0.1372  0.2215 -0.2265
 7467TIP3   OH243891   1.835   3.856  27.471 -0.1439 -0.5138 -0.1962
 7467TIP3    H143892   1.771   3.801  27.515 -0.1260 -1.2942 -1.0942
 7467TIP3    H243893   1.805   3.945  27.485 -1.6997 -0.8696 -0.9678
 7468TIP3   OH243894   0.736   1.788  15.961 -0.5497  0.4753 -0.3512
 7468TIP3    H143895   0.752   1.879  15.988  2.3322  0.2155 -0.8406
 7468TIP3    H243896   0.711   1.743  16.041 -1.1710  1.5025  0.0540
 7469TIP3   OH243897   2.356   1.152  10.468 -0.1587 -0.0115  0.0568
 7469TIP3    H143898   2.291   1.151  10.398  0.4899  0.3239 -0.5680
 7469TIP3    H243899   2.439   1.130  10.424  0.2267  0.0354  0.7475
 7470TIP3   OH243900   2.847   1.669  11.141 -0.5252 -0.0203 -0.0495
 7470TIP3    H143901   2.895   1.593  11.175 -1.1120 -1.0499 -1.4546
 7470TIP3    H243902   2.898   1.697  11.064 -0.2405  1.1246  0.5258
 7471TIP3   OH243903   0.679   2.997   7.640  0.2392  0.3029  0.3833
 7471TIP3    H143904   0.724   3.018   7.722  0.1942  1.4126  0.1315
 7471TIP3    H243905   0.655   2.905   7.649 -0.2183  0.5433  1.8416
 7472TIP3   OH243906   1.895   2.600  11.478  0.1450  0.0776  0.2229
 7472TIP3    H143907   1.886   2.682  11.428  0.6787 -0.2983 -0.5134
 7472TIP3    H243908   1.830   2.607  11.548 -0.4481  0.7337 -0.3778
 7473TIP3   OH243909   2.409   2.435  40.149  0.0346  0.1023  0.0004
 7473TIP3    H143910   2.442   2.405  40.064 -0.8605  1.7370 -0.9725
 7473TIP3    H243911   2.439   2.368  40.211 -1.2021 -2.3812 -1.8949
 7474TIP3   OH243912   4.070   2.319  39.088  0.4903 -0.4225 -0.0524
 7474TIP3    H143913   3.996   2.369  39.122  1.1834 -0.1977  1.1919
 7474TIP3    H243914   4.044   2.295  38.999 -1.5678 -1.3524  0.7290
 7475TIP3   OH243915   0.366   2.019   8.768  0.4415 -0.1600 -0.4077
 7475TIP3    H143916   0.281   2.053   8.794  1.6999  2.3139  0.8310
 7475TIP3    H243917   0.402   1.980   8.849  2.0379  2.4446  0.2653
 7476TIP3   OH243918   0.981   0.379  12.288  0.3258  0.6036  0.2146
 7476TIP3    H143919   1.034   0.448  12.247 -1.2074  1.3038 -0.6649
 7476TIP3    H243920   1.005   0.299  12.240  0.6858  0.8834 -0.0750
 7477TIP3   OH243921   3.867   1.584   7.832  0.0459 -0.4419 -0.7589
 7477TIP3    H143922   3.870   1.491   7.814  0.7318 -0.3417 -1.1741
 7477TIP3    H243923   3.899   1.593   7.922  0.1322 -0.5867 -0.7764
 7478TIP3   OH243924   1.306   4.018  38.098  0.1828 -0.4196 -0.2272
 7478TIP3    H143925   1.328   3.928  38.118 -0.0647 -0.0144  2.0789
 7478TIP3    H243926   1.372   4.070  38.142 -0.5568  0.5686 -0.2447
 7479TIP3   OH243927   2.603   1.790   4.251  0.2443 -0.4460  0.4761
 7479TIP3    H143928   2.587   1.804   4.158  0.2595  1.1150  0.6842
 7479TIP3    H243929   2.674   1.851   4.273 -0.8065  0.3810  1.8191
 7480TIP3   OH243930   3.659   1.959  37.548  0.0063  0.2052 -0.0600
 7480TIP3    H143931   3.603   1.905  37.605  0.2925 -0.0943 -0.0554
 7480TIP3    H243932   3.747   1.922  37.559  0.0667  0.1560 -0.6830
 7481TIP3   OH243933   0.230   2.873   0.959  0.0329 -0.2175  0.3868
 7481TIP3    H143934   0.137   2.894   0.944 -0.1017  1.2459  2.7582
 7481TIP3    H243935   0.270   2.878   0.872 -1.8649  0.4609 -0.5058
 7482TIP3   OH243936   3.362   2.348  13.585  0.4924 -0.0835 -0.1871
 7482TIP3    H143937   3.386   2.343  13.677 -0.1246  0.6823  0.0319
 7482TIP3    H243938   3.395   2.433  13.556  1.1847 -0.5576 -0.8376
 7483TIP3   OH243939   1.751   3.971  38.573  0.1371  0.3784  0.1030
 7483TIP3    H143940   1.755   3.881  38.607 -0.0239  0.7008  1.0034
 7483TIP3    H243941   1.768   3.962  38.479  0.8675 -0.5095  0.3077
 7484TIP3   OH243942   1.871   2.191  10.457  0.1770 -0.0405 -0.1225
 7484TIP3    H143943   1.958   2.150  10.463 -0.3115 -1.7684 -2.9876
 7484TIP3    H243944   1.852   2.194  10.363 -2.0741  2.1506  0.2832
 7485TIP3   OH243945   0.081   0.302  34.368 -0.7629 -0.5947 -0.1293
 7485TIP3    H143946   0.009   0.294  34.430 -1.4808 -0.3670 -0.9085
 7485TIP3    H243947   0.150   0.246  34.403  0.0076  1.7248  2.4425
 7486TIP3   OH243948   0.580   0.121  47.636 -0.8482  0.4151  0.3650
 7486TIP3    H143949   0.601   0.184  47.566 -0.5276  0.4621  0.5008
 7486TIP3    H243950   0.487   0.135  47.653 -0.7059  1.1009  0.6333
 7487TIP3   OH243951   2.520   1.921   2.461  0.2084  0.3234  0.1166
 7487TIP3    H143952   2.496   1.832   2.437  0.2020  0.2791  0.2872
 7487TIP3    H243953   2.573   1.911   2.540 -0.7669  0.5486  0.8148
 7488TIP3   OH243954   3.127   0.485  36.388  0.0643  0.2255  0.0113
 7488TIP3    H143955   3.158   0.457  36.302  0.1641  0.4922 -0.0416
 7488TIP3    H243956   3.163   0.421  36.449  1.6275  1.1130  0.0801
 7489TIP3   OH243957   0.975   2.740  15.011  0.3817 -0.4383 -0.3007
 7489TIP3    H143958   0.968   2.647  15.029  0.2590 -0.3587  0.0797
 7489TIP3    H243959   0.892   2.764  14.970  0.5061 -0.5432 -0.6136
 7490TIP3   OH243960   3.716   3.552  30.685 -0.6353 -0.6139 -0.4440
 7490TIP3    H143961   3.694   3.556  30.778  0.5193  1.2672 -0.1992
 7490TIP3    H243962   3.685   3.466  30.656 -3.3490 -0.2422  1.0480
 7491TIP3   OH243963   2.388   0.861  43.027 -0.0865  0.0433  0.4200
 7491TIP3    H143964   2.346   0.904  42.952 -1.1210  0.0748  0.9982
 7491TIP3    H243965   2.321   0.803  43.062  0.3274  0.1613  1.4296
 7492TIP3   OH243966   1.767   1.983   6.037 -0.2655  0.1690 -0.2831
 7492TIP3    H143967   1.729   1.924   5.973 -3.2884  1.5917  0.0373
 7492TIP3    H243968   1.702   1.988   6.107  1.0050  1.9533  0.8531
 7493TIP3   OH243969   3.280   3.913  10.740  0.4964  0.6524 -0.2781
 7493TIP3    H143970   3.244   3.969  10.809 -1.0360  0.5499 -0.9432
 7493TIP3    H243971   3.356   3.871  10.780 -1.6455 -1.2257  2.1952
 7494TIP3   OH243972   3.771   1.655  12.529  0.8308  0.2387 -0.1725
 7494TIP3    H143973   3.753   1.749  12.539  1.8425  0.3563  0.7040
 7494TIP3    H243974   3.865   1.647  12.545  0.9567 -0.7932 -1.3088
 7495TIP3   OH243975   1.886   2.615  35.887  0.1239  0.2311 -0.1366
 7495TIP3    H143976   1.933   2.698  35.895  2.0242 -0.6510 -1.3880
 7495TIP3    H243977   1.950   2.549  35.915 -1.8060 -0.7908  2.3218
 7496TIP3   OH243978   1.534   2.014  34.287  0.6067 -0.0192 -0.3754
 7496TIP3    H143979   1.494   2.075  34.349  0.9637 -0.4905  0.3261
 7496TIP3    H243980   1.628   2.028  34.297  0.7428 -1.4266  0.5783
 7497TIP3   OH243981   1.346   0.996  46.141 -0.2793 -0.1224  0.5922
 7497TIP3    H143982   1.422   0.993  46.082  0.1124 -0.7319  1.1139
 7497TIP3    H243983   1.272   0.969  46.086 -0.2792  1.2465 -0.1301
 7498TIP3   OH243984   1.129   3.035   5.856 -0.6126 -0.3548  0.5475
 7498TIP3    H143985   1.049   3.052   5.806  1.3121  1.9345 -2.0873
 7498TIP3    H243986   1.124   3.094   5.931 -0.1089  2.1179 -1.2715
 7499TIP3   OH243987   2.655   1.006  44.761 -0.4726 -0.1857  0.3221
 7499TIP3    H143988   2.618   0.946  44.826 -0.1863 -0.2503  0.4261
 7499TIP3    H243989   2.583   1.022  44.699 -0.1823 -1.6785 -0.4622
 7500TIP3   OH243990   1.788   2.475  36.624 -0.5300  0.0613  0.3010
 7500TIP3    H143991   1.733   2.399  36.604 -1.0164  0.6890 -0.8885
 7500TIP3    H243992   1.829   2.454  36.708 -0.1660 -1.7793 -0.2938
 7501TIP3   OH243993   1.597   2.532   3.873  0.2061 -0.2356  0.3138
 7501TIP3    H143994   1.650   2.479   3.814 -2.4617 -1.0355 -1.5617
 7501TIP3    H243995   1.531   2.572   3.817 -0.9776  1.0003  2.4353
 7502TIP3   OH243996   3.278   0.875   8.223 -0.0575 -0.1835  0.0907
 7502TIP3    H143997   3.272   0.780   8.211 -1.5185 -0.0868 -0.2540
 7502TIP3    H243998   3.236   0.911   8.144  1.2653  0.7709 -0.2008
 7503TIP3   OH243999   2.278   0.741  47.007 -0.0180 -0.4027  0.0771
 7503TIP3    H144000   2.262   0.649  46.988  0.1261 -0.3320 -0.4003
 7503TIP3    H244001   2.333   0.740  47.084 -0.1040 -0.7131  0.1385
 7504TIP3   OH244002   1.199   3.375  13.378 -0.3287 -0.2350  0.1194
 7504TIP3    H144003   1.154   3.290  13.372 -1.5437  0.1480  2.5235
 7504TIP3    H244004   1.130   3.440  13.361 -0.1073  0.2935  1.1452
 7505TIP3   OH244005   2.297   0.070   0.981 -0.4049 -0.3841 -0.3898
 7505TIP3    H144006   2.259   0.087   0.895 -1.5381 -0.4612  0.0852
 7505TIP3    H244007   2.360   0.141   0.993  0.1411 -0.6578 -1.4842
 7506TIP3   OH244008   3.146   0.090   8.152  0.2353  0.0433 -0.3740
 7506TIP3    H144009   3.124   0.174   8.193  0.7204  0.7386 -1.4842
 7506TIP3    H244010   3.141   0.107   8.058  2.2374 -0.6226 -0.6698
 7507TIP3   OH244011   1.736   2.027   0.703 -0.2306  0.6359 -0.7611
 7507TIP3    H144012   1.641   2.035   0.701 -0.4136 -0.0646  1.6189
 7507TIP3    H244013   1.757   2.016   0.796  2.1324  0.2135 -1.2758
 7508TIP3   OH244014   0.338   1.874  21.057 -0.1008 -0.6784 -0.2899
 7508TIP3    H144015   0.366   1.966  21.055  0.0307 -0.6830  0.7601
 7508TIP3    H244016   0.414   1.826  21.088 -0.4633 -1.0206  0.0883
 7509TIP3   OH244017   2.117   3.846  37.101 -0.0393 -0.6745 -0.2174
 7509TIP3    H144018   2.143   3.766  37.146 -0.6590 -1.9333 -1.9965
 7509TIP3    H244019   2.023   3.854  37.117 -0.1008 -0.6612 -0.5818
 7510TIP3   OH244020   1.967   2.797  42.861  0.3540 -0.0534  0.1554
 7510TIP3    H144021   1.914   2.839  42.794  0.0592 -0.5283  0.0866
 7510TIP3    H244022   1.908   2.732  42.901  1.0712 -1.0533 -0.3709
 7511TIP3   OH244023   0.337   1.327   6.432  0.0422  0.2142 -0.5247
 7511TIP3    H144024   0.326   1.370   6.517  0.3094 -0.2375 -0.2615
 7511TIP3    H244025   0.411   1.268   6.444  0.4801  0.6013 -1.2555
 7512TIP3   OH244026   1.469   1.231  13.637 -0.1549 -0.1633  0.1704
 7512TIP3    H144027   1.516   1.235  13.554 -0.7227  0.8783 -0.1275
 7512TIP3    H244028   1.377   1.241  13.613 -0.3946 -0.6116  0.8694
 7513TIP3   OH244029   3.429   1.758  17.858 -0.7077 -0.1368  0.7257
 7513TIP3    H144030   3.351   1.726  17.904  0.5419 -2.3274  1.4809
 7513TIP3    H244031   3.417   1.730  17.768 -0.5355 -1.0139  0.9693
 7514TIP3   OH244032   1.318   3.274  44.239  0.5524 -0.4960  0.1669
 7514TIP3    H144033   1.335   3.191  44.285  0.8030 -0.2387  0.5405
 7514TIP3    H244034   1.223   3.279  44.235  0.5367 -1.1870 -0.5605
 7515TIP3   OH244035   0.698   2.762   0.098  0.4995  0.2089 -0.1501
 7515TIP3    H144036   0.703   2.813   0.017  0.8163 -1.9727 -1.5766
 7515TIP3    H244037   0.685   2.672   0.070  0.7473 -0.6628  2.2437
 7516TIP3   OH244038   0.084   2.303  20.936  0.1603  0.1494  0.3709
 7516TIP3    H144039   0.003   2.323  20.982  0.4928 -0.5830  1.3043
 7516TIP3    H244040   0.056   2.271  20.851 -0.5905 -1.0356  1.0402
 7517TIP3   OH244041   1.605   2.702   1.251  0.4067  0.2348  0.4053
 7517TIP3    H144042   1.672   2.660   1.305  0.4623  2.4213  2.2060
 7517TIP3    H244043   1.522   2.676   1.290  0.4252  1.2753  1.1944
 7518TIP3   OH244044   2.899   1.329  47.054  0.6257 -0.0340 -0.4492
 7518TIP3    H144045   2.859   1.375  46.981  0.2312  1.1668  0.5039
 7518TIP3    H244046   2.992   1.325  47.032  0.1177 -3.0584 -2.7984
 7519TIP3   OH244047   0.420   3.883  14.743  0.5974 -0.1228 -0.0094
 7519TIP3    H144048   0.395   3.793  14.765 -0.2038 -0.2893 -1.4582
 7519TIP3    H244049   0.508   3.875  14.707  1.3652 -0.0210  1.7363
 7520TIP3   OH244050   1.632   1.406  11.332 -0.8317  0.4804 -0.6491
 7520TIP3    H144051   1.699   1.454  11.380 -2.4550  0.8040  1.4291
 7520TIP3    H244052   1.664   1.316  11.330 -0.4926  0.5470  0.6768
 7521TIP3   OH244053   3.715   3.514  32.376 -0.1321 -0.1821  0.4938
 7521TIP3    H144054   3.645   3.512  32.442 -1.0524  0.9533 -0.4142
 7521TIP3    H244055   3.795   3.500  32.427 -0.7793  0.9515  1.9244
 7522TIP3   OH244056   2.596   3.127   4.526  0.3088 -0.1981  0.2748
 7522TIP3    H144057   2.679   3.103   4.484  0.0384  1.0291 -1.0732
 7522TIP3    H244058   2.529   3.087   4.471 -0.0132 -1.1912  1.3655
 7523TIP3   OH244059   2.731   2.289   5.507  0.7228 -0.0876 -0.4533
 7523TIP3    H144060   2.713   2.246   5.591  1.7670 -0.4810 -0.4251
 7523TIP3    H244061   2.785   2.365   5.529 -0.0737  0.5540 -0.6434
 7524TIP3   OH244062   3.887   0.862   9.050 -0.1219 -0.2519 -0.4972
 7524TIP3    H144063   3.948   0.868   8.976  0.4637 -2.4432 -0.2743
 7524TIP3    H244064   3.944   0.862   9.127 -0.6831  1.2723 -0.0480
 7525TIP3   OH244065   0.765   1.831  14.315  0.0623 -0.4585 -0.1018
 7525TIP3    H144066   0.807   1.889  14.378 -1.1949  1.8250 -1.2195
 7525TIP3    H244067   0.679   1.814  14.352 -0.5193  0.5386 -0.9372
 7526TIP3   OH244068   2.005   0.331  27.520  0.4060  0.2824 -0.2524
 7526TIP3    H144069   1.951   0.385  27.464  2.0112  1.9305 -0.2807
 7526TIP3    H244070   2.093   0.365  27.510  1.5328 -2.3896 -0.3045
 7527TIP3   OH244071   3.515   2.161  37.186 -0.4365  0.3768 -0.4818
 7527TIP3    H144072   3.605   2.190  37.174 -0.9776  2.0821 -0.7275
 7527TIP3    H244073   3.512   2.074  37.145  1.0103  0.4066 -0.7039
 7528TIP3   OH244074   2.659   3.181  28.999 -0.3127 -0.4860 -0.3823
 7528TIP3    H144075   2.708   3.140  29.070  0.2503  1.9497  0.7136
 7528TIP3    H244076   2.568   3.180  29.029 -0.1114  0.3068  0.2723
 7529TIP3   OH244077   1.664   2.018  33.979 -0.4554 -0.4412 -0.2184
 7529TIP3    H144078   1.712   2.074  33.917  1.9196 -0.6543  1.2867
 7529TIP3    H244079   1.679   2.060  34.065 -1.1229 -1.7833  0.5832
 7530TIP3   OH244080   0.413   3.186   3.190 -0.0232 -0.5023  0.2396
 7530TIP3    H144081   0.497   3.225   3.214  0.0633 -1.9482  2.6020
 7530TIP3    H244082   0.348   3.241   3.233 -0.2386 -0.1500 -0.5111
 7531TIP3   OH244083   2.057   0.932   4.233  0.3566  0.8012  0.0886
 7531TIP3    H144084   2.003   0.983   4.293 -0.3172 -0.1365  0.3147
 7531TIP3    H244085   2.087   0.995   4.168  1.3841  1.9144  1.5711
 7532TIP3   OH244086   1.975   2.351   4.350 -0.1899 -0.0886 -0.1379
 7532TIP3    H144087   2.023   2.417   4.300 -0.8530  1.0320  0.6443
 7532TIP3    H244088   2.042   2.307   4.402  0.0078  1.7501  1.2713
 7533TIP3   OH244089   1.333   1.927   3.289  0.1573 -0.5967 -0.4202
 7533TIP3    H144090   1.303   1.982   3.361  1.0492 -0.2006 -0.3347
 7533TIP3    H244091   1.364   1.990   3.223  0.0105 -0.9737 -0.8583
 7534TIP3   OH244092   0.031   3.771  29.407  0.1051 -0.1756 -0.0107
 7534TIP3    H144093   0.086   3.746  29.482  0.7177 -0.1630 -0.4421
 7534TIP3    H244094  -0.056   3.783  29.443  0.7571  1.7258  1.0651
 7535TIP3   OH244095   3.458   3.015  33.325  0.0742 -0.2207 -0.0759
 7535TIP3    H144096   3.425   3.076  33.259 -0.3421 -0.7347 -0.3476
 7535TIP3    H244097   3.536   2.976  33.284  0.7583  0.6332  0.3775
 7536TIP3   OH244098   2.718   3.770  29.006 -1.0127  0.0879 -0.6282
 7536TIP3    H144099   2.711   3.724  29.089 -2.8634  1.2315 -0.0887
 7536TIP3    H244100   2.752   3.856  29.028 -1.6626  0.4539 -1.0346
 7537TIP3   OH244101   1.087   0.391   2.368  0.2813 -0.2133  0.2556
 7537TIP3    H144102   1.011   0.335   2.352  0.8255 -0.7000 -0.6918
 7537TIP3    H244103   1.077   0.465   2.309  0.3708 -0.0994  0.3805
 7538TIP3   OH244104   4.104   3.693  46.045 -0.0632 -0.1162  0.3133
 7538TIP3    H144105   4.070   3.727  45.962  0.5574 -0.1276  0.0417
 7538TIP3    H244106   4.048   3.618  46.065 -1.2836  0.9075  0.7908
 7539TIP3   OH244107   2.977   3.667  10.458  0.5657  0.2501 -0.3642
 7539TIP3    H144108   2.900   3.637  10.411  0.1358  1.1665 -0.2631
 7539TIP3    H244109   2.956   3.757  10.485  2.6928  1.5831 -2.7382
 7540TIP3   OH244110   3.478   0.977   6.990  0.5588  0.4712 -0.5417
 7540TIP3    H144111   3.431   1.044   7.039  0.8732 -0.2815  0.8424
 7540TIP3    H244112   3.563   0.971   7.033 -0.4691 -2.8986  1.4537
 7541TIP3   OH244113   2.671   0.017  38.656 -0.0879 -0.0194 -0.1535
 7541TIP3    H144114   2.744  -0.024  38.608  1.4140  1.0373  1.1170
 7541TIP3    H244115   2.685   0.111  38.645 -0.4667  0.2180  1.2120
 7542TIP3   OH244116   2.173   2.519  38.162  0.6021  0.5793  0.1518
 7542TIP3    H144117   2.104   2.453  38.173  1.6424 -0.2840  1.9609
 7542TIP3    H244118   2.163   2.577  38.238  0.9862  1.3221 -0.3459
 7543TIP3   OH244119   2.921   3.092   2.357 -0.4944  0.2700 -0.4048
 7543TIP3    H144120   2.895   3.029   2.424 -0.4516 -0.4664 -1.0608
 7543TIP3    H244121   2.951   3.168   2.406 -0.0668 -0.4134  0.4244
 7544TIP3   OH244122   1.927   0.347  34.342 -0.4414  0.1197 -0.5632
 7544TIP3    H144123   2.021   0.351  34.361 -0.2606  0.3003 -1.4752
 7544TIP3    H244124   1.905   0.436  34.313 -0.4863 -0.4153 -2.2279
 7545TIP3   OH244125   3.315   0.877  14.482 -0.0580 -0.3864 -0.2075
 7545TIP3    H144126   3.287   0.918  14.400  0.8818  1.8657  0.5178
 7545TIP3    H244127   3.273   0.930  14.551 -0.3848 -1.8892  0.7989
 7546TIP3   OH244128   0.301   0.897   4.199  0.0542 -0.0567 -0.1631
 7546TIP3    H144129   0.257   0.815   4.177  0.5414 -0.1537 -0.7889
 7546TIP3    H244130   0.394   0.876   4.198  0.1953  0.5732 -0.6182
 7547TIP3   OH244131   2.317   1.592   7.494 -0.1445 -0.3119 -0.2034
 7547TIP3    H144132   2.236   1.614   7.541 -0.6923 -1.4609 -0.5927
 7547TIP3    H244133   2.288   1.555   7.411  0.7861 -0.8512 -0.3013
 7548TIP3   OH244134   3.474   2.569   1.121  0.3431 -0.3449 -0.0720
 7548TIP3    H144135   3.438   2.487   1.156 -2.1686  1.2039  1.2786
 7548TIP3    H244136   3.478   2.554   1.027 -3.7209 -0.8744 -0.3665
 7549TIP3   OH244137   2.178   3.240  21.877 -0.3310 -0.1904  0.4651
 7549TIP3    H144138   2.238   3.166  21.890 -1.0555 -1.3080 -2.0223
 7549TIP3    H244139   2.138   3.253  21.963  1.1787 -1.4469  1.4277
 7550TIP3   OH244140   1.785   1.289  36.888  0.2237  0.2755  0.4085
 7550TIP3    H144141   1.752   1.345  36.818  2.8650  0.6362 -0.6390
 7550TIP3    H244142   1.722   1.300  36.959 -1.5617  1.2905 -1.2453
 7551TIP3   OH244143   1.287   3.791  11.656 -0.3746  0.1270  0.3324
 7551TIP3    H144144   1.340   3.718  11.625  0.6944  1.5391 -1.3909
 7551TIP3    H244145   1.321   3.809  11.743  1.6594  0.5933 -0.4863
 7552TIP3   OH244146   1.588   1.933  11.405 -0.5896  0.8536 -0.3599
 7552TIP3    H144147   1.541   1.900  11.482  1.7284  1.5301  1.4673
 7552TIP3    H244148   1.612   1.854  11.357  0.1275  0.1997  0.9991
 7553TIP3   OH244149   0.741   0.896   8.629  0.2114  0.2563  0.2523
 7553TIP3    H144150   0.738   0.801   8.640  0.4409  0.2463  0.2210
 7553TIP3    H244151   0.815   0.924   8.682  0.8818  0.2940 -0.6924
 7554TIP3   OH244152   1.233   1.771  15.106 -1.1047  0.0790 -0.2442
 7554TIP3    H144153   1.252   1.677  15.105  0.3866  0.3482 -0.0786
 7554TIP3    H244154   1.255   1.800  15.017 -0.7963  0.4061 -0.0618
 7555TIP3   OH244155   2.082   0.953   2.116  0.1002 -0.3449  0.5736
 7555TIP3    H144156   1.989   0.936   2.132  0.3637 -1.2971  1.1984
 7555TIP3    H244157   2.089   1.048   2.115 -0.4265 -0.1966  3.5259
 7556TIP3   OH244158   0.004   1.416   1.141 -0.2681  0.4075 -0.1553
 7556TIP3    H144159   0.077   1.358   1.159  1.9463  2.4430 -1.9269
 7556TIP3    H244160  -0.028   1.441   1.227 -0.2291 -2.0499  0.6491
 7557TIP3   OH244161   0.199   4.047   5.563  0.1390  0.6494 -0.3278
 7557TIP3    H144162   0.210   4.077   5.473 -0.9451  0.0352 -0.6862
 7557TIP3    H244163   0.280   4.003   5.585 -0.2801 -0.8603 -1.6727
 7558TIP3   OH244164   1.629   1.616  39.009 -0.6789  0.1153 -0.2641
 7558TIP3    H144165   1.578   1.626  39.090  1.0870  1.1792  0.7940
 7558TIP3    H244166   1.716   1.592  39.039  0.0183  0.5367 -1.8684
 7559TIP3   OH244167   1.587   1.783  12.331  0.0196 -0.1130  0.0160
 7559TIP3    H144168   1.673   1.760  12.296  0.0609  1.4866 -1.0318
 7559TIP3    H244169   1.530   1.711  12.305  0.5762 -0.1104 -1.2696
 7560TIP3   OH244170   3.359   0.412  38.775 -0.6820  0.7869  0.3762
 7560TIP3    H144171   3.268   0.423  38.801 -1.5516 -0.5351 -1.8200
 7560TIP3    H244172   3.379   0.321  38.797 -0.3175  0.6922 -0.3241
 7561TIP3   OH244173   0.248   0.556  34.390 -0.0324 -0.6668  0.1179
 7561TIP3    H144174   0.198   0.499  34.449  0.5116 -0.8759  0.3802
 7561TIP3    H244175   0.310   0.601  34.448 -0.8534  0.6436  0.0068
 7562TIP3   OH244176   1.952   1.875  12.525  0.1512 -1.1310 -0.5709
 7562TIP3    H144177   1.906   1.947  12.483  1.3806  1.3070  1.9861
 7562TIP3    H244178   1.999   1.915  12.598  0.4672 -4.6199  1.3572
 7563TIP3   OH244179   0.849   1.102  43.601  0.2379  0.2140  0.1172
 7563TIP3    H144180   0.851   1.185  43.649  0.6052  0.1340  0.2424
 7563TIP3    H244181   0.788   1.118  43.529  0.6013  0.7267 -0.0835
 7564TIP3   OH244182   3.197   0.083  11.905  0.3155  0.0791  0.4092
 7564TIP3    H144183   3.254   0.027  11.957  1.1394 -0.7073 -1.2409
 7564TIP3    H244184   3.256   0.148  11.867 -0.1297  0.1838 -0.1109
 7565TIP3   OH244185   3.885   2.139  13.387 -0.0792  0.8297 -0.3129
 7565TIP3    H144186   3.866   2.113  13.296  0.7692 -0.1787 -0.2201
 7565TIP3    H244187   3.963   2.090  13.410  0.5679  2.1773  0.4964
 7566TIP3   OH244188   1.684   2.818  11.874  0.2623  1.0560 -0.0576
 7566TIP3    H144189   1.725   2.886  11.821  1.3406  0.3035 -0.2059
 7566TIP3    H244190   1.675   2.743  11.815  0.9296  0.4043  0.6536
 7567TIP3   OH244191   1.820   0.792  39.482 -0.5168 -0.6005  0.5568
 7567TIP3    H144192   1.771   0.784  39.564 -0.7787 -1.3908  0.3365
 7567TIP3    H244193   1.818   0.704  39.445  0.4051 -0.4633  0.1585
 7568TIP3   OH244194   1.947   2.294  32.552 -0.1066 -0.6060 -0.2365
 7568TIP3    H144195   1.855   2.297  32.575 -0.0492 -3.2726  0.7406
 7568TIP3    H244196   1.971   2.385  32.534 -2.7683  0.2139 -0.0257
 7569TIP3   OH244197   2.022   2.214  39.434  0.2536 -0.1769 -0.3381
 7569TIP3    H144198   1.995   2.200  39.343 -3.2883 -0.1240  0.5784
 7569TIP3    H244199   1.957   2.275  39.470  0.4927 -1.5117  2.6964
 7570TIP3   OH244200   3.357   3.025   1.595 -0.3136  0.0851 -0.4764
 7570TIP3    H144201   3.269   2.989   1.611  0.3170 -0.9929  0.7137
 7570TIP3    H244202   3.392   2.970   1.525 -0.3708  0.1291 -0.5394
 7571TIP3   OH244203   3.241   2.260   8.664  0.4142 -0.3552 -0.1433
 7571TIP3    H144204   3.274   2.307   8.741  0.1276 -2.6284  1.4505
 7571TIP3    H244205   3.190   2.325   8.616  1.1738  1.2975  1.2060
 7572TIP3   OH244206   1.056   2.743  46.908  0.4007 -0.4294 -0.1254
 7572TIP3    H144207   1.047   2.820  46.963 -1.1103  0.9309 -2.1455
 7572TIP3    H244208   1.142   2.754  46.866  0.4642 -0.1842  0.0638
 7573TIP3   OH244209   2.032   1.410   7.999 -0.5640 -0.7354  0.2047
 7573TIP3    H144210   2.073   1.325   7.978 -0.2490 -0.9724  1.6704
 7573TIP3    H244211   2.106   1.466   8.024 -0.8478 -0.2455 -0.0528
 7574TIP3   OH244212   4.082   3.563   4.428 -0.3593  0.1706  0.1374
 7574TIP3    H144213   4.174   3.535   4.428 -0.0684  1.0994 -0.5807
 7574TIP3    H244214   4.078   3.630   4.497 -0.2063  1.0176 -0.6610
 7575TIP3   OH244215   1.001   2.782  11.360 -0.4964 -0.1182 -0.1432
 7575TIP3    H144216   1.049   2.783  11.443  1.8840 -0.5005 -1.4080
 7575TIP3    H244217   0.929   2.721  11.374  0.2889 -0.7341  1.4285
 7576TIP3   OH244218   2.783   3.507  39.155  0.4697 -0.4825  0.3278
 7576TIP3    H144219   2.812   3.536  39.069 -2.0875 -1.3763 -0.9457
 7576TIP3    H244220   2.762   3.588  39.202 -1.0651 -0.0165 -1.0708
 7577TIP3   OH244221   3.835   3.648  31.920  0.1891  0.1811 -0.5181
 7577TIP3    H144222   3.877   3.618  31.839  0.5692 -0.8412  0.0506
 7577TIP3    H244223   3.871   3.736  31.934 -2.5410  1.9510 -3.3482
 7578TIP3   OH244224   2.635   1.701   9.404  0.1199 -0.6146 -0.4320
 7578TIP3    H144225   2.553   1.751   9.394  0.8270  0.4670 -1.0181
 7578TIP3    H244226   2.652   1.664   9.318  0.4782 -0.4590 -0.4309
 7579TIP3   OH244227   3.691   0.325  15.744  0.5328 -0.5009 -0.0791
 7579TIP3    H144228   3.734   0.379  15.811 -1.1631 -0.9427  1.4889
 7579TIP3    H244229   3.606   0.368  15.731  0.0460 -1.5470 -0.4568
 7580TIP3   OH244230   3.224   3.452  32.491  0.2944  0.3303  0.0911
 7580TIP3    H144231   3.264   3.533  32.459 -0.7424  0.1715 -1.7449
 7580TIP3    H244232   3.133   3.476  32.509  0.8561  0.4589  3.3095
 7581TIP3   OH244233   3.364   0.622  13.126  0.1316  0.1700 -1.0346
 7581TIP3    H144234   3.292   0.570  13.090  1.1868 -1.0026 -1.5430
 7581TIP3    H244235   3.379   0.586  13.214  1.4532 -1.0672 -1.7208
 7582TIP3   OH244236   0.082   3.389  14.210 -0.1046  0.0754  0.2548
 7582TIP3    H144237   0.117   3.334  14.140  0.5542  1.6487 -0.6874
 7582TIP3    H244238  -0.013   3.377  14.204 -0.0540  0.1124 -0.8433
 7583TIP3   OH244239   1.185   0.859  47.054 -0.6341 -0.0751  0.8040
 7583TIP3    H144240   1.231   0.943  47.056 -0.0562 -0.4051  2.4758
 7583TIP3    H244241   1.154   0.852  46.964 -0.1861  1.6502  0.4703
 7584TIP3   OH244242   1.391   0.174  33.974  0.1829  0.0556 -0.4245
 7584TIP3    H144243   1.434   0.241  34.027 -3.1703  1.8372  0.3391
 7584TIP3    H244244   1.393   0.096  34.028  1.7653  0.2487 -0.1546
 7585TIP3   OH244245   1.867   2.535  37.819  0.6174 -0.2521 -0.4194
 7585TIP3    H144246   1.911   2.498  37.742  0.2597  0.1634 -0.8365
 7585TIP3    H244247   1.804   2.598  37.782 -0.0018 -0.5046  0.1868
 7586TIP3   OH244248   3.772   1.449   1.924  0.3757 -0.4390  0.3616
 7586TIP3    H144249   3.805   1.539   1.924  0.9728 -0.6402  2.0343
 7586TIP3    H244250   3.713   1.445   2.000 -0.4622 -1.1866 -0.3038
 7587TIP3   OH244251   0.044   2.155  41.836  0.0206  0.0035  0.1139
 7587TIP3    H144252   0.010   2.079  41.882  0.1831 -0.2699 -0.2097
 7587TIP3    H244253   0.137   2.135  41.822 -0.4298 -0.8795 -2.1510
 7588TIP3   OH244254   0.035   2.527  16.330 -0.5073 -0.0343 -0.0969
 7588TIP3    H144255  -0.006   2.528  16.243 -1.8434  0.3750  0.5127
 7588TIP3    H244256   0.127   2.544  16.313 -0.9868  1.5919 -1.3341
 7589TIP3   OH244257   0.736   3.072  12.075  0.7300 -0.0915  0.1641
 7589TIP3    H144258   0.761   2.987  12.113 -0.0471 -0.0867  0.7110
 7589TIP3    H244259   0.664   3.102  12.130 -0.3394 -0.0038 -1.2185
 7590TIP3   OH244260   1.157   1.433  45.466  0.2811  0.2394 -0.2768
 7590TIP3    H144261   1.118   1.519  45.451 -1.4765 -0.3214  0.7452
 7590TIP3    H244262   1.166   1.428  45.562  2.4123  0.1070 -0.4381
 7591TIP3   OH244263   1.340   1.113  43.949 -0.2446 -0.0811 -0.2798
 7591TIP3    H144264   1.332   1.068  43.864  2.1791 -0.0941 -0.5686
 7591TIP3    H244265   1.250   1.132  43.974 -1.0502  0.0403 -2.9262
 7592TIP3   OH244266   1.371   1.586   9.141  0.1994  0.0616  0.0711
 7592TIP3    H144267   1.398   1.590   9.049  1.5912  0.1818  0.4617
 7592TIP3    H244268   1.299   1.524   9.142  1.1318 -1.1049 -0.8907
 7593TIP3   OH244269   1.996   3.889   2.427 -0.3419  0.5067  0.5142
 7593TIP3    H144270   1.910   3.891   2.386  0.3787 -0.0245 -1.1254
 7593TIP3    H244271   2.057   3.885   2.354  1.1204  1.4549  1.6198
 7594TIP3   OH244272   3.965   0.678  45.231  0.4600  0.0044  0.0825
 7594TIP3    H144273   3.925   0.658  45.315  0.3139  1.8167  0.4974
 7594TIP3    H244274   3.893   0.710  45.176  0.4785 -1.5580 -0.8971
 7595TIP3   OH244275   0.982   2.308  15.339  0.4406 -0.0883  0.2515
 7595TIP3    H144276   1.044   2.290  15.410  1.7670  1.4716 -0.4443
 7595TIP3    H244277   0.950   2.222  15.313  3.0351 -1.0917  0.0204
 7596TIP3   OH244278   2.100   2.952  15.848  0.4822  0.0723 -0.2252
 7596TIP3    H144279   2.105   2.940  15.753  1.4967  0.9268 -0.3034
 7596TIP3    H244280   2.124   3.044  15.861 -1.5817  0.5192  0.7170
 7597TIP3   OH244281   0.924   1.078   8.464 -1.0325  0.7599  0.6215
 7597TIP3    H144282   0.924   0.985   8.443  2.3915  0.7331  0.0999
 7597TIP3    H244283   0.864   1.117   8.400  0.6233 -0.7081 -2.0581
 7598TIP3   OH244284   3.458   2.788  43.106 -0.4491  0.0703  0.2066
 7598TIP3    H144285   3.445   2.723  43.175 -1.1075 -0.6994 -0.6330
 7598TIP3    H244286   3.543   2.827  43.126  0.2474 -1.4814  0.3706
 7599TIP3   OH244287   1.482   2.969  36.094  0.0980 -0.4299  0.4439
 7599TIP3    H144288   1.453   3.059  36.078  0.6555 -0.5053 -1.1413
 7599TIP3    H244289   1.487   2.962  36.189 -0.0795  1.1734  0.5976
 7600TIP3   OH244290   1.707   1.257  34.971  0.4055  0.2031  0.3618
 7600TIP3    H144291   1.612   1.263  34.974  0.4348  2.0501 -0.6041
 7600TIP3    H244292   1.731   1.196  35.041 -1.5980 -2.1219 -0.8522
 7601TIP3   OH244293   1.641   1.981   8.104  0.9428  0.7765  0.2190
 7601TIP3    H144294   1.682   1.940   8.180  2.2890  2.1362  0.2984
 7601TIP3    H244295   1.702   1.965   8.032  0.6367  1.1377 -0.1297
 7602TIP3   OH244296   0.034   0.739  10.588  0.4593 -0.5982  0.0099
 7602TIP3    H144297   0.099   0.688  10.635  1.9527  0.3527 -0.9331
 7602TIP3    H244298   0.045   0.828  10.620 -0.6222 -0.4759  0.0781
 7603TIP3   OH244299   1.357   1.332  12.488  0.1057 -0.8339 -0.0365
 7603TIP3    H144300   1.350   1.427  12.481 -0.2827 -0.9164 -0.9248
 7603TIP3    H244301   1.340   1.313  12.580  1.6415  0.0678  0.4563
 7604TIP3   OH244302   3.819   3.474  46.178  0.2112  0.4229 -0.5127
 7604TIP3    H144303   3.870   3.409  46.227 -1.4186 -1.2243 -0.8945
 7604TIP3    H244304   3.813   3.549  46.238  4.4372  1.4874 -1.0799
 7605TIP3   OH244305   1.493   3.182  45.235  0.1628  0.0301  0.1193
 7605TIP3    H144306   1.455   3.100  45.266 -1.0888 -0.2924 -2.0590
 7605TIP3    H244307   1.561   3.203  45.299 -1.2218 -1.3192  2.1458
 7606TIP3   OH244308   2.510   3.165  11.956  0.1894  0.0732  0.2190
 7606TIP3    H144309   2.431   3.166  11.901  0.0177  0.1627  0.4660
 7606TIP3    H244310   2.485   3.114  12.033  0.2140  0.5167  0.5247
 7607TIP3   OH244311   0.639   0.282  33.561 -0.0937  0.0061  0.1967
 7607TIP3    H144312   0.631   0.348  33.631 -0.4203 -0.5058  0.6532
 7607TIP3    H244313   0.699   0.321  33.498 -0.2603  0.7334  0.4736
 7608TIP3   OH244314   2.406   1.499  35.063 -0.4023 -0.2295 -0.0066
 7608TIP3    H144315   2.484   1.535  35.104 -0.5088 -0.1118  0.0931
 7608TIP3    H244316   2.430   1.487  34.972 -0.8481  1.5803 -0.4125
 7609TIP3   OH244317   1.652   1.526  19.431 -0.2518  0.1358  0.4891
 7609TIP3    H144318   1.567   1.568  19.414 -0.5885 -0.4000  0.7961
 7609TIP3    H244319   1.659   1.526  19.527 -0.3075 -0.5957  0.4989
 7610TIP3   OH244320   2.438   3.005   4.955 -0.2919 -0.0242  0.2283
 7610TIP3    H144321   2.512   2.986   4.897 -0.8419  0.8939 -0.8161
 7610TIP3    H244322   2.478   3.042   5.034  0.3224  1.8652 -0.9109
 7611TIP3   OH244323   1.826   0.505   7.364 -0.3734  0.0895 -0.7958
 7611TIP3    H144324   1.808   0.559   7.441 -0.6106 -1.1680  0.0685
 7611TIP3    H244325   1.781   0.550   7.292 -3.7006 -0.7916  0.5504
 7612TIP3   OH244326   1.699   0.014  24.952  0.4019 -0.1003  0.1288
 7612TIP3    H144327   1.680   0.099  24.993  0.6785  0.1675 -0.2815
 7612TIP3    H244328   1.791   0.021  24.925  0.7692 -0.9715  1.1192
 7613TIP3   OH244329   0.116   2.906  47.013 -0.1934  0.2747  0.1382
 7613TIP3    H144330   0.188   2.860  46.971 -1.4867 -0.6908 -1.1387
 7613TIP3    H244331   0.157   2.978  47.061  1.5685 -0.1185 -0.7136
 7614TIP3   OH244332   0.036   2.002  20.741 -0.3005  0.0554  0.1852
 7614TIP3    H144333  -0.011   2.016  20.824  0.3467  0.8375  0.4424
 7614TIP3    H244334   0.025   2.084  20.693 -1.0301 -0.5494 -0.7043
 7615TIP3   OH244335   1.098   3.712   6.519  0.4193  0.2968 -0.4324
 7615TIP3    H144336   1.121   3.796   6.558  0.2036  1.2366 -2.2063
 7615TIP3    H244337   1.182   3.673   6.496  0.4962  0.4440 -0.4042
 7616TIP3   OH244338   1.632   2.698  47.277 -0.4101 -0.1882  0.2446
 7616TIP3    H144339   1.583   2.748  47.212  2.3589  0.6695 -1.3573
 7616TIP3    H244340   1.571   2.631  47.307 -2.9073  1.5456 -0.6441
 7617TIP3   OH244341   2.749   2.779  46.464 -0.1527  0.3348 -0.0794
 7617TIP3    H144342   2.710   2.694  46.444 -0.2400  0.1601  0.7795
 7617TIP3    H244343   2.769   2.775  46.558  2.4842  0.1940 -0.5789
 7618TIP3   OH244344   0.731   2.996  39.246 -0.8977 -0.1069 -0.2729
 7618TIP3    H144345   0.826   2.993  39.252 -0.8839  1.7770  3.5074
 7618TIP3    H244346   0.713   3.072  39.190 -0.1383  0.3484  0.0817
 7619TIP3   OH244347   3.973   0.023  27.894  0.2847 -0.2018  0.2408
 7619TIP3    H144348   3.915   0.037  27.968 -0.8313 -1.7549 -0.2922
 7619TIP3    H244349   3.926   0.059  27.819  0.0298 -1.3549 -0.1733
 7620TIP3   OH244350   0.113   2.922  33.180 -0.7911 -0.0642 -0.0973
 7620TIP3    H144351   0.113   2.928  33.276  0.2880  1.2402 -0.1514
 7620TIP3    H244352   0.099   2.829  33.162  1.5603 -0.8115  1.4023
 7621TIP3   OH244353   2.011   2.445   9.410  0.7477  0.3058 -0.3791
 7621TIP3    H144354   1.938   2.386   9.432  1.1839  0.5151  1.8600
 7621TIP3    H244355   2.087   2.387   9.406  0.6236  0.2003 -1.9927
 7622TIP3   OH244356   3.455   3.553  34.830  0.0529  0.0127  0.1107
 7622TIP3    H144357   3.482   3.475  34.877 -0.8333 -0.1448  0.3684
 7622TIP3    H244358   3.471   3.532  34.738 -0.7698 -0.7253  0.1218
 7623TIP3   OH244359   0.217   3.568  38.292 -0.1047 -0.2187 -0.1647
 7623TIP3    H144360   0.259   3.506  38.233 -1.6716  0.8107 -2.5247
 7623TIP3    H244361   0.123   3.553  38.280 -0.4871  1.1983  0.7784
 7624TIP3   OH244362   2.174   0.752  41.769 -0.4082 -0.6627 -0.0891
 7624TIP3    H144363   2.105   0.817  41.786  1.3722  1.0115  1.1460
 7624TIP3    H244364   2.250   0.803  41.744  0.8376 -2.3396  0.0861
 7625TIP3   OH244365   4.063   2.798  31.248 -0.1352  0.5622  0.2771
 7625TIP3    H144366   4.019   2.777  31.331  1.5637 -1.9607  0.6351
 7625TIP3    H244367   4.123   2.868  31.271 -0.2095  0.3979  1.0068
 7626TIP3   OH244368   2.086   3.623   6.352 -0.0744  0.3914 -0.3473
 7626TIP3    H144369   2.061   3.570   6.427 -1.0586  1.1520 -0.1070
 7626TIP3    H244370   2.084   3.713   6.384  1.9203  0.5740 -0.6557
 7627TIP3   OH244371   2.663   3.352   0.787  0.0377  0.1727  0.1246
 7627TIP3    H144372   2.700   3.288   0.726  1.8605  0.4519  0.8593
 7627TIP3    H244373   2.576   3.319   0.807 -0.0244 -0.7293 -1.4267
 7628TIP3   OH244374   1.519   2.063   0.380 -0.6223 -0.4988 -0.1598
 7628TIP3    H144375   1.590   2.122   0.407  2.0414 -1.9083 -3.2626
 7628TIP3    H244376   1.546   1.977   0.412 -0.5814 -1.1513 -1.8583
 7629TIP3   OH244377   0.588   2.842  40.696  0.2171 -0.0962  0.1247
 7629TIP3    H144378   0.508   2.795  40.717  1.6325 -2.9151 -0.2552
 7629TIP3    H244379   0.617   2.880  40.779 -1.1140  0.4293  0.3808
 7630TIP3   OH244380   1.442   3.212  13.417  0.7345 -0.3412  0.4012
 7630TIP3    H144381   1.478   3.132  13.455  1.3985 -0.5799 -0.7009
 7630TIP3    H244382   1.389   3.183  13.343 -0.0547  0.1632  0.7439
 7631TIP3   OH244383   1.066   1.822   3.161 -0.3525 -0.1843 -0.0391
 7631TIP3    H144384   1.093   1.787   3.076  1.9165 -1.0212  0.9461
 7631TIP3    H244385   1.139   1.880   3.187 -1.1739  0.3288  1.1827
 7632TIP3   OH244386   2.406   2.314  22.760  0.0071  0.0666 -0.1798
 7632TIP3    H144387   2.496   2.283  22.751 -0.4896 -1.4515 -0.1153
 7632TIP3    H244388   2.393   2.370  22.683  0.5527 -0.8634 -0.9828
 7633TIP3   OH244389   0.299   1.434  14.253  0.5853 -0.2931 -0.2610
 7633TIP3    H144390   0.355   1.361  14.280 -1.0150 -1.1589  0.8764
 7633TIP3    H244391   0.251   1.458  14.332 -0.2715  0.7760 -1.0730
 7634TIP3   OH244392   3.341   1.201  15.127  0.1421  0.2738  0.0696
 7634TIP3    H144393   3.329   1.196  15.222  0.6646 -1.3571  0.0864
 7634TIP3    H244394   3.433   1.226  15.116  0.3463 -0.4672  0.0176
 7635TIP3   OH244395   1.738   3.733  41.900  0.4205 -0.1895  0.2363
 7635TIP3    H144396   1.803   3.694  41.842  0.5079  0.6187 -0.2219
 7635TIP3    H244397   1.662   3.750  41.843  0.1069 -0.3723  0.5927
 7636TIP3   OH244398   3.526   0.143  10.146 -0.5578 -0.4879 -0.5061
 7636TIP3    H144399   3.451   0.136  10.204 -1.6557 -2.1958 -2.0165
 7636TIP3    H244400   3.585   0.072  10.173 -0.6203 -0.6684 -0.8310
 7637TIP3   OH244401   4.006   0.199  30.816 -0.2584  0.2165 -0.2566
 7637TIP3    H144402   3.997   0.150  30.897  0.9659  0.8271  0.2738
 7637TIP3    H244403   4.023   0.132  30.749 -2.7586 -0.4381 -0.3415
 7638TIP3   OH244404   3.365   1.776  32.341  0.5615  0.4256 -0.1610
 7638TIP3    H144405   3.394   1.867  32.341 -0.5328  0.8452  2.0559
 7638TIP3    H244406   3.442   1.726  32.312  1.7285  1.8957  0.2749
 7639TIP3   OH244407   3.786   0.791  47.358  0.3299 -0.4096 -0.0659
 7639TIP3    H144408   3.864   0.796  47.413 -0.7974  0.3489  1.5293
 7639TIP3    H244409   3.762   0.698  47.359  0.2785 -0.3913  0.7972
 7640TIP3   OH244410   3.802   2.741  13.322  0.1224 -0.1481 -0.3188
 7640TIP3    H144411   3.844   2.658  13.303  0.3507 -0.1043  0.0021
 7640TIP3    H244412   3.820   2.757  13.414 -0.6098 -0.1409 -0.1715
 7641TIP3   OH244413   1.235   2.584   7.413 -0.1174 -0.4752  0.3313
 7641TIP3    H144414   1.152   2.625   7.437 -0.6355 -1.0651 -0.3998
 7641TIP3    H244415   1.276   2.645   7.351  0.4076  0.2185  1.3359
 7642TIP3   OH244416   0.271   0.676  44.740  0.2073 -0.6561  0.4307
 7642TIP3    H144417   0.270   0.738  44.812  2.3562  0.3347 -0.3118
 7642TIP3    H244418   0.207   0.710  44.677 -0.7712 -0.8568  1.2916
 7643TIP3   OH244419   1.555   3.915  47.003 -0.0502  0.7066 -0.4888
 7643TIP3    H144420   1.556   3.967  46.922  1.3705  2.0816  0.3510
 7643TIP3    H244421   1.645   3.884  47.013 -1.0442 -2.9589 -1.5111
 7644TIP3   OH244422   2.085   1.328  11.778  0.3651 -0.9123 -0.1592
 7644TIP3    H144423   1.992   1.349  11.779  0.9573  2.2685  0.5427
 7644TIP3    H244424   2.114   1.355  11.690  0.7349 -1.2422 -0.1399
 7645TIP3   OH244425   3.181   0.361  36.888  0.4407  0.3062 -0.2112
 7645TIP3    H144426   3.134   0.279  36.870  1.5691 -0.1718 -1.1718
 7645TIP3    H244427   3.178   0.370  36.983  0.5093 -1.0019 -0.0655
 7646TIP3   OH244428   0.964   2.522  14.603  0.0500 -0.6275  0.1603
 7646TIP3    H144429   1.039   2.567  14.564  0.2968 -0.9015  0.3158
 7646TIP3    H244430   0.930   2.584  14.668 -0.8391  0.1596 -1.0013
 7647TIP3   OH244431   0.927   0.337  33.144 -0.0647 -0.3060  0.0239
 7647TIP3    H144432   0.834   0.319  33.154 -0.1056 -0.9890 -1.3150
 7647TIP3    H244433   0.948   0.398  33.215 -1.5683  0.0032  0.2325
 7648TIP3   OH244434   2.950   0.689  32.505  0.5734 -0.2107  0.5616
 7648TIP3    H144435   2.969   0.680  32.598 -0.3306 -1.3072  0.6629
 7648TIP3    H244436   2.859   0.660  32.495 -0.6132  3.3159 -0.1425
 7649TIP3   OH244437   3.463   1.199  47.213 -0.1222  0.8946  0.2318
 7649TIP3    H144438   3.542   1.150  47.191 -0.0982  1.4722 -1.0633
 7649TIP3    H244439   3.395   1.164  47.156 -0.6066  0.9515  0.7624
 7650TIP3   OH244440   0.372   3.254  40.085  0.7679 -0.1285 -0.7110
 7650TIP3    H144441   0.377   3.220  39.996  1.1032  0.4751 -0.9258
 7650TIP3    H244442   0.362   3.176  40.140 -1.8037 -0.3782 -1.4251
 7651TIP3   OH244443   0.943   2.297   4.652  0.2006  0.4074 -0.1818
 7651TIP3    H144444   0.952   2.278   4.558  0.4763  1.6273 -0.4283
 7651TIP3    H244445   0.884   2.229   4.685 -0.0877  0.0965 -1.2895
 7652TIP3   OH244446   3.515   2.944  32.842  0.6859  0.0906  0.6543
 7652TIP3    H144447   3.449   2.916  32.778  2.0159  1.6225 -1.5283
 7652TIP3    H244448   3.506   2.882  32.914 -0.9548 -1.7130 -0.9666
 7653TIP3   OH244449   0.043   2.254   0.663  0.1899  0.4173  0.3858
 7653TIP3    H144450   0.103   2.312   0.617  0.0740  0.4520  0.2769
 7653TIP3    H244451  -0.038   2.306   0.671 -0.1550  0.0008 -0.3587
 7654TIP3   OH244452   1.985   0.789   9.775 -0.5229 -0.0809  0.2756
 7654TIP3    H144453   2.045   0.778   9.849  0.4789 -0.1147 -0.5126
 7654TIP3    H244454   2.010   0.720   9.714  0.7345  1.7302 -1.4059
 7655TIP3   OH244455   2.952   2.427  41.100  0.3947 -0.0591 -0.2411
 7655TIP3    H144456   2.905   2.345  41.088  1.1288 -0.4179 -0.7219
 7655TIP3    H244457   2.893   2.494  41.064 -0.7544 -0.1996  1.3137
 7656TIP3   OH244458   1.813   0.818  16.611  0.3239 -0.3800 -0.2225
 7656TIP3    H144459   1.904   0.793  16.624  0.1670  0.0242  2.2242
 7656TIP3    H244460   1.777   0.824  16.700 -2.0906 -0.5357 -1.1126
 7657TIP3   OH244461   3.942   0.581   6.489 -0.1536 -0.5328 -0.0762
 7657TIP3    H144462   3.852   0.558   6.466 -0.3265  0.1169 -0.0785
 7657TIP3    H244463   3.932   0.652   6.553  0.3298 -1.5459  1.1601
 7658TIP3   OH244464   2.808   2.733  36.619 -0.2029  0.1862 -0.1352
 7658TIP3    H144465   2.859   2.765  36.693  0.1433 -1.0000  0.1536
 7658TIP3    H244466   2.872   2.726  36.548 -0.6224  1.7728 -0.7170
 7659TIP3   OH244467   2.286   1.065  15.802  0.0037 -0.1390 -0.7407
 7659TIP3    H144468   2.359   1.101  15.753  0.3771  0.6852  0.3934
 7659TIP3    H244469   2.283   0.972  15.777 -0.1054  0.3471 -2.6249
 7660TIP3   OH244470   0.636   3.950  29.617 -0.9263  0.0690 -0.1418
 7660TIP3    H144471   0.577   3.970  29.545 -2.9102  0.1169  1.4086
 7660TIP3    H244472   0.710   4.009  29.605 -1.5570  0.5785 -1.7146
 7661TIP3   OH244473   2.139   1.145  39.204 -0.2287 -0.5846  0.0373
 7661TIP3    H144474   2.119   1.108  39.117  0.8310  0.4726 -0.6926
 7661TIP3    H244475   2.142   1.239  39.189  1.8147 -0.4745  0.7893
 7662TIP3   OH244476   1.017   2.156   0.818 -0.4763  0.3601  0.0895
 7662TIP3    H144477   1.057   2.220   0.877 -1.1512 -0.2148  1.1904
 7662TIP3    H244478   0.937   2.128   0.863  0.5803 -2.4397  0.3902
 7663TIP3   OH244479   1.638   3.048  10.305 -0.3052 -0.3194  0.7650
 7663TIP3    H144480   1.588   2.972  10.334  0.1717 -0.2040  1.9395
 7663TIP3    H244481   1.700   3.065  10.376  1.4709 -0.5093 -0.6566
 7664TIP3   OH244482   2.189   0.409  34.015 -0.7862 -0.1840  0.1699
 7664TIP3    H144483   2.224   0.424  34.103 -1.3906  0.8686  0.2536
 7664TIP3    H244484   2.156   0.319  34.018 -0.8310 -0.1551  1.0352
 7665TIP3   OH244485   2.341   3.765  32.074  0.3220 -0.1099 -0.4446
 7665TIP3    H144486   2.258   3.812  32.081 -0.8367 -1.8688 -1.4456
 7665TIP3    H244487   2.368   3.779  31.983 -1.5547 -3.5343 -1.7169
 7666TIP3   OH244488   2.708   0.112  36.577 -0.2926  0.2990  0.0870
 7666TIP3    H144489   2.790   0.083  36.536 -0.8153 -0.2960 -0.5654
 7666TIP3    H244490   2.706   0.206  36.561 -0.3816  0.1148 -1.1032
 7667TIP3   OH244491   1.597   2.108   3.104 -0.1841 -0.9680  0.1618
 7667TIP3    H144492   1.584   2.035   3.043 -0.4688 -0.4162 -0.4524
 7667TIP3    H244493   1.673   2.155   3.068 -0.4305 -0.5691  0.1641
 7668TIP3   OH244494   2.090   3.122  47.717  0.0829  0.4369 -0.6011
 7668TIP3    H144495   2.141   3.165  47.648 -0.1010  0.2322 -0.8665
 7668TIP3    H244496   2.062   3.039  47.678  2.9614 -1.3829  0.8978
 7669TIP3   OH244497   2.877   2.400   6.221  0.8917 -0.1043 -0.5814
 7669TIP3    H144498   2.959   2.433   6.182  1.9955 -0.4176  1.3519
 7669TIP3    H244499   2.905   2.329   6.279 -1.1490 -2.6464 -2.4993
 7670TIP3   OH244500   3.951   2.377  37.353 -0.1920 -0.5822  0.5523
 7670TIP3    H144501   3.956   2.472  37.361  1.7369 -0.6710  0.8557
 7670TIP3    H244502   3.903   2.362  37.272 -1.6319  0.6151  1.1501
 7671TIP3   OH244503   0.778   0.527  10.063  0.1885 -0.1169 -0.2492
 7671TIP3    H144504   0.845   0.574  10.113 -0.2033 -0.8345  0.9627
 7671TIP3    H244505   0.827   0.462  10.012  0.4898 -0.0874  0.0007
 7672TIP3   OH244506   3.878   0.380  40.831  0.1545  0.3708  0.6084
 7672TIP3    H144507   3.930   0.310  40.872 -0.6646  0.2104  1.4150
 7672TIP3    H244508   3.939   0.454  40.823  0.1459  0.6889  2.9152
 7673TIP3   OH244509   4.103   1.148  46.218 -0.4904  0.0512 -0.1163
 7673TIP3    H144510   4.158   1.214  46.177 -1.2224 -0.2109 -1.5679
 7673TIP3    H244511   4.161   1.073  46.231  0.1023  0.6237  0.6670
 7674TIP3   OH244512   0.730   0.344  38.160 -0.0836 -1.0546 -0.1380
 7674TIP3    H144513   0.727   0.327  38.066 -0.3346 -2.3166  0.0837
 7674TIP3    H244514   0.650   0.394  38.178 -0.1961 -1.0881 -0.5372
 7675TIP3   OH244515   3.260   1.154  33.349 -0.3605 -0.4217 -0.8247
 7675TIP3    H144516   3.320   1.081  33.366 -0.6898 -0.5840 -0.3290
 7675TIP3    H244517   3.311   1.232  33.370  0.2377 -0.4608 -2.0672
 7676TIP3   OH244518   2.638   3.071   5.519  0.4880 -0.2198  0.1430
 7676TIP3    H144519   2.673   3.007   5.581  0.3240  0.5818  1.0740
 7676TIP3    H244520   2.715   3.108   5.476  0.5932 -0.8966 -0.2793
 7677TIP3   OH244521   2.607   0.813   0.794  0.0721 -0.0213 -0.5369
 7677TIP3    H144522   2.620   0.735   0.847 -0.0379  1.9399  2.6416
 7677TIP3    H244523   2.695   0.840   0.768  0.1413 -0.8842 -1.2696
 7678TIP3   OH244524   0.046   1.303  40.546  0.0968 -0.0582 -0.0503
 7678TIP3    H144525  -0.036   1.353  40.545 -1.5374 -2.5389 -1.3899
 7678TIP3    H244526   0.075   1.303  40.455  0.9938 -0.1336  0.2295
 7679TIP3   OH244527   1.594   0.396   4.946 -0.0614  0.0564 -0.2518
 7679TIP3    H144528   1.631   0.485   4.952  1.6110 -0.6757  1.2099
 7679TIP3    H244529   1.576   0.372   5.036  0.0667 -1.3272 -0.5807
 7680TIP3   OH244530   2.451   3.188  42.037  0.1820  0.6130  0.4855
 7680TIP3    H144531   2.521   3.124  42.049  0.1771  0.5210  0.0436
 7680TIP3    H244532   2.370   3.136  42.039  0.2954 -0.2203 -4.5677
 7681TIP3   OH244533   2.181   3.091   0.225 -0.1111  0.4654  0.6504
 7681TIP3    H144534   2.102   3.145   0.226 -0.8070 -0.4261 -1.0242
 7681TIP3    H244535   2.192   3.068   0.132  1.5965 -0.1828  0.9856
 7682TIP3   OH244536   2.206   2.697  30.907  0.1452  0.2549 -0.2121
 7682TIP3    H144537   2.218   2.789  30.885  1.2927  0.2206  0.1929
 7682TIP3    H244538   2.269   2.651  30.851 -1.2582 -0.4176 -1.3027
 7683TIP3   OH244539   3.400   3.499   8.909 -0.3144 -0.2201  0.3937
 7683TIP3    H144540   3.481   3.524   8.865  0.5858 -1.0839  1.5053
 7683TIP3    H244541   3.416   3.410   8.941 -2.4222 -1.2088 -1.0408
 7684TIP3   OH244542   3.671   0.784   6.238 -0.6473 -0.2400  0.0737
 7684TIP3    H144543   3.672   0.727   6.315 -2.1724 -1.5019 -0.7865
 7684TIP3    H244544   3.605   0.850   6.257 -0.3345  0.0395  0.2181
 7685TIP3   OH244545   3.796   2.828  30.464 -0.3570  0.0826 -0.2083
 7685TIP3    H144546   3.836   2.744  30.442  0.4104  0.5893 -0.8196
 7685TIP3    H244547   3.796   2.831  30.560  1.7727  0.3716 -0.1852
 7686TIP3   OH244548   2.267   3.035   9.990  0.4849  0.1011  0.1768
 7686TIP3    H144549   2.301   3.108  10.040 -0.5627  1.9596 -1.6527
 7686TIP3    H244550   2.182   3.016  10.029 -0.2785  1.4684 -0.7302
 7687TIP3   OH244551   1.077   1.996  42.810  0.4863  0.3947  0.2474
 7687TIP3    H144552   1.102   1.921  42.756  0.1113  0.3609  0.1234
 7687TIP3    H244553   1.013   1.961  42.871 -0.4251  0.8304 -0.4428
 7688TIP3   OH244554   2.138   2.348  15.286  0.0959 -0.3133 -0.2931
 7688TIP3    H144555   2.114   2.381  15.199  0.8141  0.0054 -0.3745
 7688TIP3    H244556   2.098   2.410  15.347 -0.3156 -0.4749 -0.3929
 7689TIP3   OH244557   2.016   3.046  36.850  0.2772 -0.1330  0.0584
 7689TIP3    H144558   2.006   3.020  36.759 -0.1713 -0.8742  0.3099
 7689TIP3    H244559   2.063   2.973  36.891  1.4221  0.6549  0.2079
 7690TIP3   OH244560   0.051   3.142  10.390 -0.0494  0.6640  0.8081
 7690TIP3    H144561   0.100   3.203  10.333 -1.5057  1.5162  0.4233
 7690TIP3    H244562  -0.040   3.167  10.378 -0.6291 -1.1907  1.1821
 7691TIP3   OH244563   3.119   1.160  36.765  0.2433  0.0646  0.5586
 7691TIP3    H144564   3.053   1.198  36.707  1.7483 -0.6892 -1.8252
 7691TIP3    H244565   3.071   1.135  36.844 -1.8657  1.5016 -0.1900
 7692TIP3   OH244566   1.127   2.574   5.429  0.3707 -0.5880  0.3364
 7692TIP3    H144567   1.150   2.581   5.522  0.4340  0.3086  0.2602
 7692TIP3    H244568   1.199   2.616   5.383 -0.1587 -0.0935 -0.0584
 7693TIP3   OH244569   0.204   3.384  43.109 -0.0677  0.0117 -0.0689
 7693TIP3    H144570   0.258   3.451  43.150 -1.5190  0.1484  1.7795
 7693TIP3    H244571   0.115   3.406  43.136 -0.7978 -1.4920 -1.1240
 7694TIP3   OH244572   2.497   3.190   1.334 -0.5784 -0.1499 -0.3144
 7694TIP3    H144573   2.435   3.208   1.404  0.1758 -0.1131  0.3590
 7694TIP3    H244574   2.579   3.171   1.379  0.5462  2.2137 -1.2072
 7695TIP3   OH244575   2.508   1.803  36.989  0.0247  0.2979  0.5779
 7695TIP3    H144576   2.446   1.873  37.008  0.6663  0.7231  1.1666
 7695TIP3    H244577   2.454   1.731  36.956 -0.6009  1.2342 -0.5336
 7696TIP3   OH244578   3.076   3.301  46.334 -0.1287  0.1503 -0.0237
 7696TIP3    H144579   2.985   3.319  46.359 -0.0732  1.6860 -0.8009
 7696TIP3    H244580   3.072   3.286  46.239  0.5089  1.1048 -0.2240
 7697TIP3   OH244581   1.934   0.023   0.918  0.2533  0.1616  0.0977
 7697TIP3    H144582   1.843   0.047   0.902  0.4183 -0.2054 -1.6640
 7697TIP3    H244583   1.930  -0.050   0.979 -0.5109  1.3514  1.5211
 7698TIP3   OH244584   2.861   2.778   9.304 -0.1061 -0.1826 -0.1788
 7698TIP3    H144585   2.942   2.829   9.308 -0.1686 -0.1466  1.5597
 7698TIP3    H244586   2.821   2.791   9.390 -3.0153  1.4685 -1.6006
 7699TIP3   OH244587   0.802   0.095   7.180  0.3603  0.3754 -0.4266
 7699TIP3    H144588   0.850   0.023   7.223 -0.1340 -0.7445 -1.6753
 7699TIP3    H244589   0.847   0.107   7.097  0.6756  1.8215 -0.0635
 7700TIP3   OH244590   0.129   1.687  21.101  0.1116 -0.0371  0.3356
 7700TIP3    H144591   0.170   1.765  21.062  0.5356  0.7474  2.2473
 7700TIP3    H244592   0.189   1.661  21.171 -1.1049 -0.7949  1.1270
 7701TIP3   OH244593   1.415   2.918   2.213 -0.7332 -0.0638 -0.4036
 7701TIP3    H144594   1.324   2.935   2.237 -0.6644 -0.2470 -0.0139
 7701TIP3    H244595   1.423   2.823   2.215 -0.2099 -0.0123  0.7774
 7702TIP3   OH244596   2.188   2.040  46.833 -0.3413  0.0923  0.3026
 7702TIP3    H144597   2.151   1.989  46.761  1.8487  1.2141 -1.7136
 7702TIP3    H244598   2.247   1.979  46.878  0.9821  0.3272 -1.0645
 7703TIP3   OH244599   3.480   0.054  34.602  0.1000  0.0626  0.0169
 7703TIP3    H144600   3.412   0.015  34.657 -0.1520  1.0060  0.3912
 7703TIP3    H244601   3.544  -0.017  34.589 -0.8096 -0.7576 -0.1293
 7704TIP3   OH244602   2.597   2.577  12.055 -0.1972 -1.0973  0.7735
 7704TIP3    H144603   2.642   2.660  12.067  1.0462 -1.6177 -0.0404
 7704TIP3    H244604   2.665   2.517  12.025 -1.1309 -2.3277  1.0170
 7705TIP3   OH244605   3.014   0.877  43.840 -0.1023  0.5876  0.2069
 7705TIP3    H144606   3.106   0.871  43.813  0.4633  1.3970  1.7662
 7705TIP3    H244607   2.998   0.971  43.846 -1.5172  0.4928 -1.4483
 7706TIP3   OH244608   2.844   1.264  32.615 -0.0584 -0.6272 -0.3679
 7706TIP3    H144609   2.924   1.236  32.570 -1.8457 -3.2384 -2.2105
 7706TIP3    H244610   2.789   1.301  32.546 -0.9375  0.0006  0.6345
 7707TIP3   OH244611   4.102   2.812  37.729  0.0333 -0.0620 -0.5915
 7707TIP3    H144612   4.186   2.857  37.729  0.0162 -0.0010  1.0462
 7707TIP3    H244613   4.110   2.748  37.657  2.4042 -1.7139  0.9805
 7708TIP3   OH244614   1.218   1.623  46.725 -1.0663 -0.3579 -0.1067
 7708TIP3    H144615   1.128   1.591  46.720 -1.3456  0.3047  0.4859
 7708TIP3    H244616   1.210   1.713  46.755 -0.1332 -0.8510  1.8058
 7709TIP3   OH244617   0.773   2.695  34.144  0.0617  0.0324 -0.1169
 7709TIP3    H144618   0.733   2.777  34.115 -1.7486 -0.5856  0.4770
 7709TIP3    H244619   0.792   2.708  34.237  1.0772  0.2425 -0.3454
 7710TIP3   OH244620   2.896   1.203  12.053  0.2745 -0.2959 -0.1877
 7710TIP3    H144621   2.809   1.214  12.014  0.0947  2.1145  0.6918
 7710TIP3    H244622   2.954   1.255  11.998  1.0153 -1.2266 -0.2992
 7711TIP3   OH244623   1.198   1.778  12.193  0.5826  0.6892 -0.4420
 7711TIP3    H144624   1.129   1.781  12.127  1.0156 -1.0786 -1.0045
 7711TIP3    H244625   1.152   1.793  12.276 -0.1773  1.4216 -0.9717
 7712TIP3   OH244626   3.041   1.968  14.161  0.0303 -0.0701 -0.3273
 7712TIP3    H144627   3.106   2.006  14.102 -0.8034  1.5772 -0.2276
 7712TIP3    H244628   3.091   1.936  14.236  0.7887  0.5285 -0.5705
 7713TIP3   OH244629   3.435   1.211   3.932  0.2979 -0.0145 -0.3335
 7713TIP3    H144630   3.370   1.281   3.934 -0.3472 -0.6120 -0.0327
 7713TIP3    H244631   3.463   1.207   3.841 -0.9484 -0.5160 -0.7233
 7714TIP3   OH244632   3.152   2.200   8.247  0.4380 -0.7831  0.2218
 7714TIP3    H144633   3.087   2.256   8.289  0.1480 -1.5017  0.7287
 7714TIP3    H244634   3.229   2.257   8.238  0.1077 -0.2633  0.6060
 7715TIP3   OH244635   3.030   1.598  44.873  0.3896  0.0204  0.2064
 7715TIP3    H144636   3.046   1.528  44.936  0.6315  0.6490  0.8512
 7715TIP3    H244637   2.961   1.652  44.913 -2.9775 -2.1441 -2.1142
 7716TIP3   OH244638   3.970   0.344  34.538  0.6978  0.1449  0.1436
 7716TIP3    H144639   3.995   0.436  34.541  0.2652  0.2608  0.1955
 7716TIP3    H244640   3.886   0.343  34.492  1.2247 -0.3396 -0.8346
 7717TIP3   OH244641   3.960   0.506   8.606 -0.1885  0.1200  0.3657
 7717TIP3    H144642   3.992   0.490   8.695 -2.7475 -0.2040  1.3046
 7717TIP3    H244643   3.899   0.578   8.615  0.1356  0.6409 -1.3127
 7718TIP3   OH244644   1.693   1.342  47.288 -0.2386 -0.2272 -0.0634
 7718TIP3    H144645   1.789   1.348  47.295 -0.3665  0.5319  1.2702
 7718TIP3    H244646   1.660   1.383  47.368 -1.7104  0.3929 -0.9441
 7719TIP3   OH244647   2.311   3.343  31.663 -0.2593  0.3449  0.8816
 7719TIP3    H144648   2.391   3.291  31.665  0.8852  1.6761 -2.6264
 7719TIP3    H244649   2.323   3.408  31.733  3.0674  2.1435 -1.0971
 7720TIP3   OH244650   0.702   1.081   2.876  0.4059  0.3311  0.3688
 7720TIP3    H144651   0.658   1.105   2.794  0.3992  2.8175  1.0183
 7720TIP3    H244652   0.792   1.109   2.864  0.2378  1.4294  1.4422
 7721TIP3   OH244653   1.313   3.513   0.759  0.1088  0.1303 -0.3824
 7721TIP3    H144654   1.375   3.551   0.820 -0.0089 -1.3070  0.6934
 7721TIP3    H244655   1.323   3.418   0.770 -1.1501 -0.1525 -1.3252
 7722TIP3   OH244656   1.092   3.480  27.921  0.0279  0.2385 -0.2883
 7722TIP3    H144657   1.083   3.502  27.828 -0.0579  0.0647 -0.3214
 7722TIP3    H244658   1.173   3.429  27.926  0.1712  0.4693 -0.2280
 7723TIP3   OH244659   3.733   1.496   6.195 -0.6253 -0.1350 -0.6549
 7723TIP3    H144660   3.810   1.439   6.192 -0.4170  0.1822 -1.7893
 7723TIP3    H244661   3.750   1.563   6.129 -0.7052  1.4850  0.9017
 7724TIP3   OH244662   3.495   0.314   3.647 -0.0601  0.0350 -0.5694
 7724TIP3    H144663   3.470   0.402   3.675  2.1348  0.2951  0.9039
 7724TIP3    H244664   3.506   0.265   3.729 -0.7991 -1.5014 -1.3407
 7725TIP3   OH244665   0.410   0.631  36.522 -0.1555  0.5486 -0.0483
 7725TIP3    H144666   0.406   0.700  36.455 -1.5064  0.4945 -0.0615
 7725TIP3    H244667   0.358   0.560  36.484 -1.9549  0.9460  1.5069
 7726TIP3   OH244668   2.205   3.237  41.110 -0.4997  0.4640 -0.0580
 7726TIP3    H144669   2.246   3.189  41.038  0.9418  1.4022  0.1100
 7726TIP3    H244670   2.276   3.255  41.171 -1.7458 -0.5795  1.8035
 7727TIP3   OH244671   1.121   2.481  34.744  0.7345 -0.2817  0.0606
 7727TIP3    H144672   1.121   2.576  34.746 -0.1053 -0.2271 -1.2742
 7727TIP3    H244673   1.044   2.458  34.693  1.9383 -1.6178 -1.2452
 7728TIP3   OH244674   1.510   3.795  38.151 -0.5228  0.4082  0.3926
 7728TIP3    H144675   1.578   3.825  38.091  0.1180  0.9600  1.3681
 7728TIP3    H244676   1.500   3.701  38.131  0.7556  0.2435  0.4591
 7729TIP3   OH244677   3.298   3.088  14.274  0.1547 -0.3237 -0.4081
 7729TIP3    H144678   3.336   3.005  14.304  0.2454 -1.0264 -2.3516
 7729TIP3    H244679   3.365   3.154  14.296  0.3139 -0.8261  0.6650
 7730TIP3   OH244680   3.350   1.787  14.726  0.3286  0.0882  0.5181
 7730TIP3    H144681   3.391   1.874  14.725  0.5858 -0.0289 -0.5748
 7730TIP3    H244682   3.258   1.804  14.747  0.1887  0.7351 -0.5097
 7731TIP3   OH244683   0.066   0.276  29.868 -0.0728  0.1536  0.1559
 7731TIP3    H144684   0.035   0.260  29.957  1.3465  2.2411  1.1207
 7731TIP3    H244685   0.022   0.357  29.841  0.1265 -0.0173 -0.7007
 7732TIP3   OH244686   1.826   2.555  46.750  0.9046  0.5411  0.0651
 7732TIP3    H144687   1.799   2.539  46.659  0.9344 -0.1990  0.1800
 7732TIP3    H244688   1.817   2.649  46.762  1.6404  0.7451 -0.9356
 7733TIP3   OH244689   3.228   2.607  46.204  0.6945  0.3844 -0.0903
 7733TIP3    H144690   3.162   2.673  46.223  0.4565  0.7745 -2.0761
 7733TIP3    H244691   3.184   2.524  46.223  0.4214  0.7070  0.7686
 7734TIP3   OH244692   0.972   3.634  47.089  0.3666 -0.4060  0.0205
 7734TIP3    H144693   0.989   3.640  47.183 -2.0359 -0.2434  0.5015
 7734TIP3    H244694   0.961   3.725  47.061 -0.3406 -0.5321 -0.1173
 7735TIP3   OH244695   1.205   3.729  31.750  0.0561  0.7453  0.2285
 7735TIP3    H144696   1.251   3.683  31.820  0.0081  0.7496  0.2624
 7735TIP3    H244697   1.152   3.796  31.794  2.1005  2.5985  0.0349
 7736TIP3   OH244698   2.791   2.211  45.031  0.1466  0.2061  0.6582
 7736TIP3    H144699   2.876   2.236  44.996  0.1219 -0.7994 -0.1674
 7736TIP3    H244700   2.792   2.115  45.030 -1.1988  0.1832  0.1400
 7737TIP3   OH244701   3.040   4.046   1.037 -0.2849  0.4631 -0.0014
 7737TIP3    H144702   3.019   4.084   0.952 -2.4247  0.5391  0.5247
 7737TIP3    H244703   3.052   3.953   1.019  1.0850  0.7331 -0.6436
 7738TIP3   OH244704   1.729   2.821   2.368  0.0080  0.6381 -0.1092
 7738TIP3    H144705   1.754   2.903   2.411  3.1742 -0.4766  0.4320
 7738TIP3    H244706   1.752   2.834   2.276 -1.1112  0.9056 -0.3694
 7739TIP3   OH244707   1.629   3.675  38.539 -0.4820 -0.6951 -0.0095
 7739TIP3    H144708   1.536   3.685  38.521 -0.2927  1.8787  0.1964
 7739TIP3    H244709   1.670   3.665  38.453 -0.3870  4.1818 -0.7869
 7740TIP3   OH244710   1.929   2.129  13.024 -0.0281  0.2260 -0.3691
 7740TIP3    H144711   1.936   2.223  13.039  0.9328  0.1845 -0.5349
 7740TIP3    H244712   2.001   2.091  13.073  0.4395 -0.2971 -1.4411
 7741TIP3   OH244713   2.211   3.998  27.522  0.5882  0.7240 -0.2545
 7741TIP3    H144714   2.246   3.974  27.436 -1.4568 -2.2071 -0.4139
 7741TIP3    H244715   2.170   4.083  27.509  2.1313  1.3094 -1.5945
 7742TIP3   OH244716   2.945   0.324  11.027  0.1883 -1.0278  0.2651
 7742TIP3    H144717   2.946   0.255  10.961 -1.6253 -1.0767  0.2275
 7742TIP3    H244718   2.989   0.398  10.985 -0.7519 -1.1204 -0.9606
 7743TIP3   OH244719   0.899   2.645  40.913 -0.1175 -0.1103  0.2127
 7743TIP3    H144720   0.810   2.674  40.934 -0.6092 -1.2632 -0.1865
 7743TIP3    H244721   0.891   2.550  40.900  1.8478 -0.9115  3.7576
 7744TIP3   OH244722   3.471   2.423   4.318 -0.2404 -0.3791  0.3453
 7744TIP3    H144723   3.471   2.385   4.230 -0.1689 -1.2645  0.7212
 7744TIP3    H244724   3.469   2.348   4.377  2.6819  0.0506  1.1573
 7745TIP3   OH244725   0.528   3.617  32.576  0.1930 -0.0619  0.0265
 7745TIP3    H144726   0.533   3.610  32.671 -0.2153 -0.4293  0.0172
 7745TIP3    H244727   0.493   3.705  32.561  2.4757  0.9600  0.1574
 7746TIP3   OH244728   2.182   3.017  27.539  0.2525 -0.0759  1.2524
 7746TIP3    H144729   2.259   2.973  27.574  0.2072  1.2622  3.1773
 7746TIP3    H244730   2.192   3.108  27.565 -0.9375  0.5787 -0.3548
 7747TIP3   OH244731   2.942   0.551   3.160  0.4115  0.0758 -0.5346
 7747TIP3    H144732   2.888   0.504   3.096  0.9808 -0.2969 -0.7432
 7747TIP3    H244733   2.970   0.630   3.113  0.3919  0.0651 -0.5646
 7748TIP3   OH244734   0.308   2.025  31.512 -0.0373 -0.4853 -0.3882
 7748TIP3    H144735   0.263   2.094  31.560  0.3075 -1.3848  1.3451
 7748TIP3    H244736   0.240   1.960  31.494 -0.3094  0.1517 -1.7918
 7749TIP3   OH244737   3.366   0.584   7.220  0.3160 -0.1842 -0.2396
 7749TIP3    H144738   3.354   0.675   7.191 -0.0900  0.1977  1.0872
 7749TIP3    H244739   3.287   0.539   7.191  1.6849 -0.8390 -3.4068
 7750TIP3   OH244740   2.797   3.637  13.942 -0.7125  0.3247  0.1897
 7750TIP3    H144741   2.845   3.594  13.871  0.2820 -1.9000  2.0995
 7750TIP3    H244742   2.721   3.580  13.957 -0.2646  0.0955  1.6885
 7751TIP3   OH244743   1.918   3.669   8.787 -0.2148 -0.2030 -0.2277
 7751TIP3    H144744   1.892   3.752   8.827  2.7164  1.8539 -2.1315
 7751TIP3    H244745   1.854   3.654   8.717 -0.0249  1.2508 -0.7400
 7752TIP3   OH244746   2.887   0.369  10.733  0.0579 -0.1381  0.1888
 7752TIP3    H144747   2.910   0.276  10.743 -0.8524 -0.4358 -0.3600
 7752TIP3    H244748   2.966   0.416  10.761  1.1519 -1.0920 -1.1066
 7753TIP3   OH244749   0.127   0.751  39.132  0.2715 -0.3120 -0.1652
 7753TIP3    H144750   0.113   0.683  39.198  1.5200 -0.1006  0.3496
 7753TIP3    H244751   0.182   0.708  39.066  0.8266  0.0971  0.0199
 7754TIP3   OH244752   0.083   1.494  42.359 -0.3170  0.0583 -0.2339
 7754TIP3    H144753  -0.009   1.505  42.337 -0.0153  1.0754 -1.0558
 7754TIP3    H244754   0.089   1.520  42.451 -0.9116 -0.3980 -0.0630
 7755TIP3   OH244755   3.155   2.458   7.119 -0.9064 -0.3944 -0.7287
 7755TIP3    H144756   3.110   2.539   7.147  0.0900 -0.3421  0.8455
 7755TIP3    H244757   3.187   2.478   7.031  1.0067  1.7099  0.3176
 7756TIP3   OH244758   1.476   3.152   5.624  0.2570 -0.5353  0.1802
 7756TIP3    H144759   1.409   3.188   5.566  0.1869 -1.9077 -0.6311
 7756TIP3    H244760   1.476   3.210   5.700 -0.3300  0.7384 -0.7613
 7757TIP3   OH244761   1.373   1.984  12.117 -0.2631  0.4351 -0.1169
 7757TIP3    H144762   1.394   1.950  12.030  3.7529  1.0902  0.3837
 7757TIP3    H244763   1.330   1.911  12.162  0.1589 -0.9011 -1.7906
 7758TIP3   OH244764   3.156   1.380   1.216  0.1985  0.1658 -0.9452
 7758TIP3    H144765   3.198   1.372   1.301  0.1262 -1.6730 -1.0336
 7758TIP3    H244766   3.226   1.411   1.158  0.3888  0.8990 -0.3388
 7759TIP3   OH244767   2.721   2.073   7.186  0.7016  0.2169 -0.2964
 7759TIP3    H144768   2.784   2.145   7.195  0.1947  0.8258 -1.3951
 7759TIP3    H244769   2.775   1.995   7.176  1.3855  0.9024 -2.7028
 7760TIP3   OH244770   4.073   2.202  15.474  0.1549  0.1329 -0.1526
 7760TIP3    H144771   3.987   2.245  15.471  0.2678  0.3900  0.3469
 7760TIP3    H244772   4.061   2.131  15.537  0.8994  1.4747  1.5796
 7761TIP3   OH244773   2.879   2.763  10.742  0.5652 -0.3588 -0.4920
 7761TIP3    H144774   2.828   2.774  10.823 -0.9648 -1.0029 -1.3352
 7761TIP3    H244775   2.949   2.828  10.749 -1.0784  1.4209  0.1598
 7762TIP3   OH244776   2.494   0.434   0.720 -0.1751 -0.1066  0.2144
 7762TIP3    H144777   2.581   0.447   0.682  0.0618  0.7042  0.9880
 7762TIP3    H244778   2.436   0.485   0.664  0.4904  3.0731  2.1350
 7763TIP3   OH244779   2.272   0.503  25.807 -0.7866  0.2942 -0.0582
 7763TIP3    H144780   2.357   0.523  25.768 -0.7738 -1.6544 -1.1341
 7763TIP3    H244781   2.225   0.586  25.805 -0.2303  0.6354 -2.8261
 7764TIP3   OH244782   0.649   0.802  13.374 -0.0299 -0.2619 -0.4809
 7764TIP3    H144783   0.579   0.756  13.421 -0.7543  0.1887 -1.0839
 7764TIP3    H244784   0.658   0.754  13.292  0.8224 -0.6950 -0.1415
 7765TIP3   OH244785   2.489   2.088  10.714  0.0310  0.0270  0.3577
 7765TIP3    H144786   2.560   2.153  10.714 -1.2597  1.5636 -1.4587
 7765TIP3    H244787   2.410   2.139  10.735 -0.9186 -1.0724 -0.4176
 7766TIP3   OH244788   2.531   3.944  26.899 -0.1310  1.4322 -0.2982
 7766TIP3    H144789   2.463   4.011  26.904 -0.8265  0.6669  1.3607
 7766TIP3    H244790   2.483   3.862  26.890  0.6615  1.0204 -0.8976
 7767TIP3   OH244791   0.450   2.947  37.900 -0.8681 -0.3085  0.0526
 7767TIP3    H144792   0.533   2.931  37.944 -2.0248 -1.6593  1.8695
 7767TIP3    H244793   0.399   2.867  37.914 -2.7449  0.7375 -0.3830
 7768TIP3   OH244794   0.825   0.380   8.708 -0.3333  0.0120 -0.0824
 7768TIP3    H144795   0.918   0.360   8.715 -0.4063  0.2543  2.4445
 7768TIP3    H244796   0.787   0.302   8.666  0.8589 -0.5184 -0.2205
 7769TIP3   OH244797   1.542   0.823   3.647  0.1830 -0.6008 -0.0967
 7769TIP3    H144798   1.505   0.757   3.589 -0.3154  1.3934 -2.1945
 7769TIP3    H244799   1.630   0.792   3.666 -0.3251 -2.2529 -0.3143
 7770TIP3   OH244800   3.348   3.392  14.639 -0.2479  0.2612  0.0992
 7770TIP3    H144801   3.358   3.298  14.622  3.4554  0.3700  0.9604
 7770TIP3    H244802   3.314   3.396  14.729 -0.0910 -0.2532  0.1880
 7771TIP3   OH244803   0.825   2.018  32.159 -0.3773  0.4639  0.0725
 7771TIP3    H144804   0.781   2.096  32.195 -1.5279 -0.4479  0.7281
 7771TIP3    H244805   0.800   2.017  32.067  0.5978  1.4970 -0.2126
 7772TIP3   OH244806   2.881   2.775  32.015  0.4511  0.3265  0.0439
 7772TIP3    H144807   2.792   2.750  32.039  0.8294 -0.2520  0.9149
 7772TIP3    H244808   2.873   2.862  31.976 -0.0979  1.9852  3.4962
 7773TIP3   OH244809   2.042   1.909  21.236  0.0955  0.1128 -0.6231
 7773TIP3    H144810   2.069   1.862  21.157  1.7734 -0.7191  0.3810
 7773TIP3    H244811   2.084   1.861  21.308 -2.0444  0.3352  0.8708
 7774TIP3   OH244812   2.383   3.914   5.524 -0.1741  0.2688  0.1313
 7774TIP3    H144813   2.473   3.904   5.493 -0.4011 -1.9835  0.0310
 7774TIP3    H244814   2.369   4.008   5.527  2.4743  0.7121  1.0350
 7775TIP3   OH244815   3.946   0.209  44.327  0.3510  0.3907 -0.1270
 7775TIP3    H144816   3.873   0.245  44.278 -0.0773 -0.4101 -0.0896
 7775TIP3    H244817   4.023   0.255  44.294  0.0117  0.1914 -1.2083
 7776TIP3   OH244818   0.499   2.301  45.903 -0.6077  0.5716 -0.2146
 7776TIP3    H144819   0.459   2.248  45.972 -0.0136  0.8010  0.3063
 7776TIP3    H244820   0.497   2.390  45.936  0.2836  0.5917 -0.2089
 7777TIP3   OH244821   2.946   1.509   7.051  0.1554 -0.1286  0.4232
 7777TIP3    H144822   3.030   1.493   7.095 -0.2422  1.0517  1.6730
 7777TIP3    H244823   2.891   1.549   7.118  0.0608  3.4194 -1.5336
 7778TIP3   OH244824   0.615   2.679  15.090  0.5955 -0.6060  0.2668
 7778TIP3    H144825   0.527   2.656  15.120 -0.4704  1.1685 -1.2914
 7778TIP3    H244826   0.650   2.597  15.056 -1.2136 -0.9900 -0.8266
 7779TIP3   OH244827   2.146   2.032   8.776 -0.0722  0.1932 -0.1280
 7779TIP3    H144828   2.094   1.953   8.790 -1.0229  1.0369  1.4169
 7779TIP3    H244829   2.151   2.042   8.681 -0.6999 -1.2135 -0.3223
 7780TIP3   OH244830   1.279   3.067  41.389 -0.4195  0.4092 -0.3501
 7780TIP3    H144831   1.241   3.144  41.348 -0.3527  0.3165 -0.5880
 7780TIP3    H244832   1.226   3.053  41.467 -0.1963  0.9189 -0.1024
 7781TIP3   OH244833   1.452   1.123   4.182 -0.4470  0.1176  0.0205
 7781TIP3    H144834   1.542   1.091   4.176 -0.5057  0.0273 -0.4412
 7781TIP3    H244835   1.398   1.044   4.189 -0.4756  0.1805  0.5722
 7782TIP3   OH244836   2.410   2.231   7.778 -0.0262  0.3140 -0.7141
 7782TIP3    H144837   2.441   2.221   7.868  0.4462  1.9483 -0.6651
 7782TIP3    H244838   2.470   2.294   7.739 -1.6846  1.5249 -1.4335
 7783TIP3   OH244839   3.294   2.892  12.048  0.0173 -0.0316 -0.2265
 7783TIP3    H144840   3.297   2.972  12.099 -0.8517 -0.1119 -0.0454
 7783TIP3    H244841   3.204   2.861  12.055  0.3019 -0.9528 -0.4082
 7784TIP3   OH244842   2.212   3.426  33.227 -0.5330 -0.3156  0.1724
 7784TIP3    H144843   2.207   3.331  33.221  1.2196 -0.5593  1.6200
 7784TIP3    H244844   2.146   3.450  33.292 -1.4364 -0.4418 -0.6765
 7785TIP3   OH244845   1.925   0.157   4.281 -0.4231  0.2194  0.0441
 7785TIP3    H144846   1.859   0.098   4.245 -0.8888 -0.1420  1.4605
 7785TIP3    H244847   1.876   0.218   4.336  0.3114  0.5469  0.3508
 7786TIP3   OH244848   0.000   0.758  31.929  0.1129 -0.3294 -0.3483
 7786TIP3    H144849  -0.092   0.733  31.930  0.7857 -3.1865 -0.2341
 7786TIP3    H244850   0.012   0.802  31.845 -1.5116  1.0533  0.0846
 7787TIP3   OH244851   1.790   3.648  43.445 -0.5331  0.0089 -0.3821
 7787TIP3    H144852   1.864   3.596  43.415 -0.2832  0.2071 -0.1124
 7787TIP3    H244853   1.742   3.670  43.364 -0.9677 -1.1175 -0.4403
 7788TIP3   OH244854   1.946   3.141  30.674  0.3442 -0.4416 -0.3389
 7788TIP3    H144855   1.857   3.155  30.707  1.3061  0.9126  1.8926
 7788TIP3    H244856   1.939   3.158  30.580 -1.7057 -0.1847 -0.1952
 7789TIP3   OH244857   0.171   2.770  36.598  0.2086  0.1140 -0.7015
 7789TIP3    H144858   0.231   2.803  36.665 -0.7114  0.6790 -0.1305
 7789TIP3    H244859   0.180   2.832  36.526  2.0053 -1.0970 -1.5828
 7790TIP3   OH244860   2.013   2.944  38.455  0.2643 -0.5140  0.3627
 7790TIP3    H144861   1.925   2.959  38.421  0.6574 -0.3308 -0.6131
 7790TIP3    H244862   2.014   2.988  38.540  0.6447  3.0857 -1.3482
 7791TIP3   OH244863   1.221   3.536  39.722 -0.1061 -0.3147  0.3296
 7791TIP3    H144864   1.194   3.563  39.634  0.0800  0.3627  0.4732
 7791TIP3    H244865   1.153   3.475  39.750 -2.1118  2.0313  1.0399
 7792TIP3   OH244866   1.497   1.527  11.092 -0.9328 -0.4444  0.0092
 7792TIP3    H144867   1.525   1.491  11.177  1.4229  3.9092  1.3823
 7792TIP3    H244868   1.578   1.533  11.041 -1.1311  2.5147 -0.1185
 7793TIP3   OH244869   2.059   0.503   3.556 -0.2160 -0.0219 -0.1205
 7793TIP3    H144870   1.980   0.539   3.515 -1.8468 -2.4992  0.6552
 7793TIP3    H244871   2.041   0.507   3.650  1.2363  0.7174  0.1496
 7794TIP3   OH244872   0.909   2.577   0.931 -0.7315 -0.2757 -0.3615
 7794TIP3    H144873   0.971   2.505   0.943 -0.0404  0.0954 -1.6252
 7794TIP3    H244874   0.926   2.610   0.843 -1.5157  0.9896 -0.0666
 7795TIP3   OH244875   0.861   0.047  12.572 -0.0237 -0.0492  0.5233
 7795TIP3    H144876   0.808   0.040  12.651  1.2057  1.4843  1.5620
 7795TIP3    H244877   0.834  -0.027  12.518 -0.4555 -1.5500  2.6436
 7796TIP3   OH244878   3.243   4.055  38.265  0.4593 -0.4061 -0.4094
 7796TIP3    H144879   3.279   3.967  38.252  0.9361 -0.3051  0.1907
 7796TIP3    H244880   3.292   4.110  38.205 -0.2439 -0.6380 -1.2201
 7797TIP3   OH244881   2.983   2.198  31.549  0.3492  0.3650  0.6261
 7797TIP3    H144882   2.888   2.198  31.560  0.2229  0.4400 -0.3892
 7797TIP3    H244883   3.009   2.108  31.569 -0.2836 -0.4060 -1.6630
 7798TIP3   OH244884   3.970   3.930  40.911 -0.3062  0.1018  0.0458
 7798TIP3    H144885   3.963   3.890  40.997  0.2636  0.1366  0.1072
 7798TIP3    H244886   3.967   3.857  40.849  0.3701 -0.0131  0.1427
 7799TIP3   OH244887   2.680   0.984   0.463 -0.7482  0.1915 -0.5823
 7799TIP3    H144888   2.756   1.030   0.498  0.2143 -1.1319 -0.8420
 7799TIP3    H244889   2.662   1.027   0.379 -0.5418  0.7700 -0.3346
 7800TIP3   OH244890   0.048   0.087  13.686  0.2013  0.3304 -0.4165
 7800TIP3    H144891  -0.012   0.045  13.747  0.8219 -0.7281 -0.5199
 7800TIP3    H244892   0.133   0.086  13.730  0.5793 -0.1125 -1.1333
 7801TIP3   OH244893   0.313   3.426   6.136  0.0698  0.0845  0.6356
 7801TIP3    H144894   0.361   3.346   6.160 -1.7251 -1.1685  0.2442
 7801TIP3    H244895   0.225   3.411   6.169 -1.0319  0.6972 -1.8442
 7802TIP3   OH244896   3.498   4.069   5.755 -0.3679  0.2895 -0.7081
 7802TIP3    H144897   3.439   4.035   5.821 -3.2247 -0.2904 -3.3527
 7802TIP3    H244898   3.490   4.164   5.762 -0.9217  0.2281 -0.4773
 7803TIP3   OH244899   3.364   1.479  45.945 -1.0542  0.1755 -0.5814
 7803TIP3    H144900   3.280   1.522  45.931 -0.8274  0.5555 -0.7697
 7803TIP3    H244901   3.428   1.550  45.949 -0.7706 -0.0919 -0.1903
 7804TIP3   OH244902   1.814   2.670  44.015 -0.1353  0.5261  0.3740
 7804TIP3    H144903   1.811   2.762  44.044 -2.2384  0.2604  1.1414
 7804TIP3    H244904   1.768   2.622  44.083  0.1311 -1.0019 -0.4822
 7805TIP3   OH244905   1.998   3.294  33.996  0.2455  0.1783  0.1458
 7805TIP3    H144906   1.924   3.233  33.984  0.7919 -0.1323 -1.9977
 7805TIP3    H244907   1.956   3.379  34.011 -0.5808 -0.0280 -0.8423
 7806TIP3   OH244908   1.248   1.356   5.788 -0.4165  0.4402 -0.0851
 7806TIP3    H144909   1.337   1.341   5.757 -0.3950  0.0759  0.1449
 7806TIP3    H244910   1.192   1.337   5.713 -0.7154 -4.9037  1.1198
 7807TIP3   OH244911   1.522   0.385   1.804 -0.2584 -0.6098  0.3214
 7807TIP3    H144912   1.573   0.343   1.734 -2.5059 -0.6920 -1.4029
 7807TIP3    H244913   1.459   0.317   1.831 -1.1293  0.2565  0.5294
 7808TIP3   OH244914   2.858   1.515  14.797 -0.2234 -0.1912 -0.1294
 7808TIP3    H144915   2.842   1.586  14.859  0.8311 -0.2143  0.1810
 7808TIP3    H244916   2.794   1.448  14.821  1.7626 -1.2940  2.6771
 7809TIP3   OH244917   3.482   0.043  47.431  0.1340  0.3412 -0.0346
 7809TIP3    H144918   3.426   0.044  47.354  1.0542  1.9435 -0.7413
 7809TIP3    H244919   3.428   0.006  47.500 -0.7079 -1.1578 -1.4359
 7810TIP3   OH244920   2.477   3.031  43.939 -0.2942 -0.4693  0.0876
 7810TIP3    H144921   2.515   2.981  44.011  1.4612 -0.3029 -0.6669
 7810TIP3    H244922   2.404   2.978  43.909  0.9137 -2.1430 -0.0665
 7811TIP3   OH244923   3.163   1.709  16.780  0.6444  0.6201  0.0047
 7811TIP3    H144924   3.075   1.674  16.768  1.3151 -1.3786  0.5095
 7811TIP3    H244925   3.197   1.718  16.691 -0.1181  1.6455 -0.2065
 7812TIP3   OH244926   0.792   0.156  14.298 -0.3747  0.8126  0.0115
 7812TIP3    H144927   0.857   0.102  14.343 -0.7841  2.0749  2.2712
 7812TIP3    H244928   0.796   0.128  14.206  2.9194  0.4335  0.1535
 7813TIP3   OH244929   1.328   1.856  15.587 -0.1494 -0.2962  0.4117
 7813TIP3    H144930   1.310   1.838  15.495 -1.0071  1.0075  0.3027
 7813TIP3    H244931   1.278   1.790  15.635  0.2538 -0.9421 -0.0377
 7814TIP3   OH244932   2.806   2.338  38.397  0.4127  0.4923 -0.4116
 7814TIP3    H144933   2.864   2.316  38.324 -2.1831 -1.3607 -2.1116
 7814TIP3    H244934   2.819   2.266  38.459  0.3662  0.3842 -0.5235
 7815TIP3   OH244935   0.817   2.293  38.571 -0.1926  0.1773 -0.1684
 7815TIP3    H144936   0.772   2.285  38.655 -0.0483 -1.2296 -0.2029
 7815TIP3    H244937   0.746   2.304  38.507 -0.4649 -1.0321 -0.1045
 7816TIP3   OH244938   2.005   3.896  25.792 -0.2954  0.3514  0.0659
 7816TIP3    H144939   2.044   3.830  25.850 -0.2210 -0.0478 -0.4311
 7816TIP3    H244940   2.020   3.979  25.837 -0.2762  0.0449  0.6404
 7817TIP3   OH244941   4.081   1.400   0.163 -0.4902  0.1733  0.5565
 7817TIP3    H144942   4.106   1.483   0.204 -0.0503  0.6593 -0.6664
 7817TIP3    H244943   4.156   1.342   0.179 -1.7349 -0.7932  3.4663
 7818TIP3   OH244944   3.755   3.869   3.775 -0.3260 -0.2818  0.2332
 7818TIP3    H144945   3.682   3.923   3.804 -0.2422 -0.2761  0.4325
 7818TIP3    H244946   3.833   3.915   3.805 -0.0432  1.4003 -2.6738
 7819TIP3   OH244947   2.147   1.420  43.256  0.0144  0.0461  0.2021
 7819TIP3    H144948   2.223   1.468  43.288  0.9989 -1.5466  0.3693
 7819TIP3    H244949   2.100   1.482  43.200  1.1640  1.2088  0.5014
 7820TIP3   OH244950   3.521   3.553  36.588  0.2969 -0.6022 -0.5392
 7820TIP3    H144951   3.433   3.591  36.586 -0.5118 -2.3789 -0.2840
 7820TIP3    H244952   3.555   3.569  36.500  0.2065  1.1108 -0.3060
 7821TIP3   OH244953   3.810   1.953   2.188 -0.3884 -0.6702 -0.1101
 7821TIP3    H144954   3.848   1.898   2.119  0.2393  1.8606 -1.9275
 7821TIP3    H244955   3.864   1.937   2.265 -0.4369 -2.7786 -0.4660
 7822TIP3   OH244956   2.355   3.874  43.905 -0.8402  0.1730 -0.0575
 7822TIP3    H144957   2.423   3.909  43.962 -0.2446  1.5359 -1.5370
 7822TIP3    H244958   2.274   3.917  43.934 -0.8114 -0.2601  0.6877
 7823TIP3   OH244959   2.984   3.875   6.054  0.6085  0.0187 -0.4591
 7823TIP3    H144960   3.024   3.924   5.981  0.8234  0.2148 -0.2123
 7823TIP3    H244961   2.890   3.879   6.036  0.6865 -0.2915 -0.9491
 7824TIP3   OH244962   0.506   0.772  10.922 -0.2839 -0.7191 -0.6160
 7824TIP3    H144963   0.565   0.847  10.912  0.6949 -1.2626  0.7281
 7824TIP3    H244964   0.421   0.804  10.893  0.1911  0.7956 -0.4143
 7825TIP3   OH244965   2.475   3.188  13.077  0.1207 -0.2488 -0.2472
 7825TIP3    H144966   2.551   3.222  13.125  1.4289 -0.8537 -1.7744
 7825TIP3    H244967   2.512   3.155  12.994 -1.4945 -2.5636 -0.1500
 7826TIP3   OH244968   1.927   0.061   4.566  0.9038  0.0282  0.2625
 7826TIP3    H144969   1.865  -0.012   4.557  0.8260  0.2616 -1.3565
 7826TIP3    H244970   1.887   0.132   4.516  1.4412  0.8927  1.0401
 7827TIP3   OH244971   2.076   0.690  38.701  0.4230 -0.0984 -0.0224
 7827TIP3    H144972   2.088   0.732  38.786  1.1934 -1.1037  0.3814
 7827TIP3    H244973   2.083   0.762  38.638 -0.2338  0.6654  0.7495
 7828TIP3   OH244974   0.363   1.536   7.981  0.7211  0.6947  0.6886
 7828TIP3    H144975   0.396   1.511   7.895 -0.1006  0.4873  0.4185
 7828TIP3    H244976   0.401   1.472   8.041 -2.8269 -2.6439 -0.2096
 7829TIP3   OH244977   0.510   0.704   3.667  0.1196 -0.2521  0.6733
 7829TIP3    H144978   0.576   0.635   3.680 -0.6786 -0.9245  1.3334
 7829TIP3    H244979   0.522   0.762   3.742 -0.5276 -0.8090  1.2291
 7830TIP3   OH244980   2.125   3.848  47.313  0.0348  0.5684  0.5101
 7830TIP3    H144981   2.042   3.829  47.356 -0.5460  1.0861 -0.3380
 7830TIP3    H244982   2.162   3.763  47.293 -0.3833  0.3274  0.7400
 7831TIP3   OH244983   3.228   0.479   3.061 -0.2104  0.2161  0.0800
 7831TIP3    H144984   3.243   0.393   3.099  0.7981  1.0004  1.5496
 7831TIP3    H244985   3.140   0.503   3.088 -0.7862 -0.6447 -0.9703
 7832TIP3   OH244986   1.147   0.760  38.554  0.1413 -0.1718  0.0870
 7832TIP3    H144987   1.201   0.707  38.495 -0.4986 -1.4459  0.6036
 7832TIP3    H244988   1.074   0.789  38.498  0.8430  0.7917 -0.3727
 7833TIP3   OH244989   2.175   3.310  10.930  0.3040  0.6033  0.0303
 7833TIP3    H144990   2.179   3.401  10.959 -0.0095  0.2933  1.0621
 7833TIP3    H244991   2.098   3.307  10.872 -0.8458  0.6023  1.4932
 7834TIP3   OH244992   3.277   3.281   5.623 -0.1953 -0.1695  0.1896
 7834TIP3    H144993   3.361   3.245   5.594 -1.2001 -1.2781 -1.4754
 7834TIP3    H244994   3.232   3.207   5.664 -0.7652  0.1673  0.1801
 7835TIP3   OH244995   1.716   3.941   9.481  0.1698 -0.4071  0.2136
 7835TIP3    H144996   1.644   3.949   9.543  1.3921 -2.0075  1.9442
 7835TIP3    H244997   1.783   4.001   9.514 -0.5956  1.7705 -1.8915
 7836TIP3   OH244998   3.431   0.179   9.897  0.4384  0.1145  0.3268
 7836TIP3    H144999   3.498   0.140   9.842  0.6719  0.4128  0.3920
 7836TIP3    H245000   3.459   0.161   9.986 -0.7631 -1.7716  0.3880
 7837TIP3   OH245001   2.286   0.420   3.068 -0.3158  0.6662 -0.2941
 7837TIP3    H145002   2.324   0.418   3.156 -1.7647 -0.1202  0.3524
 7837TIP3    H245003   2.356   0.454   3.012  1.1554 -0.3096  0.8895
 7838TIP3   OH245004   3.499   3.517  47.651 -0.0743 -0.2220 -0.4761
 7838TIP3    H145005   3.487   3.522  47.557 -1.4493 -0.9823 -0.3698
 7838TIP3    H245006   3.521   3.425  47.667  2.5849  0.3682 -0.2631
 7839TIP3   OH245007   2.111   0.948  38.128  0.1134  0.2204 -0.1801
 7839TIP3    H145008   2.074   1.034  38.146 -1.3293 -0.0716 -1.4909
 7839TIP3    H245009   2.095   0.935  38.034 -1.8087 -2.3776  0.3967
 7840TIP3   OH245010   0.263   3.065   1.602  0.0529 -0.0493  0.1563
 7840TIP3    H145011   0.234   3.055   1.693 -0.4234  0.0614  0.0148
 7840TIP3    H245012   0.242   3.156   1.580  0.6949  0.0939  0.1207
 7841TIP3   OH245013   2.474   2.917  10.838  0.3186 -0.3699  0.7161
 7841TIP3    H145014   2.526   2.994  10.862  0.7068 -0.7090  0.9824
 7841TIP3    H245015   2.459   2.926  10.744 -0.0489  0.2779  0.8338
 7842TIP3   OH245016   2.062   0.766  46.694 -0.7743 -0.2792 -0.1585
 7842TIP3    H145017   2.025   0.754  46.782  1.2546 -0.9173  0.6959
 7842TIP3    H245018   2.084   0.677  46.666  0.9992  0.0974 -0.1272
 7843TIP3   OH245019   2.171   2.333  38.458  0.1142 -0.2013 -0.1433
 7843TIP3    H145020   2.222   2.412  38.476 -0.7892  0.2166  0.6344
 7843TIP3    H245021   2.237   2.268  38.430  1.0333  0.4025  0.5545
 7844TIP3   OH245022   1.665   0.072  43.266 -0.4549 -0.5700  0.3266
 7844TIP3    H145023   1.667   0.012  43.340  1.7992 -0.3857  0.4897
 7844TIP3    H245024   1.658   0.015  43.189 -2.7265 -0.7633  0.5977
 7845TIP3   OH245025   1.506   2.801  12.308 -0.0824  0.6678 -0.2997
 7845TIP3    H145026   1.501   2.757  12.223 -0.8810 -2.0993  1.0788
 7845TIP3    H245027   1.508   2.895  12.286  1.7568  0.0453 -3.4085
 7846TIP3   OH245028   3.069   1.509  10.467  0.3337 -0.3316 -0.3194
 7846TIP3    H145029   2.981   1.543  10.452  1.1296  1.6447 -0.9111
 7846TIP3    H245030   3.058   1.441  10.534 -1.5365  0.3723  0.1520
 7847TIP3   OH245031   1.495   0.531  13.061  0.4419  0.1448 -0.0498
 7847TIP3    H145032   1.554   0.469  13.103  0.9080  0.3408 -0.4154
 7847TIP3    H245033   1.539   0.556  12.980  1.6792  3.1528  1.3937
 7848TIP3   OH245034   2.638   2.433  41.879  0.3666 -0.0521 -1.2551
 7848TIP3    H145035   2.684   2.361  41.921 -1.1950 -1.8842 -2.5108
 7848TIP3    H245036   2.707   2.494  41.853  1.7297 -1.0607 -0.1230
 7849TIP3   OH245037   1.243   3.904  43.170  0.5042 -0.4770 -0.6775
 7849TIP3    H145038   1.252   3.941  43.258 -1.6159  0.2389 -0.7089
 7849TIP3    H245039   1.331   3.873  43.149  1.3955  0.6176  1.1113
 7850TIP3   OH245040   2.024   1.226  36.143  0.1097  0.0475 -0.5844
 7850TIP3    H145041   2.104   1.244  36.092  1.5992  0.9204  1.8570
 7850TIP3    H245042   2.056   1.182  36.222 -1.9294 -0.2103  0.1453
 7851TIP3   OH245043   1.793   1.220   0.384  0.3663  0.4941 -0.7322
 7851TIP3    H145044   1.732   1.176   0.443  0.9067  1.5542  0.6690
 7851TIP3    H245045   1.867   1.159   0.377  1.1334  1.1091  1.2439
 7852TIP3   OH245046   1.259   3.886   7.050 -0.1851 -0.1267 -0.3814
 7852TIP3    H145047   1.277   3.815   7.112 -0.5221  0.8451  0.8511
 7852TIP3    H245048   1.202   3.845   6.984 -0.3747 -1.0037  0.3031
 7853TIP3   OH245049   1.176   2.683  12.746  0.2971 -0.5576 -0.2782
 7853TIP3    H145050   1.106   2.639  12.699  1.1891 -2.2832 -0.0658
 7853TIP3    H245051   1.253   2.671  12.691  0.8967 -0.6717  0.5697
 7854TIP3   OH245052   0.328   3.491  41.404  0.4200 -0.3489  0.1878
 7854TIP3    H145053   0.266   3.539  41.458  1.7353  0.6279  0.8819
 7854TIP3    H245054   0.292   3.498  41.315  1.1496  3.0738  0.0094
 7855TIP3   OH245055   1.623   3.682  38.849 -0.3698 -0.1761 -0.0945
 7855TIP3    H145056   1.659   3.686  38.760 -1.3438 -0.5303 -0.5168
 7855TIP3    H245057   1.565   3.758  38.855  0.0046  0.0774  0.3876
 7856TIP3   OH245058   0.381   3.863   5.715 -0.1727 -0.4542 -0.5804
 7856TIP3    H145059   0.462   3.812   5.708  0.5489  0.8477 -2.0994
 7856TIP3    H245060   0.320   3.803   5.759  1.0487 -2.1244 -1.0481
 7857TIP3   OH245061   1.042   2.284  43.754  0.4845 -0.7116  0.4463
 7857TIP3    H145062   0.957   2.327  43.743  0.8731 -0.1493 -0.4400
 7857TIP3    H245063   1.026   2.216  43.820 -0.8421 -1.1387 -0.2759
 7858TIP3   OH245064   1.271   0.876  13.595  0.2440  0.1252 -0.5287
 7858TIP3    H145065   1.310   0.904  13.678  0.0820 -0.0152 -0.4012
 7858TIP3    H245066   1.308   0.935  13.529 -1.0224  1.4665 -0.1028
 7859TIP3   OH245067   0.772   0.530  36.891 -0.0235 -0.0973  0.4970
 7859TIP3    H145068   0.737   0.520  36.802 -0.0834 -1.5347  0.6622
 7859TIP3    H245069   0.840   0.464  36.898 -0.0523 -0.0356  1.5441
 7860TIP3   OH245070   3.410   1.156  42.766 -0.2450  0.2946  0.0199
 7860TIP3    H145071   3.453   1.216  42.828  0.6505 -0.5515  0.2533
 7860TIP3    H245072   3.345   1.110  42.818 -0.4462  0.5687  0.0099
 7861TIP3   OH245073   0.277   2.583  44.958 -0.2519 -0.2549  0.1911
 7861TIP3    H145074   0.293   2.660  44.903 -1.4695  1.6105  2.2480
 7861TIP3    H245075   0.360   2.535  44.958  0.7372  1.3722 -0.7207
 7862TIP3   OH245076   3.795   3.086  33.591 -0.0893  0.1631 -0.1237
 7862TIP3    H145077   3.732   3.064  33.659  0.5949  0.7507  0.7192
 7862TIP3    H245078   3.817   3.002  33.551 -1.5271 -0.0273 -0.5639
 7863TIP3   OH245079   2.170   0.803  39.072  0.4669  0.4884 -0.6832
 7863TIP3    H145080   2.171   0.738  39.142  0.5536  1.0192 -0.1838
 7863TIP3    H245081   2.261   0.811  39.045  0.7921  1.8635  0.6522
 7864TIP3   OH245082   4.016   1.417  39.096  0.2360 -0.1017  0.6527
 7864TIP3    H145083   4.041   1.507  39.076 -0.4664  0.0205  0.3414
 7864TIP3    H245084   3.924   1.410  39.071  0.0287 -0.6475  1.5162
 7865TIP3   OH245085   3.267   1.492   5.387  0.0643  0.0686 -0.0065
 7865TIP3    H145086   3.335   1.535   5.335 -1.2536 -0.5792 -2.4274
 7865TIP3    H245087   3.306   1.410   5.415  1.2475  1.0157  1.2182
 7866TIP3   OH245088   0.936   2.710  36.011 -0.0333 -0.4003  0.0027
 7866TIP3    H145089   1.025   2.676  36.003  1.0163  2.0167  0.4492
 7866TIP3    H245090   0.883   2.653  35.957  1.6498 -2.3546  0.3145
 7867TIP3   OH245091   2.080   4.080  11.771  0.0287 -0.2553  0.3155
 7867TIP3    H145092   2.168   4.043  11.772  0.1363 -0.0923 -1.0523
 7867TIP3    H245093   2.088   4.161  11.821  0.7158 -0.1403  0.0418
 7868TIP3   OH245094   1.973   2.257   1.260  0.4146  0.1250  0.0964
 7868TIP3    H145095   1.903   2.312   1.296  0.3017 -0.1857  0.3580
 7868TIP3    H245096   2.025   2.317   1.206  0.4802  0.5566  0.6303
 7869TIP3   OH245097   1.831   4.006   5.604  0.3727 -0.2629  0.5896
 7869TIP3    H145098   1.794   3.919   5.592  1.8660 -0.8038 -0.4657
 7869TIP3    H245099   1.758   4.060   5.634 -0.8531 -1.6185  0.1394
 7870TIP3   OH245100   1.744   2.590   6.155 -0.1656 -0.0858  0.3345
 7870TIP3    H145101   1.759   2.496   6.163  0.1748 -0.0289  0.3587
 7870TIP3    H245102   1.666   2.597   6.099  0.4684 -0.3498 -0.5998
 7871TIP3   OH245103   1.887   2.604  44.655 -0.5056  0.4668  0.0020
 7871TIP3    H145104   1.956   2.539  44.669 -0.5229  0.5422  0.4549
 7871TIP3    H245105   1.865   2.596  44.562 -0.3970 -0.0653  0.0183
 7872TIP3   OH245106   1.772   2.226  12.061  0.0772  0.2670  0.1257
 7872TIP3    H145107   1.799   2.315  12.080 -1.4976  0.9195 -0.5576
 7872TIP3    H245108   1.826   2.199  11.986  0.9483  0.4202  0.6892
 7873TIP3   OH245109   3.472   0.139  10.763 -0.5253  0.1194 -0.3782
 7873TIP3    H145110   3.460   0.153  10.857 -0.9420 -0.9186 -0.2678
 7873TIP3    H245111   3.556   0.094  10.755  0.4079  1.8057 -0.6706
 7874TIP3   OH245112   2.474   0.682  33.730  0.1876  0.4234 -0.0136
 7874TIP3    H145113   2.555   0.727  33.707 -0.0241  0.3315 -0.9483
 7874TIP3    H245114   2.475   0.679  33.826  1.8211 -0.5071 -0.0149
 7875TIP3   OH245115   2.883   2.191   4.128 -0.6740  0.3645  0.0642
 7875TIP3    H145116   2.884   2.279   4.166 -2.3318  0.6664 -0.5040
 7875TIP3    H245117   2.826   2.198   4.052 -3.2572 -1.8325  1.6287
 7876TIP3   OH245118   2.506   2.976   6.464 -0.5328 -0.1284  0.5021
 7876TIP3    H145119   2.502   2.917   6.539 -0.2248  0.0826  0.6876
 7876TIP3    H245120   2.535   2.921   6.391 -1.8619 -0.5732  0.2859
 7877TIP3   OH245121   2.417   0.216   6.749 -0.4558 -0.0733 -0.1477
 7877TIP3    H145122   2.356   0.143   6.745  0.0804 -0.5102 -0.6122
 7877TIP3    H245123   2.366   0.289   6.782 -1.5806 -0.0780 -1.7597
 7878TIP3   OH245124   3.842   1.443  46.657  0.4971  0.1511  0.2973
 7878TIP3    H145125   3.901   1.490  46.597 -0.1926 -0.8031 -1.2075
 7878TIP3    H245126   3.842   1.353  46.624 -1.2314 -0.0213  0.6787
 7879TIP3   OH245127   2.521   3.775  46.835 -0.4266  0.1445 -0.4331
 7879TIP3    H145128   2.599   3.805  46.788  0.1240  1.0568  0.9610
 7879TIP3    H245129   2.474   3.856  46.857 -3.0502 -0.4481 -3.2010
 7880TIP3   OH245130   1.045   3.443  33.971  0.6437 -0.0016  0.4012
 7880TIP3    H145131   0.978   3.477  33.912  0.9019 -0.3183 -0.0849
 7880TIP3    H245132   1.103   3.392  33.914  0.6492 -0.6834  0.9970
 7881TIP3   OH245133   0.321   0.821  25.598 -0.4808  0.0748 -0.3923
 7881TIP3    H145134   0.383   0.759  25.561 -1.1112 -0.5782 -0.3906
 7881TIP3    H245135   0.348   0.907  25.563  0.9095 -0.0691  0.2824
 7882TIP3   OH245136   0.301   1.595  45.454 -0.0501 -0.4602  0.3297
 7882TIP3    H145137   0.333   1.517  45.498  1.1717 -0.2161 -0.0794
 7882TIP3    H245138   0.255   1.562  45.377  0.5629 -0.7934  0.0958
 7883TIP3   OH245139   3.006   1.963  38.162 -0.0409  0.1309 -0.0573
 7883TIP3    H145140   3.081   1.952  38.220 -1.0453  0.2960  1.3077
 7883TIP3    H245141   2.987   1.875  38.130  0.0553 -0.0888  0.4761
 7884TIP3   OH245142   1.496   1.328   7.533  0.7179 -0.0200  0.1777
 7884TIP3    H145143   1.468   1.239   7.555  0.6222 -0.6088 -2.0809
 7884TIP3    H245144   1.577   1.315   7.482  0.1352  1.0941 -1.0740
 7885TIP3   OH245145   1.200   2.405   4.342 -0.3376  0.7855  0.4610
 7885TIP3    H145146   1.295   2.401   4.331  0.3328  2.1828  4.3167
 7885TIP3    H245147   1.180   2.498   4.349 -1.7546  0.4389  1.3637
 7886TIP3   OH245148   2.394   1.307  42.837  0.1076  0.9767 -0.6373
 7886TIP3    H145149   2.407   1.384  42.781  0.9486  1.3591  0.0517
 7886TIP3    H245150   2.317   1.328  42.890  0.7403  1.6845  0.0461
 7887TIP3   OH245151   1.667   0.149   7.989 -0.5379  0.1225  0.1562
 7887TIP3    H145152   1.742   0.176   7.935 -0.2927  0.8411  0.8448
 7887TIP3    H245153   1.696   0.067   8.031 -0.6881 -0.3802 -0.6957
 7888TIP3   OH245154   3.319   0.914  33.536  0.0550  0.0849 -0.2423
 7888TIP3    H145155   3.318   0.838  33.477 -0.4590  0.0846 -0.2344
 7888TIP3    H245156   3.227   0.928  33.558  0.1653  0.6264 -0.1348
 7889TIP3   OH245157   3.868   1.152  12.173 -0.0564 -0.7266 -0.1480
 7889TIP3    H145158   3.841   1.215  12.106  0.7707  0.2735  0.4324
 7889TIP3    H245159   3.904   1.079  12.124  0.6099  0.0280 -0.8075
 7890TIP3   OH245160   4.051   0.976  36.985  0.1058  0.3723 -0.0017
 7890TIP3    H145161   4.009   1.062  36.987 -0.9130 -0.1312  1.0937
 7890TIP3    H245162   4.136   0.993  36.943 -0.6095  1.6532 -1.0192
 7891TIP3   OH245163   1.670   2.333  32.631 -0.1055 -0.2529 -0.0557
 7891TIP3    H145164   1.587   2.304  32.670 -0.9939 -0.5336 -2.0201
 7891TIP3    H245165   1.676   2.425  32.655 -1.1902 -0.1353 -0.1494
 7892TIP3   OH245166   3.695   1.729  34.668  0.5935  0.6802  0.8890
 7892TIP3    H145167   3.620   1.768  34.713  1.0029  1.8393  0.6010
 7892TIP3    H245168   3.663   1.708  34.581  0.3473  0.2695  1.0733
 7893TIP3   OH245169   0.035   1.171  40.794 -0.4605 -0.6291 -0.1172
 7893TIP3    H145170   0.012   1.215  40.713  0.5264 -0.7428 -0.4673
 7893TIP3    H245171  -0.010   1.087  40.789  2.3793 -2.2074 -2.2614
 7894TIP3   OH245172   3.563   3.402  28.141  0.3511  0.7946  0.5287
 7894TIP3    H145173   3.603   3.418  28.226  0.1243 -0.6583  0.9378
 7894TIP3    H245174   3.637   3.391  28.081  0.5121  2.5830  0.3523
 7895TIP3   OH245175   3.901   3.074  30.402 -0.4523  0.2730  0.1874
 7895TIP3    H145176   3.883   3.105  30.491  0.2672 -0.8213  0.7473
 7895TIP3    H245177   3.863   2.986  30.399  0.8254 -0.2994 -0.0707
 7896TIP3   OH245178   2.692   0.420   8.154 -0.5041  0.2404  0.2153
 7896TIP3    H145179   2.664   0.507   8.183 -2.5986  0.0122 -0.9536
 7896TIP3    H245180   2.677   0.420   8.059 -0.1482 -1.2533  0.1366
 7897TIP3   OH245181   1.727   3.922  47.264 -0.3434 -0.1085  0.9807
 7897TIP3    H145182   1.699   4.012  47.281 -0.4967 -0.0203  0.2971
 7897TIP3    H245183   1.649   3.869  47.283 -1.8270  0.3089 -2.9188
 7898TIP3   OH245184   3.263   2.056   9.706 -0.1600 -0.1064  0.8930
 7898TIP3    H145185   3.258   2.139   9.754  0.1187  0.7630 -0.5366
 7898TIP3    H245186   3.348   2.020   9.730 -0.5450 -0.3213  2.0183
 7899TIP3   OH245187   2.956   2.859  15.193  0.1032  0.6900 -0.1542
 7899TIP3    H145188   2.926   2.949  15.177 -1.8577  0.5279  2.1030
 7899TIP3    H245189   2.879   2.814  15.227  1.3637 -1.5517 -0.1301
 7900TIP3   OH245190   1.657   1.240   8.548  0.1553  1.0164 -0.7952
 7900TIP3    H145191   1.676   1.331   8.523  0.1108  0.5980 -2.4995
 7900TIP3    H245192   1.708   1.187   8.486 -0.8648 -0.1169 -0.7111
 7901TIP3   OH245193   2.057   3.002  14.897 -0.0538 -0.6637 -0.4890
 7901TIP3    H145194   2.144   2.962  14.904  0.6095  0.8270  0.2302
 7901TIP3    H245195   2.004   2.935  14.853  1.6112 -1.3598 -1.5792
 7902TIP3   OH245196   0.478   2.595  42.426 -0.1354 -0.2726 -0.4712
 7902TIP3    H145197   0.536   2.611  42.500  1.2288 -0.1164 -1.5428
 7902TIP3    H245198   0.488   2.672  42.370 -0.2064 -0.9241 -1.4098
 7903TIP3   OH245199   2.800   3.192   2.857  0.1900 -0.0369 -0.1384
 7903TIP3    H145200   2.807   3.249   2.934 -3.3096  0.3331  0.0900
 7903TIP3    H245201   2.886   3.151   2.849  0.9546  0.5479  3.4472
 7904TIP3   OH245202   0.050   2.469   2.791  0.3093 -0.1360 -0.3283
 7904TIP3    H145203   0.010   2.382   2.792 -0.1133  0.0573  1.3979
 7904TIP3    H245204   0.053   2.492   2.698 -3.0470 -0.4415 -0.6413
 7905TIP3   OH245205   4.065   0.853  47.029 -0.5785 -0.1899 -0.4260
 7905TIP3    H145206   4.101   0.938  47.054 -0.9699 -0.5504  1.4656
 7905TIP3    H245207   4.121   0.789  47.073 -1.5040 -0.8511 -0.1870
 7906TIP3   OH245208   2.182   3.674  27.336 -0.3322 -0.2724 -0.2615
 7906TIP3    H145209   2.111   3.633  27.385 -0.7424 -0.7198 -1.2007
 7906TIP3    H245210   2.153   3.764  27.322 -0.0668 -0.0426  0.5677
 7907TIP3   OH245211   1.892   1.142  35.298  0.0494 -0.6797 -0.6502
 7907TIP3    H145212   1.884   1.099  35.384  0.2344 -0.6527 -0.6186
 7907TIP3    H245213   1.974   1.192  35.304 -1.0281  1.1368 -0.0318
 7908TIP3   OH245214   0.402   3.956  27.870 -0.0689  0.1396 -0.3921
 7908TIP3    H145215   0.480   3.966  27.816  0.5214  2.0948  0.7308
 7908TIP3    H245216   0.420   3.878  27.924  0.1664 -0.6553 -1.5799
 7909TIP3   OH245217   2.688   2.175  35.262 -0.5691  1.1246 -0.3810
 7909TIP3    H145218   2.745   2.219  35.326 -0.1632  0.7679 -0.4927
 7909TIP3    H245219   2.728   2.194  35.177 -0.2235  0.3118 -0.4090
 7910TIP3   OH245220   0.098   3.917   7.274  0.5749  0.0176 -0.6404
 7910TIP3    H145221   0.114   3.906   7.181  0.4956 -1.4520 -0.5045
 7910TIP3    H245222   0.105   3.829   7.310 -1.0748  0.2953  0.4829
 7911TIP3   OH245223   2.915   3.651   4.754  0.3149  0.5346  0.2022
 7911TIP3    H145224   2.903   3.706   4.832  0.7149 -0.2896  0.8650
 7911TIP3    H245225   2.849   3.583   4.763  0.1472  0.6194 -0.3597
 7912TIP3   OH245226   1.433   0.299  35.053  0.2943  0.1819 -0.4955
 7912TIP3    H145227   1.519   0.323  35.019  0.4503  1.6615  0.8443
 7912TIP3    H245228   1.442   0.208  35.080  1.8663  0.6749  0.8258
 7913TIP3   OH245229   0.182   0.494  40.325 -0.0375 -0.0704  0.3939
 7913TIP3    H145230   0.255   0.439  40.355  0.9243  1.4565  0.9702
 7913TIP3    H245231   0.112   0.477  40.389  0.5063 -0.0728  1.0011
 7914TIP3   OH245232   3.414   3.277   4.437  0.5676  0.5297 -0.1545
 7914TIP3    H145233   3.493   3.323   4.406  0.1402 -0.2841 -2.7297
 7914TIP3    H245234   3.440   3.185   4.438 -0.3178  0.2503 -1.0903
 7915TIP3   OH245235   3.881   0.599   5.722 -0.0235 -0.0306  0.2793
 7915TIP3    H145236   3.955   0.564   5.674  0.9409  0.6956  1.1965
 7915TIP3    H245237   3.916   0.621   5.808 -0.9830  1.5484  0.3184
 7916TIP3   OH245238   0.739   0.611   7.642 -0.5801 -0.3486 -0.2700
 7916TIP3    H145239   0.652   0.644   7.666 -1.0573 -0.7375 -1.4099
 7916TIP3    H245240   0.752   0.536   7.699 -0.5837  0.2593  0.5546
 7917TIP3   OH245241   0.056   2.715  12.774 -0.7944  0.1287 -0.4292
 7917TIP3    H145242   0.028   2.770  12.848  1.8196  1.5957 -0.4260
 7917TIP3    H245243   0.105   2.644  12.815 -1.1860 -0.2733 -0.6517
 7918TIP3   OH245244   0.040   0.737   4.851  0.0122  0.3405 -0.0583
 7918TIP3    H145245   0.069   0.790   4.777 -0.7897  1.0903  0.1553
 7918TIP3    H245246   0.121   0.702   4.889  0.6378  2.1118  0.3260
 7919TIP3   OH245247   2.430   0.702  44.749 -0.1184  0.0973  0.3539
 7919TIP3    H145248   2.437   0.657  44.664  0.2051  2.2957 -0.8685
 7919TIP3    H245249   2.353   0.663  44.790  0.0540 -1.4310 -0.6591
 7920TIP3   OH245250   2.067   0.828   8.227  0.2298 -0.1753  0.3925
 7920TIP3    H145251   2.120   0.841   8.305 -0.7157 -0.0124  1.0147
 7920TIP3    H245252   1.982   0.800   8.259  0.0964 -1.0005 -0.6215
 7921TIP3   OH245253   0.033   3.655   7.804  0.4006 -0.4869  0.0480
 7921TIP3    H145254  -0.062   3.666   7.809  0.4439 -0.3476  0.6531
 7921TIP3    H245255   0.063   3.671   7.893  1.1324  0.8028 -0.4024
 7922TIP3   OH245256   2.410   3.978   2.214  0.8396 -0.7147 -0.3838
 7922TIP3    H145257   2.496   4.020   2.215  0.7821 -0.4443 -2.3157
 7922TIP3    H245258   2.417   3.909   2.149 -0.3315 -0.8541 -0.3985
 7923TIP3   OH245259   2.430   0.249  32.780 -0.3585  0.0079  0.3084
 7923TIP3    H145260   2.451   0.164  32.742  1.4104  0.0654  1.0666
 7923TIP3    H245261   2.492   0.309  32.739 -1.0077  0.7801  0.4375
 7924TIP3   OH245262   0.548   1.595  35.600 -0.3530  0.4655  0.3491
 7924TIP3    H145263   0.639   1.619  35.585 -0.2046 -0.5385 -0.5006
 7924TIP3    H245264   0.511   1.586  35.513 -0.8692 -0.5626  0.6566
 7925TIP3   OH245265   2.573   0.390  41.116  0.4481 -0.2525 -0.2741
 7925TIP3    H145266   2.546   0.326  41.182  1.3666 -0.1839  0.1879
 7925TIP3    H245267   2.668   0.377  41.108  0.6556  1.0936 -0.1220
 7926TIP3   OH245268   1.434   1.473   5.383 -0.6244  0.3133  0.3707
 7926TIP3    H145269   1.512   1.477   5.439 -1.9747 -1.2535  2.5367
 7926TIP3    H245270   1.461   1.420   5.308  0.9144  1.4780  0.0568
 7927TIP3   OH245271   2.061   1.017  42.671 -0.5493 -0.0142  0.1850
 7927TIP3    H145272   1.990   1.005  42.609 -0.0914 -3.4550  0.1579
 7927TIP3    H245273   2.025   0.992  42.756  0.6791 -2.3967  0.0785
 7928TIP3   OH245274   3.909   1.773  36.181  0.0713 -0.3032  0.4789
 7928TIP3    H145275   3.935   1.682  36.199 -0.6111 -0.6206 -0.1000
 7928TIP3    H245276   3.949   1.793  36.096 -1.7839 -0.9153 -0.5967
 7929TIP3   OH245277   0.904   3.915  15.051  0.2573 -0.2050  0.0106
 7929TIP3    H145278   0.812   3.889  15.063 -0.5600  2.2674 -0.3769
 7929TIP3    H245279   0.929   3.955  15.134  2.0499 -3.3926  1.2195
 7930TIP3   OH245280   2.894   3.843  39.060  0.4318  0.2499  0.0638
 7930TIP3    H145281   2.822   3.866  39.118  0.9562 -0.2615  0.9485
 7930TIP3    H245282   2.913   3.923  39.011  0.1928  0.7917  0.8453
 7931TIP3   OH245283   2.175   4.049   4.639 -0.3214  0.0649  0.5121
 7931TIP3    H145284   2.207   4.133   4.672 -0.7116  0.6955 -0.6354
 7931TIP3    H245285   2.088   4.068   4.605 -0.3354 -0.7528  0.0413
 7932TIP3   OH245286   3.798   3.122  44.988 -0.1082 -0.1813 -0.2833
 7932TIP3    H145287   3.862   3.115  44.917  0.9021 -2.4348  0.7300
 7932TIP3    H245288   3.812   3.209  45.024  2.2560 -0.4680 -0.2997
 7933TIP3   OH245289   3.009   2.640   6.372 -0.1830  0.0535  0.0852
 7933TIP3    H145290   2.982   2.690   6.295 -0.6924 -0.9198 -0.3770
 7933TIP3    H245291   3.095   2.604   6.349 -0.8700 -1.2593 -0.5384
 7934TIP3   OH245292   3.752   2.658  10.463 -0.1594  0.1517  0.9666
 7934TIP3    H145293   3.709   2.576  10.488 -1.3173  0.6956  0.8514
 7934TIP3    H245294   3.680   2.714  10.434  0.7574  0.7513 -0.2273
 7935TIP3   OH245295   2.636   0.693  21.231  0.2592 -0.1388 -0.4389
 7935TIP3    H145296   2.594   0.719  21.149  0.4088 -0.7084 -0.7012
 7935TIP3    H245297   2.698   0.624  21.206 -0.0046 -0.6257  0.2148
 7936TIP3   OH245298   0.938   2.554  15.847 -0.1768 -0.0616  0.0749
 7936TIP3    H145299   0.893   2.566  15.763  0.3497  0.2971 -0.1649
 7936TIP3    H245300   0.883   2.600  15.911 -1.0051 -1.0117  0.0799
 7937TIP3   OH245301   0.175   0.172  35.195  0.0801 -0.4337  0.1255
 7937TIP3    H145302   0.220   0.112  35.136  1.2047  0.0374  0.4570
 7937TIP3    H245303   0.125   0.116  35.254  2.1100 -1.1647  1.2484
 7938TIP3   OH245304   2.060   1.577   7.638 -0.2118  0.0959 -0.1127
 7938TIP3    H145305   2.098   1.632   7.707 -1.8163  0.9642  0.1198
 7938TIP3    H245306   1.998   1.634   7.593 -0.0891 -0.8153 -1.5214
 7939TIP3   OH245307   0.591   0.356   0.507  0.4867  0.3281  0.1035
 7939TIP3    H145308   0.635   0.288   0.458  1.1872  0.2772  0.7863
 7939TIP3    H245309   0.594   0.326   0.598 -0.8655  0.3750  0.1848
 7940TIP3   OH245310   3.064   0.884  14.749 -0.1914  0.3776  0.3713
 7940TIP3    H145311   3.098   0.904  14.662 -2.0385  0.4916 -0.3730
 7940TIP3    H245312   3.007   0.958  14.770 -2.1158 -1.0282  0.3454
 7941TIP3   OH245313   2.586   1.441  16.920 -0.0449 -0.1821 -0.2791
 7941TIP3    H145314   2.672   1.410  16.892  0.5589 -0.5591  1.8380
 7941TIP3    H245315   2.531   1.363  16.919  0.1159 -0.3009  0.0979
 7942TIP3   OH245316   1.134   3.838  37.859 -0.2146  0.6202 -0.5795
 7942TIP3    H145317   1.115   3.901  37.790  1.9148  2.7015  0.5712
 7942TIP3    H245318   1.228   3.822  37.851 -0.6927 -2.5386 -0.8430
 7943TIP3   OH245319   0.308   2.522  47.621 -0.0175 -0.1090 -0.2486
 7943TIP3    H145320   0.352   2.471  47.688 -0.0961  0.3604  0.1659
 7943TIP3    H245321   0.356   2.503  47.540  1.8553  1.4591  0.4094
 7944TIP3   OH245322   1.380   2.334   1.480 -0.4343 -0.3736 -0.5402
 7944TIP3    H145323   1.395   2.383   1.561 -0.4366  0.7915 -1.2158
 7944TIP3    H245324   1.307   2.379   1.438  0.9695  0.4297 -2.2255
 7945TIP3   OH245325   3.057   2.416  21.638  0.7471  0.1919  0.1862
 7945TIP3    H145326   3.032   2.420  21.730  0.2856 -0.9687  0.1301
 7945TIP3    H245327   2.997   2.476  21.594  0.1354 -0.2043  0.4753
 7946TIP3   OH245328   3.294   2.456  16.524 -0.2773  0.2500  0.4150
 7946TIP3    H145329   3.363   2.473  16.588  0.4838  0.0347 -0.3366
 7946TIP3    H245330   3.213   2.479  16.570  0.0929 -1.4490  2.0517
 7947TIP3   OH245331   1.350   0.324  31.176 -0.3696  0.6943 -0.6925
 7947TIP3    H145332   1.378   0.287  31.092  1.9744  0.2176  0.2400
 7947TIP3    H245333   1.355   0.418  31.164 -0.2480  0.6350 -1.1382
 7948TIP3   OH245334   0.580   0.291   4.595 -0.6425 -0.1079  0.4800
 7948TIP3    H145335   0.520   0.346   4.646 -1.7958 -0.7690 -0.1253
 7948TIP3    H245336   0.651   0.350   4.571 -1.0657  0.7130  1.1898
 7949TIP3   OH245337   2.335   2.430  23.004 -0.5224  0.3048 -0.2014
 7949TIP3    H145338   2.325   2.400  22.914 -2.1665 -1.3177  0.4575
 7949TIP3    H245339   2.385   2.360  23.048 -0.1356  0.8590  0.2637
 7950TIP3   OH245340   3.084   0.190  28.122  0.1845  0.0731 -0.7589
 7950TIP3    H145341   3.051   0.103  28.098  1.7385 -0.5260 -0.8484
 7950TIP3    H245342   3.082   0.240  28.041  1.3947 -0.6067 -1.2337
 7951TIP3   OH245343   0.990   1.054  33.568  0.7677  0.2492 -0.6435
 7951TIP3    H145344   0.898   1.034  33.582  0.8711  0.0519 -0.2185
 7951TIP3    H245345   1.008   1.024  33.479  0.2807  0.8228 -0.9455
 7952TIP3   OH245346   0.628   0.364  41.813  0.9768 -0.5127 -0.4716
 7952TIP3    H145347   0.665   0.390  41.897  0.9011 -1.9921  0.0441
 7952TIP3    H245348   0.675   0.417  41.749  1.5690  0.0961  0.4438
 7953TIP3   OH245349   3.105   3.163   1.856  0.1477 -0.4211 -0.2372
 7953TIP3    H145350   3.087   3.202   1.942 -0.6484  0.5897 -0.8513
 7953TIP3    H245351   3.070   3.226   1.793  1.9553 -0.4835 -1.3582
 7954TIP3   OH245352   3.109   1.566  36.463 -0.0360  0.3169  0.4660
 7954TIP3    H145353   3.189   1.614  36.482  0.6930 -0.5569 -0.3129
 7954TIP3    H245354   3.042   1.634  36.452  0.7107  1.0841  0.5806
 7955TIP3   OH245355   3.896   3.582  37.442 -0.4116 -0.3476  0.1220
 7955TIP3    H145356   3.936   3.571  37.356 -0.0466 -1.0116  0.3651
 7955TIP3    H245357   3.866   3.673  37.443  0.5804  0.0057 -0.2973
 7956TIP3   OH245358   0.324   0.845  42.405 -0.2764  0.1511 -0.2387
 7956TIP3    H145359   0.363   0.859  42.318  0.1066 -1.6744 -0.3990
 7956TIP3    H245360   0.384   0.784  42.448 -1.5296 -0.5617  0.5393
 7957TIP3   OH245361   3.519   0.526   3.152 -0.2988 -0.2551  0.5799
 7957TIP3    H145362   3.520   0.568   3.238 -0.5703 -1.1808  1.0494
 7957TIP3    H245363   3.436   0.554   3.113 -0.3255 -0.0922  0.7531
 7958TIP3   OH245364   3.647   1.073  36.083 -0.2311 -0.1664  0.1797
 7958TIP3    H145365   3.590   1.123  36.141  0.5036  0.7574  0.1373
 7958TIP3    H245366   3.600   1.069  36.000 -0.9469 -0.8350  0.6042
 7959TIP3   OH245367   0.813   1.954  35.124 -0.1966 -0.4120 -0.0655
 7959TIP3    H145368   0.893   2.006  35.124  0.0756 -0.7702 -1.8234
 7959TIP3    H245369   0.742   2.017  35.135  0.2522  0.0416  0.2492
 7960TIP3   OH245370   3.181   2.732   2.438  0.2610 -0.3729  0.3048
 7960TIP3    H145371   3.085   2.729   2.442  0.2601 -0.7294  0.0743
 7960TIP3    H245372   3.200   2.820   2.405  0.0021 -0.3753  0.1364
 7961TIP3   OH245373   3.981   0.851  39.138 -0.0954 -0.3458 -0.0772
 7961TIP3    H145374   3.959   0.910  39.067  0.4992 -3.4988 -3.1982
 7961TIP3    H245375   4.072   0.826  39.121 -0.7278 -3.1746  0.1393
 7962TIP3   OH245376   1.852   1.621  12.564 -0.3740  0.3966 -0.4631
 7962TIP3    H145377   1.915   1.692  12.552 -0.9466  1.0431  0.2352
 7962TIP3    H245378   1.814   1.607  12.477  1.3853 -0.6667 -1.1051
 7963TIP3   OH245379   0.552   1.731  12.299  0.2164  0.1241 -0.0005
 7963TIP3    H145380   0.526   1.640  12.286 -3.7199  0.8759  1.4883
 7963TIP3    H245381   0.592   1.732  12.386  0.1587 -0.1560  0.0307
 7964TIP3   OH245382   1.744   2.461  47.131 -0.1833 -0.1092  0.3292
 7964TIP3    H145383   1.699   2.543  47.152  1.8620  1.0020  0.5418
 7964TIP3    H245384   1.695   2.394  47.180 -0.8260  1.2101  1.5708
 7965TIP3   OH245385   1.554   0.589   4.009  1.0249 -0.0428  0.1234
 7965TIP3    H145386   1.599   0.507   3.991  0.5868 -0.3398  0.3616
 7965TIP3    H245387   1.461   0.568   4.002  0.8987  1.0013 -2.2870
 7966TIP3   OH245388   3.706   2.227  11.887 -0.1619  0.0917 -0.5738
 7966TIP3    H145389   3.688   2.133  11.883 -1.2145  0.2857 -0.7722
 7966TIP3    H245390   3.755   2.245  11.807  0.0988 -0.2930 -0.5068
 7967TIP3   OH245391   2.226   1.023   3.120  0.2297 -0.4815 -0.4819
 7967TIP3    H145392   2.309   1.027   3.167 -0.4261 -2.5020  1.0037
 7967TIP3    H245393   2.214   0.930   3.100 -1.4683 -0.1915 -0.9946
 7968TIP3   OH245394   1.903   1.151  42.047  0.4581 -0.1304 -0.3742
 7968TIP3    H145395   1.958   1.074  42.059 -1.3615 -1.4190 -0.0708
 7968TIP3    H245396   1.816   1.117  42.027 -0.9513  1.7461  1.9751
 7969TIP3   OH245397   0.622   0.971  35.633 -1.0472  0.1845  0.0628
 7969TIP3    H145398   0.660   0.884  35.620 -0.8858  0.4202 -1.1056
 7969TIP3    H245399   0.538   0.954  35.674 -0.7321 -0.4840  0.4479
 7970TIP3   OH245400   1.515   2.774  39.014  0.4449  0.1717  0.6074
 7970TIP3    H145401   1.512   2.683  39.045  0.2558  0.0294  0.1887
 7970TIP3    H245402   1.595   2.778  38.961 -0.1343 -0.0692 -0.3104
 7971TIP3   OH245403   2.787   1.836  34.188 -0.3022  0.2131  0.1427
 7971TIP3    H145404   2.730   1.890  34.133 -0.7096 -1.4760 -1.2090
 7971TIP3    H245405   2.753   1.847  34.276 -1.8484  0.3755 -0.4375
 7972TIP3   OH245406   1.705   0.618   1.771 -0.2875 -0.3382 -0.2698
 7972TIP3    H145407   1.769   0.563   1.725 -1.1472 -1.4125 -0.2359
 7972TIP3    H245408   1.652   0.555   1.821 -0.8301  0.6049  0.3607
 7973TIP3   OH245409   3.993   3.892  44.654  0.2602  0.4460  0.8055
 7973TIP3    H145410   3.973   3.948  44.579  2.0219 -0.2806 -0.2716
 7973TIP3    H245411   4.019   3.952  44.723 -1.7240  1.1482  1.0192
 7974TIP3   OH245412   2.983   0.258  27.639 -0.2257 -0.7906 -0.6012
 7974TIP3    H145413   3.050   0.289  27.578  0.8579 -0.2788  0.7841
 7974TIP3    H245414   2.910   0.233  27.584  1.2672 -1.8186 -2.2310
 7975TIP3   OH245415   1.231   0.041  28.240 -0.4690 -0.2974 -0.0096
 7975TIP3    H145416   1.326   0.045  28.245 -0.4284 -0.2720 -0.7097
 7975TIP3    H245417   1.204  -0.002  28.322  0.3811 -3.5791 -1.3088
 7976TIP3   OH245418   0.845   2.228  10.966 -0.3109  0.6216 -0.6375
 7976TIP3    H145419   0.885   2.307  10.932  0.3504  1.3309  1.5890
 7976TIP3    H245420   0.829   2.247  11.059  1.2984 -2.3407  0.3871
 7977TIP3   OH245421   0.070   2.970   9.740 -0.5953 -0.0364  0.3566
 7977TIP3    H145422   0.057   2.883   9.779 -0.8379 -0.0548  0.2350
 7977TIP3    H245423   0.140   3.009   9.792  1.4728 -1.3406 -1.2374
 7978TIP3   OH245424   2.343   2.426  31.303  0.7438 -0.0814 -0.2337
 7978TIP3    H145425   2.402   2.365  31.259 -0.1923 -2.0127  1.0475
 7978TIP3    H245426   2.261   2.420  31.255  0.7257  0.4355 -0.2810
 7979TIP3   OH245427   2.796   1.042   6.679 -0.1981  0.1137 -0.0972
 7979TIP3    H145428   2.846   1.103   6.625 -0.9216  0.0140 -0.9144
 7979TIP3    H245429   2.827   0.956   6.652  0.0025  0.0795  0.2308
 7980TIP3   OH245430   0.161   1.125   8.015  0.0925  0.0222  0.0115
 7980TIP3    H145431   0.174   1.032   8.037  1.3583 -0.0973 -1.1098
 7980TIP3    H245432   0.070   1.142   8.036 -0.9240 -2.1989 -2.1466
 7981TIP3   OH245433   3.947   1.037  41.790 -0.3694  0.5559  0.1907
 7981TIP3    H145434   3.962   0.975  41.718  1.5111  0.1725  0.8796
 7981TIP3    H245435   3.863   1.011  41.827 -0.8786  0.1198 -1.2042
 7982TIP3   OH245436   1.604   3.713  46.168 -0.1021 -0.0469  0.1559
 7982TIP3    H145437   1.547   3.741  46.097 -0.4958  0.0022  0.4835
 7982TIP3    H245438   1.572   3.626  46.191 -1.6247  0.9015  1.9290
 7983TIP3   OH245439   0.826   0.397  13.756  0.4216 -0.2738 -0.0593
 7983TIP3    H145440   0.784   0.349  13.827  2.0300  0.1518  1.2408
 7983TIP3    H245441   0.874   0.330  13.707 -0.1428 -0.4696 -0.3525
 7984TIP3   OH245442   2.759   0.910   5.098  0.1123 -0.4940  0.1342
 7984TIP3    H145443   2.703   0.987   5.111 -0.4977 -1.0243  0.7557
 7984TIP3    H245444   2.836   0.943   5.053  0.1288  0.6026  0.9280
 7985TIP3   OH245445   2.339   0.506  11.242  0.2872 -0.6796 -0.8448
 7985TIP3    H145446   2.355   0.445  11.171  1.2076 -0.6737 -0.6647
 7985TIP3    H245447   2.362   0.458  11.321 -1.3441 -0.9023 -0.4698
 7986TIP3   OH245448   3.712   0.499   0.734 -0.2277  0.6093  0.5965
 7986TIP3    H145449   3.658   0.439   0.785 -1.1819  1.7220  0.9319
 7986TIP3    H245450   3.800   0.491   0.771  0.4249 -2.7702 -1.2769
 7987TIP3   OH245451   2.307   3.051  14.521  0.3762  0.1735  0.2692
 7987TIP3    H145452   2.402   3.046  14.515  0.4190 -1.2353  1.5360
 7987TIP3    H245453   2.290   3.100  14.601  0.1118 -1.7355  1.4577
 7988TIP3   OH245454   0.541   1.590  14.769  0.3872  0.3181  0.3612
 7988TIP3    H145455   0.519   1.520  14.831 -0.7359 -0.8405 -1.2561
 7988TIP3    H245456   0.468   1.651  14.776 -0.9756 -0.9968 -1.4073
 7989TIP3   OH245457   4.076   0.854  43.835  0.1415  0.1963  0.0208
 7989TIP3    H145458   4.026   0.903  43.901  1.1830  1.3734 -0.0364
 7989TIP3    H245459   4.082   0.913  43.761  0.4485 -0.4709 -0.4954
 7990TIP3   OH245460   2.970   1.464   4.884  0.0953 -1.0765 -0.6000
 7990TIP3    H145461   2.949   1.384   4.932 -1.5301  0.0692  0.7466
 7990TIP3    H245462   2.995   1.527   4.952  0.9242 -0.3156 -1.5816
 7991TIP3   OH245463   3.911   0.067  43.059  0.7442 -0.1380  0.9252
 7991TIP3    H145464   3.963   0.140  43.025  2.0586 -0.7233  1.5793
 7991TIP3    H245465   3.956  -0.011  43.028  0.0979 -0.6725  1.2935
 7992TIP3   OH245466   2.406   1.726  16.253 -0.5948 -0.3472  0.1701
 7992TIP3    H145467   2.323   1.691  16.283 -0.4660 -0.2317  0.6652
 7992TIP3    H245468   2.384   1.813  16.219 -1.0290 -1.1321 -1.6892
 7993TIP3   OH245469   0.802   3.865   5.107  0.0767  0.2400 -0.3038
 7993TIP3    H145470   0.742   3.916   5.052  0.8419 -0.5712 -1.9723
 7993TIP3    H245471   0.838   3.799   5.048  1.2886 -0.4021  1.0902
 7994TIP3   OH245472   1.132   2.141  13.150 -0.1022  0.1055 -0.4450
 7994TIP3    H145473   1.206   2.117  13.095  0.7856  0.5347  0.5298
 7994TIP3    H245474   1.167   2.139  13.240 -0.6141  2.6489 -0.1324
 7995TIP3   OH245475   3.106   1.584   8.327  0.1439  0.2808  0.7926
 7995TIP3    H145476   3.130   1.656   8.269 -0.8513  0.9703  1.2160
 7995TIP3    H245477   3.100   1.624   8.414  1.0545 -0.6227  1.3031
 7996TIP3   OH245478   1.081   1.382  36.223 -0.4483  0.0204 -0.1031
 7996TIP3    H145479   1.088   1.320  36.296  0.3564 -0.3408 -0.4696
 7996TIP3    H245480   1.157   1.362  36.167  0.2036  1.7393  0.0862
 7997TIP3   OH245481   1.344   0.197  36.143  0.3788  0.2901  0.0371
 7997TIP3    H145482   1.335   0.161  36.231 -1.2911  0.5431  0.0035
 7997TIP3    H245483   1.256   0.225  36.119  1.1899  2.3636 -0.8145
 7998TIP3   OH245484   3.626   2.854   1.934  0.5023 -0.5429  0.1799
 7998TIP3    H145485   3.621   2.925   1.870  1.5337  0.4448  1.1619
 7998TIP3    H245486   3.693   2.795   1.900  0.3642 -0.5275 -0.1238
 7999TIP3   OH245487   3.505   3.438   9.769  0.4344 -0.2223  0.6987
 7999TIP3    H145488   3.448   3.442   9.692 -1.1413 -1.1381  1.7529
 7999TIP3    H245489   3.448   3.466   9.841  1.3423 -1.1386  1.7925
 8000TIP3   OH245490   2.923   2.498   5.495  0.1982  0.6501 -0.4972
 8000TIP3    H145491   2.998   2.472   5.549  1.0828  0.0074 -1.9778
 8000TIP3    H245492   2.945   2.468   5.407 -1.0428  1.9861 -1.3075
 8001TIP3   OH245493   0.323   3.105  45.593  0.3774  0.6554 -0.1245
 8001TIP3    H145494   0.261   3.072  45.658  0.0398 -0.4197 -0.9611
 8001TIP3    H245495   0.388   3.153  45.645 -0.6040  0.9661  0.8632
 8002TIP3   OH245496   3.339   1.912  10.755  0.5045 -0.7179  0.0730
 8002TIP3    H145497   3.266   1.972  10.770 -0.7990 -1.7499 -1.7490
 8002TIP3    H245498   3.311   1.830  10.797  1.1466 -0.7999  0.3555
 8003TIP3   OH245499   2.053   0.549  41.910 -0.2517 -0.3728 -0.1517
 8003TIP3    H145500   2.106   0.538  41.989  0.0677 -2.2523 -0.5894
 8003TIP3    H245501   2.089   0.626  41.867 -0.1685  0.4423  1.3175
 8004TIP3   OH245502   0.377   3.614  29.526  0.1846 -0.1987 -0.0512
 8004TIP3    H145503   0.439   3.637  29.595  0.2454 -0.1473 -0.1216
 8004TIP3    H245504   0.307   3.567  29.571 -0.7742  1.5494  0.3907
 8005TIP3   OH245505   1.819   2.234  47.618  0.1038 -0.4494 -0.5958
 8005TIP3    H145506   1.824   2.269  47.707 -1.8804 -0.6909 -0.3275
 8005TIP3    H245507   1.779   2.147  47.629 -0.7847 -0.2192 -1.7453
 8006TIP3   OH245508   3.545   1.161  34.603  0.1166 -0.3439  0.6729
 8006TIP3    H145509   3.587   1.101  34.665  0.5230 -0.7061  0.0549
 8006TIP3    H245510   3.597   1.153  34.523  1.2451  2.1164  1.0771
 8007TIP3   OH245511   0.521   1.446  40.906  0.3812  0.5822  0.4301
 8007TIP3    H145512   0.469   1.506  40.959 -1.1943  1.4070 -1.8808
 8007TIP3    H245513   0.470   1.364  40.906 -0.8721  1.2764 -1.5257
 8008TIP3   OH245514   3.239   2.164  10.012  0.2597 -0.6933 -0.0699
 8008TIP3    H145515   3.328   2.179  10.043  0.6680 -2.3092 -0.3744
 8008TIP3    H245516   3.236   2.071   9.990 -0.5652 -0.0838 -3.0283
 8009TIP3   OH245517   1.761   0.211  33.335 -0.0785  0.2336 -0.4724
 8009TIP3    H145518   1.770   0.129  33.286 -0.0425 -0.1095  0.0999
 8009TIP3    H245519   1.759   0.184  33.426 -1.1019  0.7847 -0.3170
 8010TIP3   OH245520   1.393   0.741  34.599  0.3837  0.2533  0.3467
 8010TIP3    H145521   1.438   0.730  34.683  0.3954  1.2823  0.4856
 8010TIP3    H245522   1.333   0.814  34.614 -0.8065 -0.6094 -0.0613
 8011TIP3   OH245523   0.402   3.956  39.795 -0.0543  0.4762  0.6535
 8011TIP3    H145524   0.364   3.907  39.868  0.0324  0.1499  0.4838
 8011TIP3    H245525   0.494   3.967  39.819  0.7238 -2.1829 -0.6724
 8012TIP3   OH245526   1.179   2.644  15.743 -0.2256  0.6052 -0.2528
 8012TIP3    H145527   1.187   2.738  15.760 -0.3501  0.4789  0.5279
 8012TIP3    H245528   1.105   2.616  15.796 -0.5170  0.1614 -0.8912
 8013TIP3   OH245529   1.668   2.151  21.589  0.1259  0.0790  0.1987
 8013TIP3    H145530   1.647   2.078  21.531  0.1781 -0.7610  1.1951
 8013TIP3    H245531   1.584   2.176  21.627  0.1342  0.4234 -0.0100
 8014TIP3   OH245532   2.265   2.405  38.787  0.2373  0.4618 -0.3200
 8014TIP3    H145533   2.341   2.444  38.831  0.8981  0.3771 -1.3539
 8014TIP3    H245534   2.251   2.322  38.833  1.1983  0.1612 -0.5413
 8015TIP3   OH245535   3.465   2.293  43.961 -0.4804  0.3506 -0.0553
 8015TIP3    H145536   3.439   2.325  44.048  0.0056 -0.5592  0.4477
 8015TIP3    H245537   3.513   2.212  43.979 -1.0965 -0.3041 -1.2379
 8016TIP3   OH245538   3.512   2.504   5.665  0.2322  0.5234 -0.1369
 8016TIP3    H145539   3.583   2.501   5.730  1.0646  1.8577 -0.9402
 8016TIP3    H245540   3.532   2.433   5.605 -1.2008 -1.5116  1.6543
 8017TIP3   OH245541   1.399   2.809  35.050  0.5040 -0.2784  0.2017
 8017TIP3    H145542   1.318   2.787  35.096 -0.8769  1.6564 -1.1509
 8017TIP3    H245543   1.447   2.726  35.046 -1.6948 -1.6647  0.4971
 8018TIP3   OH245544   3.916   0.087  10.910  0.3520  0.0936  0.4246
 8018TIP3    H145545   3.973   0.074  10.835  0.0821  1.0811  0.0335
 8018TIP3    H245546   3.938   0.175  10.942 -2.3523  1.3993 -1.0104
 8019TIP3   OH245547   0.564   2.773  31.754 -0.2407  0.2265  0.2757
 8019TIP3    H145548   0.572   2.706  31.822  2.0998  0.4168  0.2813
 8019TIP3    H245549   0.472   2.772  31.730 -0.6155 -1.7197  1.5511
 8020TIP3   OH245550   0.992   2.720  45.172 -0.1047 -0.3150 -0.6621
 8020TIP3    H145551   0.979   2.791  45.109  1.7219 -0.2992 -1.0919
 8020TIP3    H245552   1.081   2.688  45.154  0.3061 -0.6092  1.5967
 8021TIP3   OH245553   0.881   0.269   0.137 -0.0024  0.3104  0.1122
 8021TIP3    H145554   0.786   0.257   0.132 -0.5034  3.0502  1.1905
 8021TIP3    H245555   0.892   0.356   0.175  2.9686  0.2564 -0.3831
 8022TIP3   OH245556   1.213   2.278  17.027 -0.1068  0.0873 -0.3510
 8022TIP3    H145557   1.257   2.313  16.950  0.6757  1.3474  0.6349
 8022TIP3    H245558   1.244   2.332  17.100 -0.6134 -1.2318  0.8990
 8023TIP3   OH245559   1.429   2.036  19.258  0.0691  0.2792  0.0710
 8023TIP3    H145560   1.441   2.128  19.235 -0.2453  0.6232  1.2298
 8023TIP3    H245561   1.410   2.037  19.351  2.2394 -1.1253  0.6073
 8024TIP3   OH245562   4.002   2.365  37.976 -0.0998  0.1937 -0.1312
 8024TIP3    H145563   3.959   2.281  37.962 -0.7246  0.4904 -0.0169
 8024TIP3    H245564   3.988   2.413  37.895 -0.4086  0.4740  0.0868
 8025TIP3   OH245565   2.736   2.019  34.654 -0.7844  0.2483 -0.2579
 8025TIP3    H145566   2.722   1.983  34.567  1.4397 -1.2260 -0.1119
 8025TIP3    H245567   2.720   1.946  34.714  1.4330  0.0659  0.2275
 8026TIP3   OH245568   3.792   3.419  36.013 -0.1605  0.6617 -0.5599
 8026TIP3    H145569   3.804   3.393  36.104 -2.4896 -1.0579 -0.6757
 8026TIP3    H245570   3.874   3.463  35.990  0.7081  0.6217  2.1611
 8027TIP3   OH245571   1.732   1.325  15.578 -0.2212  0.1507 -0.1817
 8027TIP3    H145572   1.723   1.233  15.555 -0.9044  0.4832 -1.3178
 8027TIP3    H245573   1.824   1.335  15.604 -0.1097 -0.8121 -0.1856
 8028TIP3   OH245574   0.533   3.062   3.647 -0.4245  1.1454  0.8238
 8028TIP3    H145575   0.579   3.053   3.564 -1.4323  2.6548  0.0453
 8028TIP3    H245576   0.592   3.023   3.712 -1.0530 -3.2695 -0.9272
 8029TIP3   OH245577   1.070   0.853  46.779 -0.3336 -0.4157  0.2290
 8029TIP3    H145578   1.057   0.760  46.795 -0.5501 -0.5386 -0.5805
 8029TIP3    H245579   1.030   0.868  46.693 -1.4917  0.6949  0.9365
 8030TIP3   OH245580   3.340   2.709  32.849 -0.1965 -0.2634 -0.0878
 8030TIP3    H145581   3.376   2.622  32.830 -1.3332 -0.4065 -1.8650
 8030TIP3    H245582   3.319   2.745  32.763 -3.7501 -0.0118  0.7396
 8031TIP3   OH245583   0.784   3.132  34.030 -0.4134 -0.3437  0.6570
 8031TIP3    H145584   0.790   3.215  33.983  2.3682 -0.1324  1.2479
 8031TIP3    H245585   0.862   3.083  34.004 -2.6825 -3.5431 -0.8761
 8032TIP3   OH245586   3.540   3.318  14.996 -0.5953 -0.1363 -0.1533
 8032TIP3    H145587   3.556   3.227  14.970  1.2635  0.1423 -0.0875
 8032TIP3    H245588   3.481   3.310  15.071  2.2293 -1.5977  2.1556
 8033TIP3   OH245589   3.694   3.142   2.852 -0.8103 -0.6674 -0.3970
 8033TIP3    H145590   3.776   3.184   2.827 -1.0129  0.5937  0.9245
 8033TIP3    H245591   3.720   3.056   2.885  0.2187  0.3690  1.6582
 8034TIP3   OH245592   0.720   1.328  16.732  0.1831  0.8760 -0.1316
 8034TIP3    H145593   0.736   1.420  16.709  1.4228  0.7704  0.2436
 8034TIP3    H245594   0.703   1.329  16.826  0.0661  0.7325 -0.1494
 8035TIP3   OH245595   2.762   3.056   1.633  0.0626 -0.4900  0.6408
 8035TIP3    H145596   2.798   3.121   1.572 -0.4463  0.8195  1.6790
 8035TIP3    H245597   2.720   3.108   1.701 -1.9309 -1.9352  0.6034
 8036TIP3   OH245598   3.153   0.567   9.162 -0.1843 -0.6839 -0.1321
 8036TIP3    H145599   3.248   0.574   9.149  0.6111 -3.5342  2.8280
 8036TIP3    H245600   3.127   0.654   9.192  1.6891 -0.0653 -0.1575
 8037TIP3   OH245601   2.919   1.757  10.894 -0.3542 -0.2837  0.5822
 8037TIP3    H145602   2.850   1.794  10.840 -0.4149 -1.2830 -0.0459
 8037TIP3    H245603   2.993   1.816  10.882 -0.3506 -0.5109 -0.6503
 8038TIP3   OH245604   2.907   0.335  25.746  0.1599 -0.2175 -0.1151
 8038TIP3    H145605   2.867   0.312  25.830 -0.9252  0.5925 -0.3798
 8038TIP3    H245606   2.836   0.379  25.697  0.8938 -0.2862 -1.2787
 8039TIP3   OH245607   2.184   1.674  36.989 -0.0336 -0.3060 -0.4083
 8039TIP3    H145608   2.247   1.607  37.017 -0.6519 -0.3031  1.0878
 8039TIP3    H245609   2.137   1.697  37.069 -2.7071 -1.0779 -1.6412
 8040TIP3   OH245610   0.013   2.904  15.735 -0.3918  0.6854 -0.1657
 8040TIP3    H145611   0.065   2.984  15.744 -0.9163  1.1965 -1.4271
 8040TIP3    H245612   0.038   2.850  15.810  0.3393  1.8235  0.4285
 8041TIP3   OH245613   1.396   1.386  45.225  0.2765 -0.0137  0.1019
 8041TIP3    H145614   1.474   1.429  45.191  1.7709 -2.0361  0.8132
 8041TIP3    H245615   1.407   1.386  45.319 -2.1856  2.4512  0.5523
 8042TIP3   OH245616   0.324   2.880  31.387 -0.7261  0.2489 -0.0901
 8042TIP3    H145617   0.382   2.947  31.351 -1.4540  1.4534  0.8773
 8042TIP3    H245618   0.237   2.920  31.382 -1.3133 -1.0133 -0.3322
 8043TIP3   OH245619   3.477   0.937  39.829 -0.4674 -0.1273  0.0688
 8043TIP3    H145620   3.452   0.861  39.776  1.6433 -0.3529 -0.7118
 8043TIP3    H245621   3.529   0.900  39.900 -1.3656  0.4017  1.0182
 8044TIP3   OH245622   3.540   0.010   0.426 -0.0261 -0.2680 -0.0608
 8044TIP3    H145623   3.445  -0.004   0.426 -0.1577  0.5273  0.6483
 8044TIP3    H245624   3.567  -0.012   0.337 -0.6950 -1.5877  0.0325
 8045TIP3   OH245625   1.620   3.207  38.535  0.6816 -0.2836 -0.0394
 8045TIP3    H145626   1.528   3.203  38.564  1.4569 -0.9853  2.6725
 8045TIP3    H245627   1.636   3.300  38.520 -0.3080 -0.0849  0.0331
 8046TIP3   OH245628   2.876   3.173  30.750  0.2990 -0.0433 -0.2483
 8046TIP3    H145629   2.807   3.136  30.695 -1.0158 -0.9656  1.8955
 8046TIP3    H245630   2.896   3.103  30.813  4.0328 -0.2392 -1.4263
 8047TIP3   OH245631   0.474   0.706   7.669  0.2361  0.6042  0.3691
 8047TIP3    H145632   0.452   0.790   7.709  0.5528  0.7609  0.2169
 8047TIP3    H245633   0.448   0.715   7.578 -0.7799  0.1357  0.5944
 8048TIP3   OH245634   1.957   1.859  14.947 -0.3279 -0.0186  0.2318
 8048TIP3    H145635   1.986   1.891  15.032 -1.6463  0.2720  0.6046
 8048TIP3    H245636   1.862   1.874  14.947 -0.4734 -0.7688 -0.9613
 8049TIP3   OH245637   2.194   0.326  25.077  0.3529  0.1808 -0.3394
 8049TIP3    H145638   2.151   0.332  24.992  1.7792  1.5837 -1.0300
 8049TIP3    H245639   2.127   0.352  25.140 -0.9607 -1.6429 -0.9111
 8050TIP3   OH245640   3.059   0.768  13.150  0.1029  0.4244  0.2924
 8050TIP3    H145641   3.137   0.799  13.196  0.6480 -1.2531  0.5690
 8050TIP3    H245642   3.087   0.758  13.059 -0.1626  1.0202  0.1406
 8051TIP3   OH245643   1.769   2.582  17.124 -0.5700  0.4354 -0.3000
 8051TIP3    H145644   1.818   2.518  17.073  0.0563 -0.4738  1.3750
 8051TIP3    H245645   1.786   2.665  17.081  2.6303  0.1976  0.2586
 8052TIP3   OH245646   3.983   3.622  44.669  0.1391 -0.2786 -0.2326
 8052TIP3    H145647   3.894   3.591  44.654 -0.4045  0.3035  1.5194
 8052TIP3    H245648   3.982   3.712  44.635 -0.2104  0.0285  0.5778
 8053TIP3   OH245649   3.998   1.963  16.521  0.3228  0.5629  0.1119
 8053TIP3    H145650   3.967   2.048  16.552 -0.5176 -0.2587  1.6282
 8053TIP3    H245651   4.062   1.936  16.586 -0.1538 -0.4094  0.1956
 8054TIP3   OH245652   3.089   1.412   4.658 -0.1556  0.7031 -0.3593
 8054TIP3    H145653   3.170   1.463   4.651  0.5955 -0.6116 -2.5955
 8054TIP3    H245654   3.060   1.424   4.748  1.2789  3.0496 -0.1252
 8055TIP3   OH245655   1.744   1.459   4.638 -0.0397  0.0871  0.1884
 8055TIP3    H145656   1.755   1.373   4.597 -1.5534 -0.3459  0.6123
 8055TIP3    H245657   1.810   1.461   4.707  0.4659 -0.4412 -0.2606
 8056TIP3   OH245658   3.322   3.835  28.727 -0.3292 -0.6828 -0.0784
 8056TIP3    H145659   3.354   3.750  28.697 -1.2738 -1.0676 -0.0223
 8056TIP3    H245660   3.245   3.852  28.673 -0.2495  0.0609  0.0289
 8057TIP3   OH245661   2.920   3.594  11.777 -0.6985  0.2086 -0.3381
 8057TIP3    H145662   2.981   3.619  11.707  0.7598  2.2324  1.5211
 8057TIP3    H245663   2.845   3.653  11.765 -0.3470  0.7150 -0.0687
 8058TIP3   OH245664   0.670   1.048  17.130  0.3433 -0.7891  0.3464
 8058TIP3    H145665   0.764   1.051  17.147  0.2399  1.0208  0.8593
 8058TIP3    H245666   0.631   1.031  17.216  0.0818  2.7088  1.0873
 8059TIP3   OH245667   1.921   2.857  44.887 -0.3211 -0.0283  0.0927
 8059TIP3    H145668   1.854   2.914  44.851 -1.0807  0.7014  2.5015
 8059TIP3    H245669   2.000   2.911  44.888 -0.2239 -0.1449 -0.6736
 8060TIP3   OH245670   1.480   0.756  31.951  0.3773  0.0684 -0.3893
 8060TIP3    H145671   1.560   0.792  31.911 -0.1818  3.6348  1.3398
 8060TIP3    H245672   1.511   0.680  32.000  2.1876 -0.3497 -2.0484
 8061TIP3   OH245673   3.602   3.260  47.657 -0.4254 -0.6835 -0.1025
 8061TIP3    H145674   3.624   3.183  47.605  0.7088 -0.6022  0.2311
 8061TIP3    H245675   3.678   3.319  47.647 -1.0009  0.1250  0.1400
 8062TIP3   OH245676   1.569   1.425  11.800  0.4563 -0.2362  0.2413
 8062TIP3    H145677   1.511   1.389  11.867  0.0308 -0.0361 -0.0144
 8062TIP3    H245678   1.516   1.425  11.720  0.5233  0.7361  0.1810
 8063TIP3   OH245679   1.564   0.337  11.741  0.4960 -0.3601  0.0122
 8063TIP3    H145680   1.591   0.276  11.809 -1.8264  0.1016  1.4623
 8063TIP3    H245681   1.526   0.281  11.673 -0.4825 -0.6503  0.7692
 8064TIP3   OH245682   3.937   3.118  15.179 -0.3547  0.1827  0.2727
 8064TIP3    H145683   3.860   3.068  15.208 -0.4747 -0.2913 -0.7913
 8064TIP3    H245684   3.901   3.189  15.126 -0.1134  0.6920  0.7815
 8065TIP3   OH245685   3.079   0.159  26.557 -0.0831 -0.4575 -0.0649
 8065TIP3    H145686   3.044   0.118  26.636  2.0742  0.3648  1.4241
 8065TIP3    H245687   3.152   0.103  26.532 -0.1627 -0.1817 -0.9407
 8066TIP3   OH245688   2.264   0.046  35.834  0.0398 -0.2979  0.5734
 8066TIP3    H145689   2.325   0.060  35.906 -0.5596  0.3435  0.9690
 8066TIP3    H245690   2.182   0.086  35.863 -0.5019 -0.9038 -0.0552
 8067TIP3   OH245691   2.672   3.407   1.569  0.5715  0.0518  0.6033
 8067TIP3    H145692   2.645   3.329   1.618 -0.4500  0.0182  0.0252
 8067TIP3    H245693   2.668   3.478   1.633  1.9107 -0.4205  1.2381
 8068TIP3   OH245694   3.926   2.864   2.423 -0.0692  0.2525 -0.0104
 8068TIP3    H145695   3.931   2.771   2.444  0.1090  0.2197 -0.1903
 8068TIP3    H245696   3.971   2.908   2.496 -1.3256  0.3040  0.7625
 8069TIP3   OH245697   2.634   3.825  34.146  0.2454  0.3854 -0.1294
 8069TIP3    H145698   2.685   3.899  34.115  0.7690  0.0725 -0.0177
 8069TIP3    H245699   2.693   3.750  34.142  0.0071  0.1406  0.6290
 8070TIP3   OH245700   3.953   1.602  31.924 -0.2924  0.2629  0.5324
 8070TIP3    H145701   3.884   1.661  31.956 -1.0725  0.3366 -1.1947
 8070TIP3    H245702   4.032   1.656  31.924 -0.3708  0.4204  1.7385
 8071TIP3   OH245703   0.134   1.842  14.746 -0.2364  0.5140  0.0168
 8071TIP3    H145704   0.060   1.863  14.690 -0.1235  0.6132 -0.0979
 8071TIP3    H245705   0.211   1.856  14.690 -0.1847 -2.6234 -0.9077
 8072TIP3   OH245706   1.967   2.234  44.221  0.3432  0.1582  0.0231
 8072TIP3    H145707   1.957   2.150  44.266  0.2020 -0.5495 -1.2607
 8072TIP3    H245708   1.979   2.298  44.291 -0.1879 -0.8419  1.0614
 8073TIP3   OH245709   0.906   0.845   7.641  0.1405 -0.5196  0.5240
 8073TIP3    H145710   0.844   0.780   7.610  1.0996 -1.4312  0.4403
 8073TIP3    H245711   0.984   0.831   7.586  0.9339 -0.3988  1.5928
 8074TIP3   OH245712   1.208   2.474  42.268  0.2444 -0.3027  0.3428
 8074TIP3    H145713   1.141   2.445  42.330  1.8308 -1.1031  1.7955
 8074TIP3    H245714   1.261   2.537  42.318  0.7183  0.1148 -0.6665
 8075TIP3   OH245715   0.830   1.957  41.881  0.8491 -0.1007  0.1288
 8075TIP3    H145716   0.811   2.023  41.947  1.2686  0.4904 -0.3280
 8075TIP3    H245717   0.751   1.954  41.827 -0.0339 -1.5545  1.4155
 8076TIP3   OH245718   2.470   2.356   7.318 -0.4667  0.1525 -0.2734
 8076TIP3    H145719   2.388   2.386   7.357 -0.2438  1.3587 -0.7083
 8076TIP3    H245720   2.525   2.434   7.313  0.7042 -0.6313 -0.0234
 8077TIP3   OH245721   1.254   1.955  44.040  0.4729  0.6502  0.2693
 8077TIP3    H145722   1.266   1.928  43.949 -0.5179  0.0417  0.3024
 8077TIP3    H245723   1.269   2.049  44.040  0.4664  0.6512 -0.5242
 8078TIP3   OH245724   3.725   3.383  41.375 -0.1144  0.0595  0.2885
 8078TIP3    H145725   3.784   3.310  41.357 -0.0272  0.4132 -0.9015
 8078TIP3    H245726   3.643   3.342  41.402 -0.3673 -0.5085 -1.2937
 8079TIP3   OH245727   3.016   3.430  33.884  0.3943 -0.0009 -0.0899
 8079TIP3    H145728   2.935   3.437  33.935  0.1556 -1.5850 -0.2141
 8079TIP3    H245729   3.038   3.337  33.887  0.6340 -0.0805 -2.4796
 8080TIP3   OH245730   3.962   2.844  46.882 -0.6375  0.9315 -0.7809
 8080TIP3    H145731   4.027   2.838  46.952 -0.0224 -0.1213 -1.4212
 8080TIP3    H245732   3.899   2.775  46.903 -0.4857  0.6568 -1.2210
 8081TIP3   OH245733   2.229   1.498   6.666 -0.3733 -0.2684 -0.0683
 8081TIP3    H145734   2.307   1.476   6.614 -0.4241 -0.3603 -0.1064
 8081TIP3    H245735   2.155   1.471   6.612 -0.4206 -0.6537  0.1758
 8082TIP3   OH245736   0.249   3.263  14.041 -0.0883  0.6565 -0.2996
 8082TIP3    H145737   0.321   3.220  14.087 -1.5114  0.5955  2.0207
 8082TIP3    H245738   0.288   3.292  13.958  2.3649 -0.0938  0.4936
 8083TIP3   OH245739   3.923   1.939   9.540  0.0701 -0.3073 -0.2063
 8083TIP3    H145740   3.945   1.878   9.470 -1.4734 -0.3371 -0.7026
 8083TIP3    H245741   3.885   1.885   9.608  0.6290 -0.1470  0.2405
 8084TIP3   OH245742   3.758   2.628  43.189 -0.2135 -0.0237  0.2189
 8084TIP3    H145743   3.694   2.596  43.252 -2.8898  3.2099 -0.5381
 8084TIP3    H245744   3.840   2.632  43.237 -0.8212 -2.9242  1.7120
 8085TIP3   OH245745   3.889   2.364  44.028 -0.2297 -0.2976  0.1524
 8085TIP3    H145746   3.942   2.419  44.085 -1.5906 -0.1344  1.3029
 8085TIP3    H245747   3.802   2.365  44.067 -1.0349 -0.7745 -1.5310
 8086TIP3   OH245748   2.502   1.918  17.614 -0.1318  0.0939 -0.2587
 8086TIP3    H145749   2.511   1.949  17.704 -0.9870  1.2794 -0.5557
 8086TIP3    H245750   2.458   1.833  17.623  1.3219 -0.6137  0.5131
 8087TIP3   OH245751   1.694   1.833  31.920  0.0323  0.0439 -0.0037
 8087TIP3    H145752   1.634   1.902  31.949  0.6171 -0.3749  2.4471
 8087TIP3    H245753   1.646   1.785  31.852 -0.1628  3.1381 -2.2514
 8088TIP3   OH245754   4.046   0.550  44.149  0.0091  0.4262 -0.2040
 8088TIP3    H145755   4.071   0.490  44.078  0.0011  0.0837  0.0788
 8088TIP3    H245756   4.099   0.628  44.134 -0.8949  0.8478 -1.3032
 8089TIP3   OH245757   1.315   2.708   5.305 -0.0564 -0.1819  0.1344
 8089TIP3    H145758   1.345   2.669   5.223  1.7497 -4.2186  2.3760
 8089TIP3    H245759   1.375   2.780   5.321  0.3967 -0.1706 -1.4249
 8090TIP3   OH245760   0.194   2.438   0.517 -0.0609  0.3092 -0.6611
 8090TIP3    H145761   0.210   2.481   0.433  1.0760 -0.8756 -1.0863
 8090TIP3    H245762   0.200   2.508   0.582 -1.1933  1.2897 -1.5517
 8091TIP3   OH245763   3.827   2.136   1.535 -0.2717 -0.0286 -0.5447
 8091TIP3    H145764   3.796   2.095   1.455 -2.1643  2.1249 -1.0113
 8091TIP3    H245765   3.833   2.229   1.514  2.4376  0.2214  0.8819
 8092TIP3   OH245766   0.974   1.461   6.607 -0.0578 -0.5470  0.3801
 8092TIP3    H145767   0.948   1.545   6.644  1.2852  0.1677 -0.2435
 8092TIP3    H245768   0.892   1.420   6.581 -0.7121  0.7161  0.3816
 8093TIP3   OH245769   1.050   1.491  35.380 -0.1029  0.1365  0.2014
 8093TIP3    H145770   0.974   1.444  35.414 -1.5079  0.5708 -2.0630
 8093TIP3    H245771   1.013   1.569  35.339  1.4312 -0.0490 -1.7025
 8094TIP3   OH245772   0.840   3.531  45.524 -0.1606  0.1281  0.4914
 8094TIP3    H145773   0.816   3.474  45.598  1.1098  1.7649  2.2774
 8094TIP3    H245774   0.933   3.550  45.538 -0.4916  2.4880 -0.0905
 8095TIP3   OH245775   3.551   1.721  19.805 -0.0583  0.1313  0.2175
 8095TIP3    H145776   3.588   1.645  19.850 -2.0667 -0.4462  0.9931
 8095TIP3    H245777   3.605   1.730  19.727  2.3055 -0.0361  1.7133
 8096TIP3   OH245778   0.707   0.992  46.170  0.3443 -0.5587 -0.3074
 8096TIP3    H145779   0.780   0.930  46.163  0.1980 -0.9445  1.3955
 8096TIP3    H245780   0.652   0.958  46.239 -2.5351 -1.3003 -2.7458
 8097TIP3   OH245781   0.362   2.047  46.621  0.1154 -1.0604 -0.7418
 8097TIP3    H145782   0.303   1.989  46.670 -0.5911  1.3171  1.4163
 8097TIP3    H245783   0.310   2.073  46.544 -2.6124  2.2451  1.8787
 8098TIP3   OH245784   3.334   1.008  31.866 -0.1138 -0.4626  0.3258
 8098TIP3    H145785   3.288   1.092  31.865  0.4900 -0.0684 -2.2873
 8098TIP3    H245786   3.427   1.033  31.873  0.0433 -0.9130 -0.1043
 8099TIP3   OH245787   1.044   3.876   8.867  0.2298 -0.1898  0.1661
 8099TIP3    H145788   1.069   3.960   8.828 -2.0378  0.1190 -0.8108
 8099TIP3    H245789   0.993   3.832   8.798  0.7822 -2.0868  0.8973
 8100TIP3   OH245790   4.012   3.131  43.254  0.1572 -0.8456 -0.2821
 8100TIP3    H145791   3.999   3.212  43.304  0.7681  0.2064 -1.7426
 8100TIP3    H245792   3.947   3.071  43.288 -0.2274  0.2230  0.9456
 8101TIP3   OH245793   1.190   0.319  33.326 -0.1425  0.5332  0.0257
 8101TIP3    H145794   1.180   0.372  33.406  1.7501 -0.1757  0.7840
 8101TIP3    H245795   1.134   0.243  33.341  0.0299  0.5125  0.5960
 8102TIP3   OH245796   3.664   4.020  33.173 -0.8098 -0.4666  0.1178
 8102TIP3    H145797   3.610   4.009  33.252  0.2961  1.3880  1.2089
 8102TIP3    H245798   3.652   4.112  33.149  0.2129 -0.5718 -0.8526
 8103TIP3   OH245799   2.103   1.212  15.679 -0.4247 -0.0197  0.2281
 8103TIP3    H145800   2.156   1.148  15.726  0.4138  0.2336 -0.3507
 8103TIP3    H245801   2.036   1.238  15.742  0.0784 -0.4147  0.9461
 8104TIP3   OH245802   1.736   2.677  36.430 -0.2006 -0.2587  0.6158
 8104TIP3    H145803   1.759   2.594  36.473  0.5411 -0.0876  0.5617
 8104TIP3    H245804   1.670   2.716  36.488  0.2594 -0.3695  1.2311
 8105TIP3   OH245805   3.177   2.723  15.638  0.4857 -0.4780  0.0799
 8105TIP3    H145806   3.234   2.681  15.574  1.5004  3.3323 -1.7936
 8105TIP3    H245807   3.221   2.711  15.722  0.7251 -2.8909 -0.3072
 8106TIP3   OH245808   1.426   1.925  21.509  0.0329  0.2751 -0.0371
 8106TIP3    H145809   1.331   1.920  21.498  0.1287 -2.1442 -0.3535
 8106TIP3    H245810   1.438   1.953  21.600 -1.0232 -0.6719  0.4294
 8107TIP3   OH245811   2.552   4.023   3.969 -0.4067  0.1105  0.1267
 8107TIP3    H145812   2.563   3.935   4.004 -0.1564 -0.1940 -0.6836
 8107TIP3    H245813   2.559   4.081   4.045  0.0745 -0.5244  0.5717
 8108TIP3   OH245814   1.402   3.224  14.062 -0.0251  0.0166 -0.0694
 8108TIP3    H145815   1.421   3.314  14.091 -0.2802  0.5639 -1.4880
 8108TIP3    H245816   1.310   3.227  14.035  0.5392 -0.0364 -2.2017
 8109TIP3   OH245817   3.507   0.704   9.704  0.1428  1.0752 -0.3777
 8109TIP3    H145818   3.570   0.634   9.685 -2.0962 -2.0175  2.3283
 8109TIP3    H245819   3.557   0.770   9.751  1.6987 -0.5425  0.3372
 8110TIP3   OH245820   2.726   2.600  10.467 -0.4431  0.1031  0.2599
 8110TIP3    H145821   2.660   2.668  10.455 -0.7673 -0.3364 -0.5562
 8110TIP3    H245822   2.746   2.570  10.378  0.8851  0.2570  0.4844
 8111TIP3   OH245823   2.206   1.794  17.981 -0.3455 -0.4164 -0.1619
 8111TIP3    H145824   2.203   1.859  17.912 -0.8266 -2.0337 -1.7557
 8111TIP3    H245825   2.167   1.837  18.057  0.2391  1.4248 -0.8628
 8112TIP3   OH245826   1.864   0.387  33.163 -0.1733  0.2237 -0.4782
 8112TIP3    H145827   1.821   0.321  33.218  1.0119  0.4928  0.8335
 8112TIP3    H245828   1.803   0.460  33.161  0.1010  0.5492  1.2534
 8113TIP3   OH245829   1.516   2.352  46.381  0.5956  0.2327 -0.0664
 8113TIP3    H145830   1.487   2.366  46.291 -1.7491 -0.3144  0.5270
 8113TIP3    H245831   1.532   2.258  46.387  2.6419  0.5162 -0.3666
 8114TIP3   OH245832   2.872   0.959  30.935 -0.2523  0.2070 -0.1038
 8114TIP3    H145833   2.927   1.004  30.871  0.5863  0.0457  0.4768
 8114TIP3    H245834   2.927   0.952  31.013 -0.6564 -1.0678  0.0948
 8115TIP3   OH245835   2.071   4.006  39.030  0.7570  0.2627  0.2481
 8115TIP3    H145836   2.045   4.023  38.939 -2.3652  0.1771  1.0067
 8115TIP3    H245837   2.042   3.916  39.046  1.2694  0.2829  1.3188
 8116TIP3   OH245838   2.302   0.532   0.583 -0.2645  0.1668  0.8035
 8116TIP3    H145839   2.326   0.487   0.502  1.0687 -0.7630  1.6823
 8116TIP3    H245840   2.229   0.481   0.618  0.1695 -0.3375  0.9698
 8117TIP3   OH245841   3.264   0.829  10.940 -0.7452 -0.2010 -0.7929
 8117TIP3    H145842   3.226   0.822  11.028  0.3953  0.9448 -0.1697
 8117TIP3    H245843   3.202   0.881  10.890  0.2060  2.2016  0.3891
 8118TIP3   OH245844   2.638   3.692  12.047 -0.4218  0.0903 -0.3877
 8118TIP3    H145845   2.599   3.724  12.128  0.8240 -0.2851  0.3825
 8118TIP3    H245846   2.639   3.597  12.056  1.1651  0.1016 -0.1172
 8119TIP3   OH245847   3.759   0.374   0.440  0.2781 -0.0820 -0.6275
 8119TIP3    H145848   3.762   0.432   0.516 -2.5718  0.9573 -1.1555
 8119TIP3    H245849   3.730   0.290   0.476  1.8691 -0.4669 -0.2021
 8120TIP3   OH245850   2.620   2.459  37.124  0.6517 -0.1211 -0.4721
 8120TIP3    H145851   2.600   2.386  37.066  0.0463 -0.2965 -0.0439
 8120TIP3    H245852   2.636   2.419  37.210  0.2766  0.2470 -0.2252
 8121TIP3   OH245853   2.609   2.259  10.950  0.1894 -0.2656 -0.3807
 8121TIP3    H145854   2.557   2.306  11.016  1.4518  0.2465  0.2843
 8121TIP3    H245855   2.635   2.327  10.887  0.4493 -0.4256 -0.4472
 8122TIP3   OH245856   3.090   2.426  35.088 -0.8019 -0.1697 -0.2827
 8122TIP3    H145857   3.166   2.370  35.077 -1.3990 -0.8525 -1.0377
 8122TIP3    H245858   3.057   2.440  34.999 -2.1274 -0.6832  0.1035
 8123TIP3   OH245859   0.141   2.948  32.417  0.2005  0.6262 -0.6937
 8123TIP3    H145860   0.178   3.008  32.482  0.0530  0.7160 -0.6903
 8123TIP3    H245861   0.108   3.005  32.348  0.2839  0.5339 -0.8091
 8124TIP3   OH245862   3.993   0.007  30.398  0.2975 -0.5630 -0.1034
 8124TIP3    H145863   4.071  -0.002  30.343  0.4342  0.2471 -0.0556
 8124TIP3    H245864   4.005   0.090  30.443 -0.3768 -0.6574  0.2635
 8125TIP3   OH245865   0.261   0.259  29.382  0.5046  0.0247 -0.7538
 8125TIP3    H145866   0.320   0.228  29.313 -0.6043 -1.5862 -1.0264
 8125TIP3    H245867   0.219   0.179  29.416 -2.5039  1.1603 -1.4821
 8126TIP3   OH245868   0.491   3.653  12.004 -0.2469  0.7486 -0.2365
 8126TIP3    H145869   0.399   3.635  12.024  0.1435  0.4140  1.3690
 8126TIP3    H245870   0.536   3.571  12.022  0.3090  0.7359 -1.5739
 8127TIP3   OH245871   3.928   3.400  27.641 -0.1340  0.0833  0.0411
 8127TIP3    H145872   3.969   3.441  27.564  2.5409 -0.3316  1.1443
 8127TIP3    H245873   3.870   3.467  27.676 -0.2005  0.8334 -1.4103
 8128TIP3   OH245874   0.707   0.277  39.949 -0.3183  0.2511 -0.5473
 8128TIP3    H145875   0.713   0.182  39.946  0.3299  0.2955 -0.7289
 8128TIP3    H245876   0.735   0.306  39.863  0.7641  0.6601 -0.0808
 8129TIP3   OH245877   3.793   2.223  33.644  0.0700  0.6465  0.4736
 8129TIP3    H145878   3.886   2.220  33.621  0.1621  1.1693  0.7788
 8129TIP3    H245879   3.762   2.306  33.610 -0.0135  1.0042  1.3907
 8130TIP3   OH245880   3.561   3.724  31.871 -0.5165 -0.8524 -0.2407
 8130TIP3    H145881   3.514   3.782  31.931 -1.7367 -2.1552  0.1000
 8130TIP3    H245882   3.654   3.741  31.889 -0.7282  2.1530 -1.2870
 8131TIP3   OH245883   3.879   3.481  39.789  0.4125 -0.2198 -0.0379
 8131TIP3    H145884   3.895   3.501  39.881 -0.6738  1.8250 -0.2180
 8131TIP3    H245885   3.933   3.543  39.741 -0.9088  0.4562 -0.7123
 8132TIP3   OH245886   3.624   1.049  41.592  0.0834  0.0482 -0.0900
 8132TIP3    H145887   3.676   1.126  41.569  1.5583 -1.0481 -0.5446
 8132TIP3    H245888   3.663   1.017  41.673  0.4591 -1.0793 -0.7018
 8133TIP3   OH245889   2.524   1.099  12.756  0.1956  0.1205  0.2626
 8133TIP3    H145890   2.438   1.129  12.728 -0.7463 -0.7937  2.0160
 8133TIP3    H245891   2.573   1.180  12.773  0.0844  0.6598 -1.7390
 8134TIP3   OH245892   0.756   3.681   7.134  0.2066  0.5389 -0.8698
 8134TIP3    H145893   0.799   3.629   7.202 -1.2099  2.3308  1.5490
 8134TIP3    H245894   0.823   3.745   7.108  0.3408  0.7082 -0.1392
 8135TIP3   OH245895   3.423   2.692  35.470  0.0235 -0.3609  0.4466
 8135TIP3    H145896   3.488   2.630  35.437 -0.2704  0.8142 -2.6889
 8135TIP3    H245897   3.459   2.778  35.448 -1.5775  0.4013  0.7046
 8136TIP3   OH245898   0.675   1.605   1.620  0.2568  0.0116 -0.0430
 8136TIP3    H145899   0.763   1.642   1.610  1.1356 -1.6936  1.0627
 8136TIP3    H245900   0.667   1.542   1.549  0.7741 -1.3211  1.0245
 8137TIP3   OH245901   2.111   0.780  30.964 -0.3209  0.0726 -0.2718
 8137TIP3    H145902   2.093   0.780  31.058  2.5474 -0.9396  0.3780
 8137TIP3    H245903   2.069   0.859  30.931 -1.0823  0.6449  1.9168
 8138TIP3   OH245904   3.447   2.178  44.521 -0.0015  0.9197 -0.1797
 8138TIP3    H145905   3.396   2.112  44.473 -0.7366  2.7002 -1.9764
 8138TIP3    H245906   3.538   2.158  44.499 -0.1189 -0.1701  0.2411
 8139TIP3   OH245907   3.891   2.711   8.372  0.0815  0.9360  0.0076
 8139TIP3    H145908   3.861   2.691   8.460 -0.8571 -1.7000 -0.8024
 8139TIP3    H245909   3.817   2.754   8.330  0.1550  1.2436  0.1918
 8140TIP3   OH245910   2.830   3.133  41.271  0.2920  0.2867 -0.3625
 8140TIP3    H145911   2.908   3.188  41.264 -0.3256  1.3344  0.6275
 8140TIP3    H245912   2.766   3.173  41.211  0.2195 -0.0640 -0.5271
 8141TIP3   OH245913   0.478   1.782   3.706  0.2241  1.0301  0.8599
 8141TIP3    H145914   0.506   1.707   3.654  1.4075  0.6605  1.9784
 8141TIP3    H245915   0.396   1.810   3.666  0.4437 -0.0349 -0.3900
 8142TIP3   OH245916   0.832   3.503  14.966  0.3142  0.2357  0.0042
 8142TIP3    H145917   0.879   3.545  15.038  0.0400  1.8498 -0.7201
 8142TIP3    H245918   0.768   3.568  14.938 -0.2364 -0.7397 -1.0860
 8143TIP3   OH245919   3.227   0.262   1.046 -0.3715  0.1011  0.2392
 8143TIP3    H145920   3.312   0.219   1.059  0.0024  0.8790  0.4859
 8143TIP3    H245921   3.192   0.222   0.966  0.1315 -0.3801  0.2506
 8144TIP3   OH245922   3.053   0.665   8.241 -0.0336  0.6584 -0.4866
 8144TIP3    H145923   3.047   0.671   8.146 -2.6753 -1.8350 -0.6162
 8144TIP3    H245924   3.016   0.748   8.273 -2.0033  0.3166 -1.7057
 8145TIP3   OH245925   0.224   1.355  46.547  0.0346  0.0012 -0.3089
 8145TIP3    H145926   0.229   1.330  46.455  2.0568  0.1393 -0.2630
 8145TIP3    H245927   0.173   1.285  46.589  1.7158 -1.7004 -0.9914
 8146TIP3   OH245928   2.112   1.276  42.632 -0.7345  0.3395 -0.1230
 8146TIP3    H145929   2.129   1.263  42.538 -2.3973 -0.5756 -0.3351
 8146TIP3    H245930   2.086   1.190  42.664 -1.5587  0.9278  0.8579
 8147TIP3   OH245931   1.357   1.712  31.458 -0.0302 -0.6372  0.2230
 8147TIP3    H145932   1.443   1.705  31.500  0.0071 -1.4666  0.0180
 8147TIP3    H245933   1.294   1.706  31.531  0.0863  0.9563  0.4911
 8148TIP3   OH245934   2.330   2.466  12.825  0.1793  0.5973 -0.4707
 8148TIP3    H145935   2.408   2.517  12.802 -0.3828  1.3267 -0.8006
 8148TIP3    H245936   2.350   2.378  12.795  1.2799  0.5447  0.3360
 8149TIP3   OH245937   1.211   0.543  10.203  0.0498  0.2099 -0.8612
 8149TIP3    H145938   1.224   0.527  10.109  1.7855  1.9468 -0.9945
 8149TIP3    H245939   1.273   0.613  10.223  0.0019 -0.4039  1.6851
 8150TIP3   OH245940   0.934   1.056  14.892 -0.5963 -0.0697 -0.4874
 8150TIP3    H145941   0.921   1.068  14.986 -1.2483  0.4111 -0.6325
 8150TIP3    H245942   0.897   0.970  14.874  0.4323 -0.6049 -0.1423
 8151TIP3   OH245943   0.864   1.995   1.334  0.8803 -0.1663  0.0485
 8151TIP3    H145944   0.875   2.069   1.274  0.5163  0.5672  0.8577
 8151TIP3    H245945   0.772   1.997   1.358  1.4552  1.0710  2.4902
 8152TIP3   OH245946   1.278   2.964  33.516  0.1417  0.3015  0.1228
 8152TIP3    H145947   1.260   2.935  33.426 -0.7083 -0.6535  0.5704
 8152TIP3    H245948   1.198   2.943  33.564  0.4330  1.1820  1.0255
 8153TIP3   OH245949   1.510   0.477  42.975 -0.8445  0.1876  0.1070
 8153TIP3    H145950   1.497   0.390  42.936  2.4330 -0.1228 -0.5496
 8153TIP3    H245951   1.493   0.538  42.903  2.6667 -0.2801 -1.3053
 8154TIP3   OH245952   4.067   3.983   9.120  0.1215 -0.6926 -0.1772
 8154TIP3    H145953   4.116   4.015   9.196  1.1566 -0.2545 -1.0015
 8154TIP3    H245954   4.000   4.050   9.106  0.0754 -0.6549  0.2120
 8155TIP3   OH245955   1.823   0.023  37.293 -0.2550  0.3919 -0.0582
 8155TIP3    H145956   1.777   0.041  37.375 -1.0570 -0.5226 -0.2906
 8155TIP3    H245957   1.909  -0.008  37.320  0.5557  2.8083  0.3694
 8156TIP3   OH245958   2.211   1.068  45.207 -0.9140  0.3374  0.5926
 8156TIP3    H145959   2.214   1.104  45.119  1.2150 -0.7038  0.1701
 8156TIP3    H245960   2.213   1.145  45.264 -0.7199  0.9906 -0.2723
 8157TIP3   OH245961   3.704   1.249   8.443 -0.2676 -0.0630  0.0455
 8157TIP3    H145962   3.661   1.314   8.498  1.0996  0.2686  0.7647
 8157TIP3    H245963   3.688   1.278   8.354 -0.1115  0.9916  0.3501
 8158TIP3   OH245964   1.313   2.929   2.546 -0.5982 -0.4335  0.5945
 8158TIP3    H145965   1.289   2.849   2.593 -1.2765 -0.4055  0.3093
 8158TIP3    H245966   1.267   2.999   2.593 -1.8433 -0.4790 -0.4900
 8159TIP3   OH245967   0.156   1.300   2.267 -0.4472  0.3764 -0.4075
 8159TIP3    H145968   0.209   1.357   2.324 -1.3360  0.6073  0.2035
 8159TIP3    H245969   0.148   1.218   2.316  0.6323 -0.2053 -1.1841
 8160TIP3   OH245970   0.583   2.689  44.270 -0.3505 -0.3245  0.0651
 8160TIP3    H145971   0.674   2.660  44.273  0.1590  0.6058 -2.7332
 8160TIP3    H245972   0.588   2.784  44.285 -0.9460 -0.3624  0.5391
 8161TIP3   OH245973   3.163   0.867  43.319  0.3924 -0.2877 -0.8418
 8161TIP3    H145974   3.215   0.935  43.360 -0.8879 -0.4046  1.0821
 8161TIP3    H245975   3.142   0.902  43.232  0.3725  1.4383 -0.1760
 8162TIP3   OH245976   0.132   0.404   0.204 -0.8040  0.2568 -0.6198
 8162TIP3    H145977   0.092   0.319   0.223  0.0481  0.0163  0.1733
 8162TIP3    H245978   0.222   0.384   0.181 -0.9914  0.8347 -1.9677
 8163TIP3   OH245979   0.033   0.573   5.881 -0.1755 -0.3854 -0.2312
 8163TIP3    H145980   0.089   0.498   5.859 -0.1956 -0.6728  0.6393
 8163TIP3    H245981  -0.031   0.537   5.943 -2.1953 -0.3962 -2.1812
 8164TIP3   OH245982   1.857   2.020  18.791 -0.1771  0.0891 -0.2731
 8164TIP3    H145983   1.785   1.957  18.800  0.4138 -0.2575  3.5284
 8164TIP3    H245984   1.931   1.967  18.760  0.0030 -0.9523  1.7660
 8165TIP3   OH245985   0.997   2.388  35.016  0.1936 -0.3546 -0.7700
 8165TIP3    H145986   0.971   2.481  35.015  0.6838 -0.1986 -0.0975
 8165TIP3    H245987   1.037   2.373  34.931  0.1406  0.0578 -0.8718
 8166TIP3   OH245988   0.772   0.706  47.274  0.2727  0.2448  0.6026
 8166TIP3    H145989   0.766   0.744  47.362 -0.2752  2.0093 -0.1521
 8166TIP3    H245990   0.712   0.758  47.222 -1.0069 -2.0811 -0.4120
 8167TIP3   OH245991   0.083   2.035  34.930  0.1008 -0.6867 -0.1515
 8167TIP3    H145992   0.022   2.078  34.869  0.0875 -0.4122  0.0519
 8167TIP3    H245993   0.102   1.951  34.889  3.1488  0.9519 -2.5229
 8168TIP3   OH245994   0.998   2.565   4.699  0.4730  0.3982  0.6309
 8168TIP3    H145995   1.025   2.557   4.790  1.7064 -2.6806  0.1026
 8168TIP3    H245996   0.975   2.476   4.673  1.4291  0.9455 -2.4399
 8169TIP3   OH245997   3.478   2.470  37.633 -0.0658  0.3774  0.1947
 8169TIP3    H145998   3.443   2.440  37.717 -0.3282  2.1678  0.7648
 8169TIP3    H245999   3.431   2.417  37.568 -0.9484 -0.0084  1.1142
 8170TIP3   OH246000   2.723   3.616  14.311 -0.0481 -0.0516 -0.0354
 8170TIP3    H146001   2.674   3.697  14.302  0.1593  0.3300  1.8217
 8170TIP3    H246002   2.732   3.583  14.222 -1.1741  1.3366 -0.7024
 8171TIP3   OH246003   1.491   2.397   6.402  0.8419  0.1550  0.1913
 8171TIP3    H146004   1.474   2.338   6.328  0.8227 -1.3962  1.3801
 8171TIP3    H246005   1.561   2.454   6.371 -1.0795  1.5069 -2.0250
 8172TIP3   OH246006   1.057   2.134  19.724 -0.2300 -0.3066 -0.2286
 8172TIP3    H146007   1.149   2.133  19.749 -0.6396 -2.1119  1.4936
 8172TIP3    H246008   1.019   2.203  19.779 -0.0844 -0.3050 -0.1277
 8173TIP3   OH246009   3.307   2.091  40.909  0.5679  0.1551  0.0082
 8173TIP3    H146010   3.288   2.120  40.819 -1.7821  1.3134  0.7799
 8173TIP3    H246011   3.284   1.998  40.910 -0.5957  0.4273 -0.3136
 8174TIP3   OH246012   2.880   3.560  44.273  0.1242  0.5010 -0.1862
 8174TIP3    H146013   2.834   3.644  44.277  0.9217  0.9427 -0.2385
 8174TIP3    H246014   2.898   3.547  44.180 -0.8177 -0.1857 -0.2851
 8175TIP3   OH246015   0.413   2.385  32.783 -0.0806 -0.2135  0.7505
 8175TIP3    H146016   0.482   2.429  32.834  2.5574 -0.4106 -2.3716
 8175TIP3    H246017   0.449   2.298  32.765 -1.0507 -0.2558 -1.1088
 8176TIP3   OH246018   0.299   0.652   4.405 -0.6873 -0.7258 -0.5650
 8176TIP3    H146019   0.344   0.650   4.490  0.3987  1.6559 -0.9899
 8176TIP3    H246020   0.207   0.636   4.426 -0.6414  1.0165  1.2730
 8177TIP3   OH246021   2.431   3.455  41.902 -0.0737  0.4806 -0.7750
 8177TIP3    H146022   2.447   3.438  41.809  3.1684  0.9095 -0.3850
 8177TIP3    H246023   2.420   3.368  41.941 -0.3214  0.2443 -1.3662
 8178TIP3   OH246024   3.835   3.450  25.982 -0.1170  0.5095 -0.0257
 8178TIP3    H146025   3.803   3.498  25.906  0.2270  1.3425  0.3441
 8178TIP3    H246026   3.930   3.448  25.970  0.1938  2.7271  1.5439
 8179TIP3   OH246027   3.192   2.204  34.685 -0.2704  0.0867 -0.4734
 8179TIP3    H146028   3.181   2.192  34.779 -1.8280  0.4456 -0.5809
 8179TIP3    H246029   3.198   2.115  34.650 -1.6154 -0.1226 -0.2145
 8180TIP3   OH246030   0.881   1.608  45.231  0.3982 -0.0986  0.2209
 8180TIP3    H146031   0.957   1.661  45.256  0.6033  0.3126 -1.1561
 8180TIP3    H246032   0.863   1.554  45.307  0.6424  1.4278  1.4168
 8181TIP3   OH246033   0.890   3.777  44.333  0.1062 -0.5804  0.0788
 8181TIP3    H146034   0.965   3.818  44.377  1.0786 -1.6444 -0.5249
 8181TIP3    H246035   0.815   3.799  44.389  0.8834  0.3465  0.8087
 8182TIP3   OH246036   2.466   1.984  43.200 -0.2629 -0.3615  0.4287
 8182TIP3    H146037   2.372   1.997  43.216 -0.0194  0.1292  1.5738
 8182TIP3    H246038   2.498   1.942  43.279  0.1591 -2.3143 -0.7170
 8183TIP3   OH246039   3.260   2.044  16.716 -0.3067 -0.4880 -0.1576
 8183TIP3    H146040   3.282   2.083  16.800  1.1975  0.1017 -0.7870
 8183TIP3    H246041   3.170   2.012  16.727 -0.9487  1.5213  0.9703
 8184TIP3   OH246042   2.687   1.305  12.762  0.2177 -0.0741 -0.4715
 8184TIP3    H146043   2.725   1.385  12.799  0.3948 -0.3842  0.0211
 8184TIP3    H246044   2.715   1.306  12.671  0.2362  0.4168 -0.4666
 8185TIP3   OH246045   2.699   2.769  32.408 -0.1091  0.1106  0.2823
 8185TIP3    H146046   2.643   2.842  32.381 -1.2734 -0.4825  0.9988
 8185TIP3    H246047   2.779   2.780  32.357 -1.9824 -0.7014 -3.1863
 8186TIP3   OH246048   1.752   4.106  38.096 -0.5296 -0.2922 -0.4557
 8186TIP3    H146049   1.828   4.159  38.074 -0.9781 -0.1867 -1.8459
 8186TIP3    H246050   1.732   4.057  38.016 -1.5476 -0.7801  0.0724
 8187TIP3   OH246051   2.631   1.983  44.681 -0.0748  0.3405 -0.0063
 8187TIP3    H146052   2.717   1.963  44.645 -0.0188  0.2453  0.1785
 8187TIP3    H246053   2.638   1.964  44.774 -0.3427  0.1887 -0.0151
 8188TIP3   OH246054   0.944   1.699  34.974  0.5889  0.0896 -0.1265
 8188TIP3    H146055   0.959   1.652  35.056 -0.9802  0.1711  0.2424
 8188TIP3    H246056   0.985   1.785  34.988  1.2742 -0.2775  0.1494
 8189TIP3   OH246057   0.170   1.851  33.765  0.5494 -0.4282 -0.3694
 8189TIP3    H146058   0.180   1.767  33.719  0.3349 -0.2896 -0.6744
 8189TIP3    H246059   0.222   1.841  33.845  0.6680 -0.7891 -0.4892
 8190TIP3   OH246060   2.654   4.055  27.656 -0.5437  0.7687 -0.1697
 8190TIP3    H146061   2.693   4.112  27.590 -1.7767  0.9127 -0.8106
 8190TIP3    H246062   2.687   4.089  27.739  2.8530 -0.8044 -0.7210
 8191TIP3   OH246063   0.110   2.821   4.660  0.0951  0.0578 -0.0977
 8191TIP3    H146064   0.019   2.824   4.632 -0.3495 -3.4689  0.4241
 8191TIP3    H246065   0.105   2.814   4.756  0.6323 -2.7404 -0.1845
 8192TIP3   OH246066   2.248   3.176  43.189  0.0947  0.0410  0.2036
 8192TIP3    H146067   2.295   3.220  43.118 -0.1778  0.2675  0.1667
 8192TIP3    H246068   2.291   3.207  43.269  0.0481  0.2029  0.1645
 8193TIP3   OH246069   2.719   0.731  39.521  0.4703  0.1285 -0.2077
 8193TIP3    H146070   2.802   0.769  39.551  0.5320 -0.4851  0.4101
 8193TIP3    H246071   2.669   0.806  39.489  1.0556  0.5729 -0.1069
 8194TIP3   OH246072   0.653   2.073  20.231 -0.7032  0.0576 -0.3523
 8194TIP3    H146073   0.642   2.075  20.326 -0.1326 -1.0751 -0.2456
 8194TIP3    H246074   0.581   2.126  20.198  0.1806  2.0770  0.7725
 8195TIP3   OH246075   2.499   2.914  42.386  0.2716  0.0598  0.1759
 8195TIP3    H146076   2.544   2.881  42.308  1.4650 -1.7156  1.5366
 8195TIP3    H246077   2.506   3.009  42.379  2.2214 -0.1073 -0.8397
 8196TIP3   OH246078   1.249   2.283   8.473  0.0090  0.0812  0.0802
 8196TIP3    H146079   1.224   2.194   8.448  0.7163 -0.9642  2.7188
 8196TIP3    H246080   1.326   2.272   8.529 -1.7486  1.9566  3.1745
 8197TIP3   OH246081   0.499   3.356   8.391 -0.0893 -0.5204 -0.2170
 8197TIP3    H146082   0.482   3.295   8.463 -2.0700 -1.8599 -1.7384
 8197TIP3    H246083   0.417   3.361   8.343  0.8581  1.1897 -1.7909
 8198TIP3   OH246084   1.769   3.332  35.983 -0.5233 -0.0335  0.0260
 8198TIP3    H146085   1.691   3.332  36.038 -0.9229  0.8834 -0.5164
 8198TIP3    H246086   1.786   3.424  35.965  0.4533 -0.2430 -0.2017
 8199TIP3   OH246087   0.740   0.986  37.901 -0.5904 -0.1674 -0.0890
 8199TIP3    H146088   0.666   1.045  37.909  0.5425  1.1562  1.1595
 8199TIP3    H246089   0.748   0.968  37.808 -1.5985  0.8101 -0.3689
 8200TIP3   OH246090   4.076   3.000   8.266 -0.5364  0.6297  0.1355
 8200TIP3    H146091   4.122   2.958   8.339  0.0370 -0.6130 -0.8920
 8200TIP3    H246092   4.076   2.934   8.197 -1.0108  1.7877 -1.0192
 8201TIP3   OH246093   1.689   2.482  11.881  0.7986 -0.0811  0.5650
 8201TIP3    H146094   1.662   2.391  11.891  1.8717 -0.8017 -2.3140
 8201TIP3    H246095   1.690   2.498  11.787  1.8052  2.5595  0.9143
 8202TIP3   OH246096   3.416   2.515  33.716 -0.5747 -0.0668 -0.3788
 8202TIP3    H146097   3.349   2.487  33.779  0.9557 -1.3950  0.7494
 8202TIP3    H246098   3.397   2.466  33.636  0.0532 -1.8317  0.5057
 8203TIP3   OH246099   3.790   3.166  47.271 -0.1484 -0.3198  0.6159
 8203TIP3    H146100   3.768   3.073  47.268  0.3388 -0.6293  3.5736
 8203TIP3    H246101   3.706   3.211  47.267 -0.6070 -1.0352  1.7620
 8204TIP3   OH246102   3.591   3.589   7.112  0.2777 -0.1009 -0.0643
 8204TIP3    H146103   3.541   3.667   7.087 -1.4889 -0.9681  0.5674
 8204TIP3    H246104   3.611   3.547   7.028  2.6481  1.7623 -0.5392
 8205TIP3   OH246105   2.973   0.842  40.424  0.1718 -0.3133  0.3666
 8205TIP3    H146106   2.967   0.914  40.487  0.0230  1.1791 -1.2686
 8205TIP3    H246107   2.892   0.793  40.436 -0.4998  0.7738  0.3900
 8206TIP3   OH246108   0.065   3.804   1.533 -0.4250 -0.3461 -0.0690
 8206TIP3    H146109   0.160   3.819   1.534 -0.2640 -1.2023 -0.8667
 8206TIP3    H246110   0.056   3.710   1.545 -1.2463 -0.1218  1.2569
 8207TIP3   OH246111   0.049   3.860  11.479  0.1396 -0.0590  0.0228
 8207TIP3    H146112   0.144   3.860  11.479  0.1669 -1.2393 -1.4120
 8207TIP3    H246113   0.024   3.773  11.447 -1.3707  0.9753 -1.8611
 8208TIP3   OH246114   2.931   2.319  35.261  0.8900  0.2091 -0.0514
 8208TIP3    H146115   3.000   2.253  35.253  0.6758 -0.1231  0.7126
 8208TIP3    H246116   2.960   2.391  35.206  0.2218 -1.2605 -2.4751
 8209TIP3   OH246117   3.946   1.769  20.753 -0.1777 -0.3055 -0.3000
 8209TIP3    H146118   3.956   1.730  20.840 -2.8505  1.3940  0.9043
 8209TIP3    H246119   3.935   1.863  20.770 -0.6618  0.0742 -2.4825
 8210TIP3   OH246120   0.696   3.910  11.138 -0.1901 -0.1783 -0.2926
 8210TIP3    H146121   0.659   3.994  11.111 -0.8555 -0.6288 -0.8286
 8210TIP3    H246122   0.620   3.858  11.165  0.1195 -0.8866 -0.7599
 8211TIP3   OH246123   2.202   0.143   7.581  0.1239  0.3127 -0.0961
 8211TIP3    H146124   2.252   0.148   7.663 -0.4669 -0.0977  0.2963
 8211TIP3    H246125   2.269   0.139   7.513  0.6199  0.8820  0.3522
 8212TIP3   OH246126   0.023   3.791  28.999  0.1380  0.5683 -0.2866
 8212TIP3    H146127   0.059   3.846  28.929 -0.4669  0.7229 -0.4849
 8212TIP3    H246128   0.014   3.705  28.959 -1.1744  0.8891 -0.7444
 8213TIP3   OH246129   2.549   1.257  44.540 -0.0210 -0.0932  0.1673
 8213TIP3    H146130   2.617   1.296  44.485  0.9837 -0.6059  1.0233
 8213TIP3    H246131   2.556   1.303  44.623  1.8266 -2.6229  1.5369
 8214TIP3   OH246132   0.056   2.180  19.395 -0.4778 -0.1541  0.4562
 8214TIP3    H146133  -0.007   2.117  19.429 -2.1147  1.3594  0.3598
 8214TIP3    H246134   0.034   2.262  19.439  2.1662  0.2241  1.2844
 8215TIP3   OH246135   2.485   1.446  46.469  0.0258  0.0340 -0.7516
 8215TIP3    H146136   2.423   1.377  46.449  0.2621 -0.4268  0.0403
 8215TIP3    H246137   2.452   1.486  46.549  0.7015 -0.1736 -0.3593
 8216TIP3   OH246138   2.140   2.025  19.286  0.0440 -0.0589  0.1680
 8216TIP3    H146139   2.085   2.033  19.364 -0.3154  1.1413 -0.1926
 8216TIP3    H246140   2.169   1.934  19.287  0.1328 -0.0359  1.7552
 8217TIP3   OH246141   0.569   1.613  38.842  0.6550  0.4393  0.4579
 8217TIP3    H146142   0.576   1.691  38.896  1.5473  0.9794 -0.4044
 8217TIP3    H246143   0.476   1.610  38.818  0.3272  0.4092  1.6619
 8218TIP3   OH246144   1.659   2.228   1.785  0.5377  0.0800 -0.7193
 8218TIP3    H146145   1.682   2.143   1.823 -0.6864  1.3026  3.2644
 8218TIP3    H246146   1.741   2.260   1.748  1.2973 -2.2664 -1.2763
 8219TIP3   OH246147   2.061   3.197  39.704 -0.0755 -0.0342 -0.0716
 8219TIP3    H146148   2.106   3.241  39.776 -0.8154  1.5142 -0.5067
 8219TIP3    H246149   2.048   3.266  39.638  0.5732 -1.3935 -1.6969
 8220TIP3   OH246150   0.135   0.028  28.524  0.5142 -0.1470  0.2175
 8220TIP3    H146151   0.091   0.103  28.563  0.8151  0.7057 -1.0129
 8220TIP3    H246152   0.065  -0.035  28.507 -0.0343  0.6067 -0.4041
 8221TIP3   OH246153   3.926   0.034   1.013 -0.2204  0.4683  0.0824
 8221TIP3    H146154   3.972  -0.026   0.954  0.0911  3.3492 -2.9132
 8221TIP3    H246155   3.841  -0.007   1.028  0.3848 -1.2381 -0.9055
 8222TIP3   OH246156   0.170   3.116   8.063  0.4467 -0.0243 -0.2258
 8222TIP3    H146157   0.125   3.200   8.049  0.9252  0.2567 -0.1157
 8222TIP3    H246158   0.184   3.112   8.158  0.7083 -0.0749 -0.2648
 8223TIP3   OH246159   2.392   3.465   1.278  0.1566 -0.2991 -0.3090
 8223TIP3    H146160   2.450   3.499   1.210  0.0353  0.9337  0.1876
 8223TIP3    H246161   2.423   3.375   1.293 -1.1378 -1.4214 -3.4480
 8224TIP3   OH246162   1.200   3.116  35.445 -0.0709 -0.0039 -0.3634
 8224TIP3    H146163   1.221   3.077  35.530 -0.5777  0.3977 -0.0417
 8224TIP3    H246164   1.284   3.141  35.408  0.0978  0.6838  0.4496
 8225TIP3   OH246165   2.800   1.937   6.503 -0.0700 -0.0293 -0.3837
 8225TIP3    H146166   2.742   1.862   6.515  0.7858 -0.5843  0.4163
 8225TIP3    H246167   2.806   1.978   6.589  1.0329 -0.2250 -0.3491
 8226TIP3   OH246168   0.997   2.883  33.634 -0.3096 -0.1545  0.2227
 8226TIP3    H146169   0.943   2.897  33.557 -0.1474 -1.3194 -0.1203
 8226TIP3    H246170   0.936   2.850  33.701 -0.0019 -1.7903 -0.2655
 8227TIP3   OH246171   1.342   0.480  30.724 -0.9166 -0.1242 -0.3310
 8227TIP3    H146172   1.322   0.566  30.759 -0.6568 -0.0706 -0.3161
 8227TIP3    H246173   1.367   0.428  30.800 -0.2433  0.0234 -0.4445
 8228TIP3   OH246174   0.621   0.808  44.266  0.4979 -0.6520  0.1087
 8228TIP3    H146175   0.547   0.776  44.317  0.2734  2.3720  1.9279
 8228TIP3    H246176   0.583   0.841  44.184 -0.1982  0.7428  0.9700
 8229TIP3   OH246177   3.493   1.922  12.953  0.3641 -0.6997 -0.2671
 8229TIP3    H146178   3.477   2.006  12.909  0.7342 -1.0759 -1.1501
 8229TIP3    H246179   3.489   1.857  12.882 -0.1721 -1.4659  0.4398
 8230TIP3   OH246180   0.338   0.166   1.309 -0.0860  0.2897 -0.5279
 8230TIP3    H146181   0.426   0.173   1.346  0.5838  2.3354 -2.3131
 8230TIP3    H246182   0.280   0.196   1.379  0.7209  0.0211  0.2724
 8231TIP3   OH246183   3.205   1.499   8.906  0.3917  0.0381 -0.5866
 8231TIP3    H146184   3.118   1.537   8.896  0.0712 -0.7894 -0.9507
 8231TIP3    H246185   3.241   1.543   8.984 -0.4182  0.2369 -0.3154
 8232TIP3   OH246186   3.948   1.064  38.991  0.0653  0.2714  0.1642
 8232TIP3    H146187   3.855   1.084  38.976  0.5592  1.0807 -2.1710
 8232TIP3    H246188   3.992   1.094  38.913  2.2705 -0.6130  0.9859
 8233TIP3   OH246189   3.786   1.348  36.577  0.5618 -0.1719 -0.4779
 8233TIP3    H146190   3.829   1.305  36.503  0.4890 -0.7345 -0.1940
 8233TIP3    H246191   3.785   1.441  36.553  0.6000 -0.3425 -1.1553
 8234TIP3   OH246192   3.630   1.811  31.724  0.2527  0.1759  0.0632
 8234TIP3    H146193   3.576   1.850  31.792  0.6766  1.3384 -0.2348
 8234TIP3    H246194   3.585   1.730  31.700 -0.3411  0.1797  1.1272
 8235TIP3   OH246195   2.426   2.522  45.006 -0.3450 -0.3955 -0.1924
 8235TIP3    H146196   2.423   2.616  44.991 -2.1450 -0.4642 -0.5066
 8235TIP3    H246197   2.499   2.491  44.952 -0.5207  0.6572 -1.0589
 8236TIP3   OH246198   3.490   0.479  41.499  0.0807 -0.5196  0.2857
 8236TIP3    H146199   3.413   0.534  41.483 -1.5039 -2.3730  1.1334
 8236TIP3    H246200   3.528   0.465  41.412  0.1689  1.3097 -0.0277
 8237TIP3   OH246201   3.715   0.814  36.156 -0.0733  0.1137  0.4176
 8237TIP3    H146202   3.699   0.904  36.127  1.6851  0.2056 -0.4210
 8237TIP3    H246203   3.633   0.768  36.139 -0.4935  1.2006 -0.6497
 8238TIP3   OH246204   1.008   3.418  31.309  0.7332  0.1935 -0.3587
 8238TIP3    H146205   1.013   3.421  31.214 -0.7856  0.2285 -0.4519
 8238TIP3    H246206   0.978   3.329  31.329 -0.0223  0.5242  0.0195
 8239TIP3   OH246207   3.508   1.877  11.247  0.2640 -0.1336 -0.4625
 8239TIP3    H146208   3.530   1.790  11.279 -0.1320  0.1678  0.6466
 8239TIP3    H246209   3.426   1.865  11.200  0.4960 -0.4484 -0.8011
 8240TIP3   OH246210   1.770   2.549  19.297  0.1046  0.9920 -0.1704
 8240TIP3    H146211   1.799   2.524  19.209  0.9048  2.2341 -0.2907
 8240TIP3    H246212   1.851   2.564  19.346 -0.3176  1.8141  0.3103
 8241TIP3   OH246213   2.213   0.680  12.391  0.3827  0.1249 -0.0361
 8241TIP3    H146214   2.222   0.625  12.470  0.0962  1.5594  1.0360
 8241TIP3    H246215   2.167   0.625  12.329 -1.6126 -0.2545  1.6709
 8242TIP3   OH246216   4.086   2.700  40.065  0.5687  0.2076  0.2353
 8242TIP3    H146217   4.111   2.673  40.153 -1.1171  0.5000  0.8390
 8242TIP3    H246218   4.007   2.650  40.045  1.5676 -0.7232 -1.6076
 8243TIP3   OH246219   4.057   0.246   5.340  0.4595  0.3270 -0.3730
 8243TIP3    H146220   3.987   0.189   5.373  1.6298 -1.2657 -0.4990
 8243TIP3    H246221   4.126   0.238   5.405  0.7806  1.3615 -0.5752
 8244TIP3   OH246222   0.747   2.178  36.860 -0.0930 -0.5883  0.1374
 8244TIP3    H146223   0.769   2.210  36.948 -1.9692  0.3021  0.3383
 8244TIP3    H246224   0.774   2.249  36.801 -1.1011 -0.0981  0.2500
 8245TIP3   OH246225   1.370   3.579  33.181 -0.0206  0.0473 -0.1792
 8245TIP3    H146226   1.279   3.559  33.160 -0.0515 -1.8369  1.4114
 8245TIP3    H246227   1.372   3.673  33.196 -1.6006  0.1771 -0.6938
 8246TIP3   OH246228   2.536   2.860  43.047 -0.1352 -0.1743 -0.2856
 8246TIP3    H146229   2.573   2.853  43.135 -1.7343  2.7190  0.7646
 8246TIP3    H246230   2.565   2.945  43.016  0.6603 -1.2686 -2.7757
 8247TIP3   OH246231   3.702   1.721  44.922  0.4347 -0.2146 -0.5696
 8247TIP3    H146232   3.752   1.644  44.950  0.5518 -0.1602 -0.6238
 8247TIP3    H246233   3.750   1.795  44.959 -0.5728 -0.2392  0.8512
 8248TIP3   OH246234   0.157   2.203   3.800  0.2295  0.3457  0.2965
 8248TIP3    H146235   0.212   2.281   3.789  0.9604  0.1026  1.8624
 8248TIP3    H246236   0.157   2.188   3.895  0.3400 -1.7145  0.0143
 8249TIP3   OH246237   0.661   2.428  17.487 -0.6743 -0.0709 -0.3510
 8249TIP3    H146238   0.676   2.343  17.529  0.7813  0.2161 -0.2404
 8249TIP3    H246239   0.747   2.469  17.485 -1.4580  1.6745  0.1544
 8250TIP3   OH246240   2.807   0.216   6.519 -0.0904 -0.0999 -0.3522
 8250TIP3    H146241   2.751   0.277   6.567  0.0574 -0.1635 -0.0935
 8250TIP3    H246242   2.888   0.264   6.504  0.1181 -0.3099  0.0670
 8251TIP3   OH246243   1.803   0.191   2.068  0.1174 -0.6718  0.2758
 8251TIP3    H146244   1.872   0.148   2.118  0.2675 -1.5041 -0.6156
 8251TIP3    H246245   1.723   0.144   2.093 -0.1812  0.4220  1.4609
 8252TIP3   OH246246   0.907   2.463  41.291 -0.8947 -0.0600  0.7134
 8252TIP3    H146247   0.821   2.455  41.249  0.1163 -3.8018 -1.0476
 8252TIP3    H246248   0.961   2.510  41.227 -1.0798  0.3721  0.8727
 8253TIP3   OH246249   3.387   3.737  33.217 -0.0361  0.3160  0.1459
 8253TIP3    H146250   3.337   3.656  33.213  0.8078 -0.2294  0.3363
 8253TIP3    H246251   3.407   3.758  33.126  0.0795  0.0978  0.1205
 8254TIP3   OH246252   1.917   0.629  32.996  0.9943 -0.2310  0.1907
 8254TIP3    H146253   1.901   0.561  33.062 -0.0812  0.1633  0.3519
 8254TIP3    H246254   1.830   0.660  32.972  1.3531 -0.4752 -1.5414
 8255TIP3   OH246255   0.800   1.925   9.609 -0.2075  0.3990 -0.0449
 8255TIP3    H146256   0.724   1.944   9.664 -0.2376 -1.4792  0.6506
 8255TIP3    H246257   0.857   1.872   9.665  0.2077 -0.7720 -1.5097
 8256TIP3   OH246258   3.158   0.570   8.677  0.7523 -0.0084 -0.0139
 8256TIP3    H146259   3.084   0.626   8.699  1.6737  1.4849 -0.5928
 8256TIP3    H246260   3.129   0.521   8.600  0.5150  0.8540 -0.4762
 8257TIP3   OH246261   1.033   2.768  32.685 -0.5216 -0.2920 -0.2372
 8257TIP3    H146262   0.974   2.827  32.732 -1.4135 -1.0530 -0.3781
 8257TIP3    H246263   1.096   2.739  32.752  0.1535  1.0784 -0.2514
 8258TIP3   OH246264   2.163   2.598   4.538 -0.0718 -0.5091 -0.1685
 8258TIP3    H146265   2.203   2.528   4.488  0.4408  0.3336 -0.9612
 8258TIP3    H246266   2.228   2.668   4.538 -1.1365  0.5139 -0.6407
 8259TIP3   OH246267   2.642   2.617  18.591 -0.1449 -0.2892  0.1093
 8259TIP3    H146268   2.592   2.576  18.662 -0.2859  1.4612  1.0702
 8259TIP3    H246269   2.576   2.662  18.539 -0.2374 -2.7062 -2.0519
 8260TIP3   OH246270   3.617   3.715  46.089 -0.3523  0.4007  0.0474
 8260TIP3    H146271   3.648   3.802  46.066 -2.1573  1.3943  1.1913
 8260TIP3    H246272   3.670   3.689  46.164  0.7419  0.1162 -0.7836
 8261TIP3   OH246273   0.481   1.973  31.903 -0.0499  0.2247  0.3176
 8261TIP3    H146274   0.515   1.902  31.849  1.3884  1.7482 -0.9035
 8261TIP3    H246275   0.460   1.932  31.987  1.7820 -1.4413  0.0250
 8262TIP3   OH246276   0.251   2.349   4.030  0.2717  0.1753  0.3650
 8262TIP3    H146277   0.324   2.288   4.036  1.2827  1.1080 -1.5896
 8262TIP3    H246278   0.203   2.337   4.112  2.5120 -0.5859  1.6618
 8263TIP3   OH246279   0.132   2.006  16.164 -0.5775  0.5047  0.1931
 8263TIP3    H146280   0.053   2.055  16.186 -1.4888  0.0342 -1.7923
 8263TIP3    H246281   0.192   2.072  16.131 -1.0478  0.5710 -0.5522
 8264TIP3   OH246282   0.129   1.819  40.885  0.3496  0.2037  0.0757
 8264TIP3    H146283   0.069   1.745  40.898  0.2461  0.1850 -0.4801
 8264TIP3    H246284   0.115   1.845  40.794 -0.3685  1.5775  0.5487
 8265TIP3   OH246285   0.840   2.709   6.570  0.3496 -0.4989 -0.5264
 8265TIP3    H146286   0.924   2.677   6.604  0.1432  0.1382  0.6532
 8265TIP3    H246287   0.863   2.788   6.522  0.4340 -0.3239 -0.2040
 8266TIP3   OH246288   0.991   1.650  18.915  0.4546  0.1503  0.2737
 8266TIP3    H146289   1.055   1.685  18.854 -0.0580  0.4835 -0.0848
 8266TIP3    H246290   1.043   1.616  18.988  0.9681  1.8246  0.7264
 8267TIP3   OH246291   0.704   2.538   0.643 -0.2671  0.0448 -0.0130
 8267TIP3    H146292   0.769   2.608   0.655 -0.9761  0.8392 -0.7006
 8267TIP3    H246293   0.756   2.458   0.636  0.4722  0.1455  3.0939
 8268TIP3   OH246294   0.082   2.494  11.703  0.0698  0.2982 -0.4089
 8268TIP3    H146295   0.089   2.399  11.694  0.6125  0.3610 -0.6599
 8268TIP3    H246296  -0.012   2.510  11.718 -0.1385 -0.2092 -1.1220
 8269TIP3   OH246297   3.656   2.880  40.423 -0.2887  0.0659 -0.4958
 8269TIP3    H146298   3.715   2.892  40.497 -1.0695 -1.0353  0.3513
 8269TIP3    H246299   3.581   2.832  40.460 -0.6680 -0.5833 -2.0133
 8270TIP3   OH246300   1.818   3.684  43.706 -0.2598 -0.2471 -0.4301
 8270TIP3    H146301   1.807   3.691  43.611  2.6291 -2.6102 -1.1018
 8270TIP3    H246302   1.891   3.743  43.727  2.6096 -3.3869 -0.7344
 8271TIP3   OH246303   3.392   1.262   9.349 -0.3373  0.3060  0.0577
 8271TIP3    H146304   3.357   1.194   9.407 -1.0800  2.6403  2.5681
 8271TIP3    H246305   3.404   1.218   9.265  1.3361 -3.5127  2.0093
 8272TIP3   OH246306   2.920   0.919  37.890  0.3488  0.8334  0.3179
 8272TIP3    H146307   2.871   0.869  37.955 -0.8790  2.6534  0.8447
 8272TIP3    H246308   2.866   0.915  37.811  0.1654  1.4362  0.4073
 8273TIP3   OH246309   3.578   0.419   7.185  0.4684  0.1565  0.0327
 8273TIP3    H146310   3.496   0.466   7.197  0.7601  0.3868  1.2392
 8273TIP3    H246311   3.639   0.461   7.246  1.9240  1.0095 -1.9161
 8274TIP3   OH246312   3.661   1.255  32.604  0.2425  0.1156 -1.2168
 8274TIP3    H146313   3.736   1.311  32.581  0.3844  1.6399  2.3594
 8274TIP3    H246314   3.588   1.316  32.616  0.2081 -0.4033  2.0242
 8275TIP3   OH246315   0.818   3.593  43.782  0.1454 -0.0025 -0.7812
 8275TIP3    H146316   0.738   3.643  43.766  0.5111  0.7474 -0.3596
 8275TIP3    H246317   0.888   3.658  43.773  0.5294 -0.0654  1.3518
 8276TIP3   OH246318   0.554   0.432  43.148  0.0139 -0.1679 -0.4398
 8276TIP3    H146319   0.613   0.384  43.089  0.0309  0.9051 -1.3375
 8276TIP3    H246320   0.505   0.363  43.194  1.1342 -1.0577 -0.5239
 8277TIP3   OH246321   1.837   3.387  15.625  1.0268  0.4260 -0.2227
 8277TIP3    H146322   1.809   3.296  15.618  0.9948  0.2862  1.4237
 8277TIP3    H246323   1.849   3.415  15.534 -2.4946 -0.0904 -1.0188
 8278TIP3   OH246324   0.884   4.061  36.983  0.1640  0.3145 -0.2113
 8278TIP3    H146325   0.926   3.982  36.951  1.2166  0.5520  0.5347
 8278TIP3    H246326   0.884   4.052  37.078  0.1442  1.1288 -0.1236
 8279TIP3   OH246327   1.199   3.683  15.630  0.1582 -0.0557 -0.2902
 8279TIP3    H146328   1.258   3.735  15.684  1.8006 -2.1522  0.0768
 8279TIP3    H246329   1.256   3.641  15.565 -0.9668 -1.7833 -0.2354
 8280TIP3   OH246330   3.584   0.648  15.646 -0.1470  0.2684 -0.5498
 8280TIP3    H146331   3.526   0.665  15.720 -1.2896  0.1368 -1.3651
 8280TIP3    H246332   3.547   0.569  15.606  1.0818 -0.2764 -0.6507
 8281TIP3   OH246333   3.515   2.148  31.696  0.2275  0.7361 -0.1226
 8281TIP3    H146334   3.592   2.127  31.643 -0.6316 -1.8102 -0.4823
 8281TIP3    H246335   3.548   2.147  31.787  0.6192 -0.5054 -0.2565
 8282TIP3   OH246336   1.509   1.065  40.065  0.2956 -0.2323  0.1502
 8282TIP3    H146337   1.506   1.157  40.093 -0.8388 -0.2686  0.1993
 8282TIP3    H246338   1.472   1.067  39.976  3.1200 -0.2225 -1.1326
 8283TIP3   OH246339   1.508   2.820   0.532 -0.2531  0.6740  0.4901
 8283TIP3    H146340   1.595   2.784   0.547 -1.0746 -1.6783  0.0989
 8283TIP3    H246341   1.456   2.789   0.607 -1.4579 -0.7149 -0.8370
 8284TIP3   OH246342   3.004   3.255  10.272  0.4116 -0.4744 -0.1162
 8284TIP3    H146343   2.922   3.244  10.223  1.7055 -0.1177 -2.5431
 8284TIP3    H246344   3.057   3.180  10.246  1.7211  0.5516 -0.5118
 8285TIP3   OH246345   1.438   1.766   8.161  0.2075  0.0432 -0.2896
 8285TIP3    H146346   1.504   1.794   8.225 -1.1951 -2.3115  2.4676
 8285TIP3    H246347   1.462   1.676   8.139 -2.5392 -1.3609  1.7689
 8286TIP3   OH246348   2.520   1.491  36.547  0.2447  0.1526 -0.1892
 8286TIP3    H146349   2.439   1.461  36.588 -0.7180  1.8596 -0.7512
 8286TIP3    H246350   2.533   1.579  36.581  2.6400 -0.5642  0.9283
 8287TIP3   OH246351   3.872   3.759  32.915  0.5502 -0.0478  0.0648
 8287TIP3    H146352   3.778   3.750  32.932  0.6587 -0.7465  0.3184
 8287TIP3    H246353   3.879   3.837  32.860 -0.0185  0.9865  1.3884
 8288TIP3   OH246354   1.889   2.313  10.759  0.6377 -0.2851  0.1762
 8288TIP3    H146355   1.851   2.398  10.738 -1.0897 -0.6177  1.6579
 8288TIP3    H246356   1.971   2.310  10.710  0.8945  2.3427  0.3047
 8289TIP3   OH246357   0.892   2.203  39.373 -0.1225  0.4997 -0.3238
 8289TIP3    H146358   0.801   2.183  39.393  0.5463 -0.9837  1.5830
 8289TIP3    H246359   0.939   2.121  39.392  1.7701  1.6142  0.0977
 8290TIP3   OH246360   0.932   0.973  42.931 -0.0798  0.0485  0.3729
 8290TIP3    H146361   1.000   1.034  42.902 -1.2956  0.4149 -1.9010
 8290TIP3    H246362   0.980   0.897  42.965  1.4391  1.1255  0.7120
 8291TIP3   OH246363   0.584   4.003  35.113 -0.2254  0.9865  0.4237
 8291TIP3    H146364   0.670   4.008  35.154 -0.0852 -1.0503  0.4862
 8291TIP3    H246365   0.567   4.092  35.081  1.1473  1.8209  1.8696
 8292TIP3   OH246366   0.643   0.333  33.082  0.4693 -0.0945 -1.0532
 8292TIP3    H146367   0.683   0.393  33.018  0.1520 -1.0229 -2.1454
 8292TIP3    H246368   0.573   0.385  33.122  1.1088  0.7176 -0.9434
 8293TIP3   OH246369   3.324   1.576  39.279 -0.7781  0.2814 -0.8648
 8293TIP3    H146370   3.272   1.496  39.286  0.1036 -0.1900  0.7495
 8293TIP3    H246371   3.409   1.553  39.316 -0.0928  1.6245 -1.5141
 8294TIP3   OH246372   2.070   0.859  31.242 -0.2426  0.2231 -0.1718
 8294TIP3    H146373   2.049   0.924  31.310 -2.9241 -1.5082  0.8272
 8294TIP3    H246374   2.078   0.776  31.289  0.6446 -0.5987 -1.6864
 8295TIP3   OH246375   2.989   3.117   6.759  0.5146 -0.1247  0.0641
 8295TIP3    H146376   2.952   3.089   6.675  0.6146 -1.7846  0.5204
 8295TIP3    H246377   3.076   3.077   6.762  1.6436  2.1849 -0.1847
 8296TIP3   OH246378   1.504   3.097  35.735 -0.4680 -0.4922  0.0592
 8296TIP3    H146379   1.423   3.065  35.776 -1.0956  0.3701 -0.4527
 8296TIP3    H246380   1.555   3.019  35.718 -2.0175 -1.2824 -1.3088
 8297TIP3   OH246381   2.057   2.729   5.489 -0.6012  0.2992  0.0180
 8297TIP3    H146382   2.099   2.813   5.509 -1.3690  0.3877  1.3726
 8297TIP3    H246383   1.963   2.748   5.492 -0.8400 -0.9526  2.1305
 8298TIP3   OH246384   1.528   1.310  40.775  0.3818  0.1489 -0.1263
 8298TIP3    H146385   1.510   1.370  40.702  0.1864 -0.3372 -0.4813
 8298TIP3    H246386   1.610   1.268  40.751 -0.9978 -2.0237 -1.4400
 8299TIP3   OH246387   0.159   2.820  10.919  0.5420  0.1348 -0.2071
 8299TIP3    H146388   0.201   2.734  10.911  0.2799 -0.0640  0.5437
 8299TIP3    H246389   0.103   2.826  10.842  0.7295 -0.2747 -0.3787
 8300TIP3   OH246390   3.805   3.197  10.102  0.0330  0.5049 -0.0008
 8300TIP3    H146391   3.730   3.253  10.119  0.2027  0.0360  2.6509
 8300TIP3    H246392   3.808   3.189  10.007 -1.9155  2.3370 -0.2771
 8301TIP3   OH246393   0.677   0.388  42.723 -0.3399 -0.2989  0.3852
 8301TIP3    H146394   0.736   0.463  42.715  0.3240 -0.6554  1.6245
 8301TIP3    H246395   0.680   0.365  42.816  0.1948 -2.4324 -0.1104
 8302TIP3   OH246396   3.746   1.167  45.478 -0.6857  0.4103 -0.1967
 8302TIP3    H146397   3.657   1.185  45.506 -1.0186 -0.9673 -0.3019
 8302TIP3    H246398   3.795   1.154  45.559 -0.5215  1.3170 -0.1328
 8303TIP3   OH246399   3.689   0.159   0.603 -0.3357  0.0310  0.4604
 8303TIP3    H146400   3.680   0.143   0.697 -0.9975 -0.0469  0.3839
 8303TIP3    H246401   3.614   0.115   0.563  0.6059 -1.0011 -0.2217
 8304TIP3   OH246402   2.214   3.930  38.097 -0.4125  0.3978  0.2316
 8304TIP3    H146403   2.262   4.008  38.125  0.2921  0.7892 -1.8873
 8304TIP3    H246404   2.187   3.888  38.179  1.6028  1.3775  1.4783
 8305TIP3   OH246405   2.638   3.414  35.712 -0.6726  0.2906 -0.1326
 8305TIP3    H146406   2.676   3.409  35.800 -0.2756  0.6419 -0.2775
 8305TIP3    H246407   2.674   3.339  35.666  2.9976  2.5715 -1.4621
 8306TIP3   OH246408   3.407   0.342  13.790  0.1987 -0.1543  0.5729
 8306TIP3    H146409   3.372   0.394  13.862 -1.8233  1.2492 -1.3231
 8306TIP3    H246410   3.337   0.340  13.725  2.5592  0.2714 -2.1871
 8307TIP3   OH246411   2.468   1.777   1.829  0.4278 -0.0121  0.1034
 8307TIP3    H146412   2.391   1.772   1.885 -0.7975  1.3325 -1.3483
 8307TIP3    H246413   2.437   1.749   1.743  0.6164  3.5867 -1.3081
 8308TIP3   OH246414   2.515   0.470  46.338  0.3244 -0.3477  0.0566
 8308TIP3    H146415   2.447   0.432  46.282  0.7320  1.1424 -1.5263
 8308TIP3    H246416   2.583   0.499  46.277  1.4391  0.0879  1.4556
 8309TIP3   OH246417   2.480   2.538  41.302 -0.4038  0.2229 -0.1242
 8309TIP3    H146418   2.575   2.525  41.295 -0.4944 -0.3051 -0.4139
 8309TIP3    H246419   2.455   2.493  41.382 -0.2358  1.4119  0.6294
 8310TIP3   OH246420   0.558   2.765   7.945 -0.3959  0.5102 -0.2056
 8310TIP3    H146421   0.508   2.844   7.923  0.3694  1.1860  0.3953
 8310TIP3    H246422   0.630   2.764   7.881 -0.2104  0.4935  0.0023
 8311TIP3   OH246423   1.129   2.420  38.293 -0.2280 -0.3676  0.0428
 8311TIP3    H146424   1.115   2.464  38.377  0.3320 -0.1605  0.0316
 8311TIP3    H246425   1.046   2.376  38.275 -1.4711  2.2207 -0.8828
 8312TIP3   OH246426   0.811   1.049  40.941 -0.2197  0.0189  0.1647
 8312TIP3    H146427   0.803   1.020  41.032  2.4393 -0.6691  0.2593
 8312TIP3    H246428   0.838   0.970  40.894  0.0840  0.7537 -0.9063
 8313TIP3   OH246429   2.430   3.504   8.804 -0.1666  0.4115 -0.1653
 8313TIP3    H146430   2.415   3.593   8.771  2.1958  0.9689  0.1209
 8313TIP3    H246431   2.396   3.507   8.893 -3.4703 -0.1263 -1.2562
 8314TIP3   OH246432   2.188   0.562  35.055 -0.3668 -0.2007 -0.3343
 8314TIP3    H146433   2.192   0.650  35.019 -1.4115  0.0778  0.1988
 8314TIP3    H246434   2.095   0.548  35.076  0.1268 -0.4600  1.9591
 8315TIP3   OH246435   2.092   3.618  11.786 -0.4635 -0.4427 -0.4145
 8315TIP3    H146436   2.105   3.539  11.839 -1.4598 -0.1460  0.3027
 8315TIP3    H246437   2.143   3.685  11.832  0.3201 -0.6375 -0.9807
 8316TIP3   OH246438   0.276   4.037  43.698  0.2476  0.1866  0.0404
 8316TIP3    H146439   0.219   4.040  43.774 -3.0065  1.6689 -2.2449
 8316TIP3    H246440   0.315   4.125  43.694 -0.6354  0.5665 -0.6592
 8317TIP3   OH246441   1.803   4.086   6.509  0.0629 -0.0953 -0.3597
 8317TIP3    H146442   1.752   4.165   6.527 -1.1801 -1.1628  1.0079
 8317TIP3    H246443   1.871   4.115   6.448 -0.1305  2.0985  0.3778
 8318TIP3   OH246444   3.232   2.419  39.364 -0.0465 -0.2494  0.2254
 8318TIP3    H146445   3.185   2.500  39.379  1.0386  0.5579 -0.5299
 8318TIP3    H246446   3.269   2.396  39.449 -0.7410 -0.2144  0.5427
 8319TIP3   OH246447   2.380   3.313  42.986  0.2232 -0.0545 -0.1504
 8319TIP3    H146448   2.336   3.395  42.963  2.1895  0.9118 -0.7309
 8319TIP3    H246449   2.405   3.275  42.902  0.0513 -0.8448  0.1476
 8320TIP3   OH246450   2.906   1.216   2.532 -0.5976 -0.2337  0.3755
 8320TIP3    H146451   2.816   1.232   2.560 -0.1219  1.5847  0.9948
 8320TIP3    H246452   2.918   1.271   2.455 -0.1469 -0.8436 -0.0064
 8321TIP3   OH246453   1.271   1.988   6.551  0.8311  0.0451  0.3676
 8321TIP3    H146454   1.199   2.029   6.502 -1.5616 -2.0398  1.9208
 8321TIP3    H246455   1.312   1.930   6.488  0.9754  1.0072 -0.4582
 8322TIP3   OH246456   3.002   0.584  16.019 -0.1794  0.7100  0.3003
 8322TIP3    H146457   2.982   0.673  15.988 -0.3858  0.4349 -0.3702
 8322TIP3    H246458   3.037   0.597  16.107  1.0902  1.5733 -0.3004
 8323TIP3   OH246459   1.372   2.135  44.803  0.5649  0.0461  0.1380
 8323TIP3    H146460   1.355   2.159  44.712 -0.4973 -1.0088  0.0303
 8323TIP3    H246461   1.430   2.059  44.797 -0.2533 -0.6089  0.2878
 8324TIP3   OH246462   3.536   3.346   2.014 -0.3428 -0.3365  0.4656
 8324TIP3    H146463   3.456   3.398   2.009  0.2051  0.5122  0.1741
 8324TIP3    H246464   3.540   3.301   1.929 -0.9996 -1.1495  0.8536
 8325TIP3   OH246465   1.040   3.084  13.638 -0.0990 -0.1774  0.5107
 8325TIP3    H146466   1.040   2.989  13.651  1.3000 -0.2803 -0.0185
 8325TIP3    H246467   0.991   3.097  13.557 -1.0594 -0.3534  1.0474
 8326TIP3   OH246468   0.855   1.453  35.618 -0.3421  0.1864  0.4101
 8326TIP3    H146469   0.900   1.442  35.702 -0.0799 -0.5033  0.1879
 8326TIP3    H246470   0.815   1.368  35.601 -1.1003  0.5659  0.2296
 8327TIP3   OH246471   2.043   1.594  40.448  0.4622  0.2851 -0.4704
 8327TIP3    H146472   2.096   1.646  40.508 -1.6743 -0.2838  2.0720
 8327TIP3    H246473   2.025   1.513  40.496  0.2525 -1.0743 -2.6779
 8328TIP3   OH246474   2.737   1.666   7.188  0.1376 -0.0802 -0.3371
 8328TIP3    H146475   2.672   1.610   7.230  0.2729 -0.0133 -0.0368
 8328TIP3    H246476   2.686   1.726   7.133 -0.2351  1.3738  1.4927
 8329TIP3   OH246477   3.340   0.778   0.901  0.2691  0.4864  0.0457
 8329TIP3    H146478   3.281   0.766   0.826  1.6408 -0.1148 -0.9789
 8329TIP3    H246479   3.314   0.862   0.938 -0.2202  0.9775 -1.3235
 8330TIP3   OH246480   0.154   2.188  40.530 -0.2560 -0.2309 -0.7092
 8330TIP3    H146481   0.148   2.283  40.518 -1.9099 -0.3111 -0.7848
 8330TIP3    H246482   0.073   2.154  40.493 -0.0328 -1.6100 -0.0147
 8331TIP3   OH246483   0.876   0.909   1.324  0.7830  0.1941  0.4711
 8331TIP3    H146484   0.865   0.823   1.283 -0.1159  1.3291 -1.8791
 8331TIP3    H246485   0.968   0.931   1.309  0.6955  0.1855 -0.0867
 8332TIP3   OH246486   1.144   2.234  46.604  0.3914 -0.4620 -0.1822
 8332TIP3    H146487   1.072   2.172  46.594  1.1532 -1.1899 -1.3497
 8332TIP3    H246488   1.137   2.291  46.528 -0.2825  0.9030  0.8733
 8333TIP3   OH246489   2.308   2.098  40.609 -0.2485 -0.3358 -0.0325
 8333TIP3    H146490   2.300   2.040  40.533 -1.4567 -0.6294  0.3026
 8333TIP3    H246491   2.231   2.155  40.604 -0.1685 -0.1476  0.8003
 8334TIP3   OH246492   0.280   1.047   5.381 -0.0486  0.1817 -0.3897
 8334TIP3    H146493   0.224   1.022   5.306 -1.0570  0.8820  0.0984
 8334TIP3    H246494   0.368   1.021   5.355 -0.6893 -1.6853 -0.8752
 8335TIP3   OH246495   0.411   2.996   5.895 -0.1240 -0.0547  0.4039
 8335TIP3    H146496   0.490   3.045   5.915 -1.0674  2.0379 -0.7457
 8335TIP3    H246497   0.340   3.058   5.907 -1.2784 -0.6530 -2.4709
 8336TIP3   OH246498   3.693   3.077  15.799 -0.5731  0.2455 -0.0476
 8336TIP3    H146499   3.621   3.140  15.787 -0.0158  0.4219 -3.7720
 8336TIP3    H246500   3.772   3.128  15.781 -0.0411 -1.1492 -2.0321
 8337TIP3   OH246501   2.053   0.210  39.441  0.1235  0.0402  0.1857
 8337TIP3    H146502   2.114   0.279  39.469 -0.7768  1.1280 -0.4495
 8337TIP3    H246503   2.079   0.190  39.351 -0.4240  0.4834 -0.0766
 8338TIP3   OH246504   1.223   0.812  40.249 -0.4619 -0.6387  0.3906
 8338TIP3    H146505   1.228   0.893  40.300  0.4107 -1.2759  1.3744
 8338TIP3    H246506   1.263   0.835  40.165 -0.0069 -0.0993  0.7394
 8339TIP3   OH246507   2.754   4.001   2.525  0.4169  0.1264 -0.0574
 8339TIP3    H146508   2.818   4.056   2.569 -0.6452 -0.5630  2.5622
 8339TIP3    H246509   2.690   4.062   2.488  0.7143  0.7231  0.4046
 8340TIP3   OH246510   0.604   3.794   2.159  0.1848 -0.1688  0.8722
 8340TIP3    H146511   0.665   3.723   2.177  0.2964  0.2293  2.2591
 8340TIP3    H246512   0.523   3.767   2.202 -0.3316 -0.2652 -0.1472
 8341TIP3   OH246513   0.093   0.111  13.423  0.2081  0.2705  0.6215
 8341TIP3    H146514   0.109   0.206  13.416 -1.5156  0.6118  0.8046
 8341TIP3    H246515   0.074   0.097  13.516  1.4756 -0.4599  0.7883
 8342TIP3   OH246516   3.756   0.840  32.134 -0.1057  0.3870 -0.2860
 8342TIP3    H146517   3.662   0.853  32.120  0.0490  1.3621 -0.4672
 8342TIP3    H246518   3.797   0.885  32.061  0.4660 -1.7114 -1.3378
 8343TIP3   OH246519   0.316   1.139  31.511  0.9503 -0.1938  0.2694
 8343TIP3    H146520   0.361   1.194  31.575 -0.8154  0.1034  1.3227
 8343TIP3    H246521   0.223   1.161  31.521  0.6118  0.1069 -2.6541
 8344TIP3   OH246522   1.741   1.529  46.443  0.4722  0.6979 -0.0027
 8344TIP3    H146523   1.681   1.464  46.480 -0.1081  0.3504 -1.4927
 8344TIP3    H246524   1.821   1.479  46.424  1.1424  1.0809  1.6196
 8345TIP3   OH246525   3.567   1.634   5.321 -0.6176 -0.2849 -0.5216
 8345TIP3    H146526   3.608   1.640   5.407 -2.0681  0.7877  0.1466
 8345TIP3    H246527   3.617   1.694   5.266  1.4884 -2.3433 -0.9877
 8346TIP3   OH246528   2.841   2.674  13.241  0.3309 -0.1276 -0.1143
 8346TIP3    H146529   2.796   2.589  13.242 -1.3557  0.7068  1.5756
 8346TIP3    H246530   2.779   2.734  13.200  1.0279  0.5447 -0.2111
 8347TIP3   OH246531   0.113   1.819  18.362 -0.1708 -0.6291 -0.1007
 8347TIP3    H146532   0.158   1.749  18.410 -1.2173 -1.9890 -1.0382
 8347TIP3    H246533   0.183   1.867  18.318  0.6178 -0.6955  1.0483
 8348TIP3   OH246534   1.865   2.659  41.124  0.0996  0.8546 -0.3420
 8348TIP3    H146535   1.832   2.722  41.188 -0.2384 -0.0943  0.4480
 8348TIP3    H246536   1.955   2.686  41.106  0.0246  1.4282  0.1378
 8349TIP3   OH246537   0.929   3.478   1.422 -0.0373  0.0632 -0.4666
 8349TIP3    H146538   0.893   3.492   1.334 -0.3077  0.8157 -0.2474
 8349TIP3    H246539   0.855   3.494   1.480  0.7193  2.0919  0.0261
 8350TIP3   OH246540   3.874   0.626  39.912  0.4627  0.2566  0.2667
 8350TIP3    H146541   3.872   0.541  39.955 -1.1326  0.3467  0.4644
 8350TIP3    H246542   3.949   0.623  39.853  0.5888 -1.1788  0.4821
 8351TIP3   OH246543   2.724   0.585   8.630 -0.0007 -0.6234 -0.0323
 8351TIP3    H146544   2.755   0.534   8.555 -0.6486 -0.3903 -0.4668
 8351TIP3    H246545   2.803   0.628   8.664  0.0906  0.4338 -1.4858
 8352TIP3   OH246546   2.350   3.018  36.601 -0.2407  0.3316  0.5678
 8352TIP3    H146547   2.333   3.024  36.507 -0.6485  1.0152  0.6756
 8352TIP3    H246548   2.304   2.939  36.629  1.0113 -0.6537 -0.0332
 8353TIP3   OH246549   3.836   1.293  45.921 -0.1388 -0.4087  0.3337
 8353TIP3    H146550   3.917   1.327  45.959  0.9223 -0.3101 -1.8540
 8353TIP3    H246551   3.795   1.243  45.992  0.6652  1.4147  2.1762
 8354TIP3   OH246552   2.353   2.225   3.593  0.0430  0.3768 -0.5644
 8354TIP3    H146553   2.310   2.271   3.521  1.4776 -0.5749 -2.0799
 8354TIP3    H246554   2.443   2.258   3.593  0.1642  0.0867  0.5520
 8355TIP3   OH246555   2.706   2.195  37.614 -0.2950 -0.5750  0.1108
 8355TIP3    H146556   2.697   2.194  37.710 -0.6929 -0.1684  0.0759
 8355TIP3    H246557   2.750   2.112  37.594 -2.0908 -1.6736  0.4659
 8356TIP3   OH246558   2.144   4.101  41.583  0.2021 -0.1442 -0.2240
 8356TIP3    H146559   2.120   4.015  41.618  2.5198 -0.0302  1.8758
 8356TIP3    H246560   2.095   4.163  41.637 -0.1836 -0.0858 -0.6342
 8357TIP3   OH246561   1.746   2.929   7.786 -0.4455  0.0004  0.0797
 8357TIP3    H146562   1.714   2.965   7.869 -1.7605  0.8192 -0.7402
 8357TIP3    H246563   1.677   2.950   7.723  0.6285 -0.4028 -1.2755
 8358TIP3   OH246564   1.069   0.588  46.875  0.2635 -0.1689 -0.1326
 8358TIP3    H146565   1.020   0.588  46.957 -2.1611 -2.9943 -1.4172
 8358TIP3    H246566   1.153   0.548  46.898 -0.2333 -0.5778  1.0429
 8359TIP3   OH246567   1.945   2.599   1.654 -0.0596 -0.3377  0.0544
 8359TIP3    H146568   2.035   2.596   1.688  0.4867 -0.8069 -1.3552
 8359TIP3    H246569   1.954   2.576   1.561 -1.3032  2.1804 -0.7826
 8360TIP3   OH246570   2.000   3.339  36.816  0.8174 -0.5590 -0.4249
 8360TIP3    H146571   1.997   3.247  36.840 -1.0959 -0.5300 -0.3919
 8360TIP3    H246572   2.052   3.342  36.736 -0.1216 -1.8350 -1.0993
 8361TIP3   OH246573   3.358   2.534  14.628  0.0033 -0.3620  0.1080
 8361TIP3    H146574   3.409   2.455  14.610 -1.6681 -1.7080  0.9446
 8361TIP3    H246575   3.327   2.523  14.718  0.2526  1.5800  0.4749
 8362TIP3   OH246576   1.988   1.139  42.343 -0.2566  0.5731  0.5913
 8362TIP3    H146577   1.951   1.174  42.262 -1.6240 -0.1900  0.8510
 8362TIP3    H246578   2.076   1.177  42.349 -0.1967  0.7661 -1.1558
 8363TIP3   OH246579   3.436   0.329  38.420  0.2771  0.1989  0.3171
 8363TIP3    H146580   3.454   0.236  38.432  1.2791  0.3975  0.4395
 8363TIP3    H246581   3.515   0.373  38.450  0.2015  1.0470 -0.6740
 8364TIP3   OH246582   3.096   1.020  37.097 -0.0271 -0.3200 -0.2969
 8364TIP3    H146583   3.191   1.006  37.091 -0.1188 -1.1187 -0.0038
 8364TIP3    H246584   3.083   1.065  37.181  0.2471  1.4014 -1.1338
 8365TIP3   OH246585   2.769   2.121   3.241 -0.1437 -0.5692 -0.0579
 8365TIP3    H146586   2.747   2.212   3.260 -1.2761 -0.8436 -0.0009
 8365TIP3    H246587   2.820   2.125   3.160  0.4235  0.1669  0.3142
 8366TIP3   OH246588   3.223   0.276  10.813  0.5099  0.1977 -0.0961
 8366TIP3    H146589   3.220   0.324  10.896  2.2173  0.6757 -0.2607
 8366TIP3    H246590   3.312   0.290  10.781  0.4407 -1.4702 -1.1360
 8367TIP3   OH246591   2.506   3.971  34.652  0.1618  0.3212 -0.0266
 8367TIP3    H146592   2.541   4.009  34.571  0.5416 -1.4224 -0.7359
 8367TIP3    H246593   2.413   3.956  34.632  0.0913  0.5358  0.1320
 8368TIP3   OH246594   1.561   3.001   8.087 -0.4026 -0.2493 -0.0197
 8368TIP3    H146595   1.493   2.943   8.052 -0.2351 -0.1219 -0.5646
 8368TIP3    H246596   1.637   2.944   8.098 -0.0805 -0.0279 -1.0510
 8369TIP3   OH246597   3.776   2.903   5.922  0.1815 -0.0254  0.0321
 8369TIP3    H146598   3.867   2.916   5.895  0.6601 -1.6118  0.7649
 8369TIP3    H246599   3.776   2.818   5.967 -1.5168  0.3059  0.7325
 8370TIP3   OH246600   0.164   4.079  30.265  0.3623  0.3826 -0.2930
 8370TIP3    H146601   0.132   4.048  30.180 -0.4539 -2.7838  1.0132
 8370TIP3    H246602   0.259   4.079  30.256  0.2784  0.5346 -1.3322
 8371TIP3   OH246603   0.822   0.678   2.557  0.2730  0.1759  0.4316
 8371TIP3    H146604   0.852   0.752   2.610 -1.0793  1.3206 -0.3288
 8371TIP3    H246605   0.758   0.633   2.612  1.1590 -0.5058  0.9273
 8372TIP3   OH246606   0.745   3.588  42.677  0.5508  0.1159  0.3786
 8372TIP3    H146607   0.773   3.531  42.749  0.7714  2.4341  2.2501
 8372TIP3    H246608   0.738   3.530  42.601 -1.0019 -2.7393  2.5147
 8373TIP3   OH246609   2.526   0.137   0.696  0.2438 -0.1563  0.2421
 8373TIP3    H146610   2.574   0.131   0.778 -0.4317  2.6687  0.9488
 8373TIP3    H246611   2.502   0.229   0.688 -2.4198 -0.8580 -1.5648
 8374TIP3   OH246612   3.428   2.727  40.494  0.2209 -0.2637 -0.6073
 8374TIP3    H146613   3.432   2.659  40.427  1.7109  0.3412 -1.1571
 8374TIP3    H246614   3.415   2.678  40.576  4.4304 -1.6277 -0.5102
 8375TIP3   OH246615   3.752   3.299  39.323 -0.1647 -0.1780 -0.1733
 8375TIP3    H146616   3.762   3.388  39.357  1.1574 -0.5866  0.5799
 8375TIP3    H246617   3.745   3.310  39.229  0.9613  0.6741 -0.1768
 8376TIP3   OH246618   3.187   2.129  34.302 -0.6734  0.3214 -0.1297
 8376TIP3    H146619   3.267   2.098  34.259 -0.4837 -0.2400  0.6026
 8376TIP3    H246620   3.119   2.120  34.235 -0.0320  1.3293 -0.9412
 8377TIP3   OH246621   1.333   0.284  31.747 -0.0438  0.0500 -0.9185
 8377TIP3    H146622   1.243   0.254  31.762  0.3778 -0.8446 -0.0567
 8377TIP3    H246623   1.382   0.250  31.822  1.0363  0.4433 -1.4301
 8378TIP3   OH246624   0.019   2.975  11.160  0.2628 -0.1888  0.4925
 8378TIP3    H146625   0.030   2.906  11.094  0.3351 -0.7533  1.0813
 8378TIP3    H246626   0.108   3.004  11.179  0.2167  0.2196  0.0868
 8379TIP3   OH246627   1.842   0.648  11.141  0.1121  1.0172  0.1284
 8379TIP3    H146628   1.760   0.602  11.125 -0.2475  2.1605 -1.5148
 8379TIP3    H246629   1.868   0.620  11.229 -0.2621 -1.9976 -0.6074
 8380TIP3   OH246630   3.068   3.070  32.848 -0.1684 -0.3066  0.2660
 8380TIP3    H146631   3.128   3.052  32.776  0.2293 -0.1920  0.5677
 8380TIP3    H246632   3.080   2.997  32.908 -0.7075 -0.5503  0.0896
 8381TIP3   OH246633   3.885   0.657   7.989 -0.0618  0.2771 -0.2319
 8381TIP3    H146634   3.890   0.671   8.084  2.2746  0.0068 -0.2691
 8381TIP3    H246635   3.953   0.592   7.970 -0.9857 -0.2482 -2.0148
 8382TIP3   OH246636   1.881   2.307  13.434  0.0875 -0.6961  0.5148
 8382TIP3    H146637   1.953   2.309  13.372  0.5837 -0.8707  1.0739
 8382TIP3    H246638   1.825   2.235  13.404 -0.8834  0.6588 -1.0346
 8383TIP3   OH246639   1.029   2.371  31.746  0.1342 -0.2391 -0.9123
 8383TIP3    H146640   0.987   2.347  31.664  0.1225 -0.9224 -0.7096
 8383TIP3    H246641   1.069   2.291  31.778  1.3067  0.3300 -0.9160
 8384TIP3   OH246642   2.279   1.709   2.930  0.1569  0.2017  0.3039
 8384TIP3    H146643   2.196   1.735   2.891 -0.2862  0.7052  1.5348
 8384TIP3    H246644   2.255   1.663   3.010  1.0645  1.5310  1.3775
 8385TIP3   OH246645   2.543   3.400  33.064 -0.4285 -0.4588 -0.2920
 8385TIP3    H146646   2.554   3.329  33.127 -0.2044 -1.1514 -1.0913
 8385TIP3    H246647   2.624   3.399  33.013 -0.9423 -0.4439 -1.1236
 8386TIP3   OH246648   2.366   1.303  32.912 -0.2502  0.5108 -0.3018
 8386TIP3    H146649   2.461   1.292  32.913 -0.3349 -0.3855  1.3174
 8386TIP3    H246650   2.331   1.214  32.910 -1.0667  0.8209 -0.4613
 8387TIP3   OH246651   2.167   3.550   3.129 -0.1997 -0.2148 -0.4889
 8387TIP3    H146652   2.140   3.624   3.075 -0.5130  0.6712  0.8601
 8387TIP3    H246653   2.234   3.585   3.188  0.3701 -1.2454 -0.4827
 8388TIP3   OH246654   1.800   2.190  41.604  0.1161  0.4930  0.4091
 8388TIP3    H146655   1.761   2.172  41.689 -0.0575  0.9451  0.4308
 8388TIP3    H246656   1.881   2.238  41.624  1.0338 -0.9868  0.3956
 8389TIP3   OH246657   3.037   3.403  35.465  0.0025 -0.4060 -0.5585
 8389TIP3    H146658   3.074   3.348  35.534  2.0103  0.1712 -1.0931
 8389TIP3    H246659   3.028   3.489  35.506 -2.1457 -0.8353 -0.0250
 8390TIP3   OH246660   2.710   3.782  36.336 -0.5701  0.1652 -0.9654
 8390TIP3    H146661   2.647   3.809  36.270 -1.2136 -0.1861 -0.4990
 8390TIP3    H246662   2.794   3.784  36.290 -0.9219  0.5503 -1.6128
 8391TIP3   OH246663   3.869   1.494  15.914  0.2145 -0.2336 -0.6707
 8391TIP3    H146664   3.962   1.512  15.930 -0.1515  0.2574  1.1844
 8391TIP3    H246665   3.833   1.474  16.000 -1.3379 -0.8031 -1.4090
 8392TIP3   OH246666   3.828   2.675   7.407  0.3107 -0.6238  0.6909
 8392TIP3    H146667   3.747   2.665   7.458  0.2613  0.2013  0.7862
 8392TIP3    H246668   3.897   2.647   7.467  0.3395  1.1670  1.5651
 8393TIP3   OH246669   1.221   0.563  37.690  0.5412  0.3756  0.0925
 8393TIP3    H146670   1.284   0.502  37.729 -0.4731 -1.1039 -0.4673
 8393TIP3    H246671   1.139   0.545  37.736 -0.2611 -0.1839 -1.4689
 8394TIP3   OH246672   2.058   1.008  44.432 -0.6282 -0.1554  0.3708
 8394TIP3    H146673   1.975   0.982  44.471 -1.0066 -0.9040 -0.8532
 8394TIP3    H246674   2.034   1.068  44.361 -0.2596 -1.2132 -0.7013
 8395TIP3   OH246675   3.931   3.326  14.768 -0.3194  0.5028 -0.1990
 8395TIP3    H146676   4.005   3.386  14.778  1.0834 -1.2839  0.6539
 8395TIP3    H246677   3.948   3.281  14.685  0.1349 -0.6252  0.4789
 8396TIP3   OH246678   0.848   2.923   4.154 -0.0336 -0.4307  0.1746
 8396TIP3    H146679   0.861   2.989   4.086 -0.1256 -0.5391  0.0520
 8396TIP3    H246680   0.898   2.955   4.229 -1.9810  1.0105  0.9466
 8397TIP3   OH246681   4.038   1.369  34.844 -0.6915 -0.0812 -0.0926
 8397TIP3    H146682   4.096   1.392  34.917  0.5070  0.4272 -1.1728
 8397TIP3    H246683   4.083   1.402  34.766 -1.7560 -0.9449 -1.1102
 8398TIP3   OH246684   2.099   0.914  47.154  0.4606  0.1186 -0.4335
 8398TIP3    H146685   2.118   0.875  47.240  1.2506  2.6735  0.6613
 8398TIP3    H246686   2.141   0.855  47.092  1.1209 -1.0626  1.0560
 8399TIP3   OH246687   2.557   2.875   1.159  0.1498  0.4881  0.5287
 8399TIP3    H146688   2.562   2.845   1.068  0.0638  0.4058  0.5516
 8399TIP3    H246689   2.580   2.798   1.211  0.1502  0.5223  0.5793
 8400TIP3   OH246690   0.668   2.512  14.053  0.6565 -0.3085  0.3461
 8400TIP3    H146691   0.698   2.565  14.126  1.4387 -2.4204  1.6413
 8400TIP3    H246692   0.573   2.524  14.051  0.8827  1.7215  0.0571
 8401TIP3   OH246693   1.033   2.445  10.693  0.2307  0.0199  0.2949
 8401TIP3    H146694   1.017   2.460  10.786 -0.3922  0.7522  0.0813
 8401TIP3    H246695   1.120   2.481  10.678  0.1979  0.1987  0.5257
 8402TIP3   OH246696   1.457   2.986  14.156  0.1139  0.1118 -0.3163
 8402TIP3    H146697   1.416   3.066  14.123  0.2650  1.0489  1.6731
 8402TIP3    H246698   1.539   2.978  14.106  0.6030  1.7754  0.1876
 8403TIP3   OH246699   2.378   0.078   7.773  0.2659 -0.0670 -0.2296
 8403TIP3    H146700   2.338  -0.003   7.802 -0.1130  0.4817  0.8259
 8403TIP3    H246701   2.395   0.127   7.853 -0.4450  1.3312 -0.8922
 8404TIP3   OH246702   2.601   0.595  32.822 -0.1542 -0.1614 -0.1005
 8404TIP3    H146703   2.667   0.664  32.834 -0.2665  0.2537 -1.6880
 8404TIP3    H246704   2.568   0.579  32.910  0.7134  0.9772  0.4684
 8405TIP3   OH246705   1.133   3.376  38.818  0.3905 -0.4959  0.0740
 8405TIP3    H146706   1.143   3.321  38.895 -1.2359 -0.5396  0.2790
 8405TIP3    H246707   1.217   3.422  38.810  1.3565 -2.1219  0.5590
 8406TIP3   OH246708   0.792   0.407  11.661 -0.0233 -0.3498 -0.0440
 8406TIP3    H146709   0.848   0.342  11.619  0.1657  0.7677 -1.6018
 8406TIP3    H246710   0.725   0.355  11.706  0.6320 -1.6360 -0.4972
 8407TIP3   OH246711   1.181   3.203   5.263  0.3247  0.3111 -0.0384
 8407TIP3    H146712   1.134   3.122   5.283 -0.7180  0.4760 -1.5975
 8407TIP3    H246713   1.173   3.256   5.342 -3.0038  0.7041 -0.5137
 8408TIP3   OH246714   2.035   2.380  11.595  0.4068  0.1769  0.1235
 8408TIP3    H146715   2.008   2.344  11.680 -0.3536  0.7283  0.1294
 8408TIP3    H246716   1.979   2.456  11.583  0.7572  0.3098 -0.7172
 8409TIP3   OH246717   1.749   1.877  10.004 -0.0321 -0.3983  0.0788
 8409TIP3    H146718   1.790   1.799   9.966 -0.7664 -0.4524 -0.6201
 8409TIP3    H246719   1.655   1.863   9.994 -0.1851  0.4244  0.2485
 8410TIP3   OH246720   2.549   2.001  12.247  0.3747  0.4457 -0.2012
 8410TIP3    H146721   2.633   1.973  12.283  0.9273  0.6926 -1.2659
 8410TIP3    H246722   2.518   2.068  12.308 -0.9813 -2.2840  2.4010
 8411TIP3   OH246723   0.739   3.029  46.682  0.0184  0.1451  0.2012
 8411TIP3    H146724   0.819   3.070  46.714 -0.0076 -1.4190  2.5165
 8411TIP3    H246725   0.725   3.067  46.596  3.3324  0.3544 -0.3582
 8412TIP3   OH246726   3.491   2.168  10.751  0.0039 -0.1674  0.3070
 8412TIP3    H146727   3.453   2.080  10.751 -0.1121 -0.1180  0.4302
 8412TIP3    H246728   3.441   2.217  10.685  0.4950 -0.3739 -0.2269
 8413TIP3   OH246729   0.756   1.859  15.690  0.3319  0.8872  0.2817
 8413TIP3    H146730   0.667   1.857  15.655 -0.3580 -1.1094  1.9409
 8413TIP3    H246731   0.744   1.857  15.785  2.1497 -0.6981  0.5185
 8414TIP3   OH246732   2.857   0.791   6.578  0.1125 -0.3767 -0.3293
 8414TIP3    H146733   2.838   0.742   6.497  2.0421 -1.6559 -0.0770
 8414TIP3    H246734   2.862   0.723   6.646  0.2333  0.4819  0.5345
 8415TIP3   OH246735   4.038   0.889  11.609  0.1571 -0.8151 -0.4313
 8415TIP3    H146736   4.118   0.938  11.627 -0.3867  0.3266 -0.9713
 8415TIP3    H246737   4.025   0.898  11.514 -1.6867  0.8254 -0.1056
 8416TIP3   OH246738   1.413   2.310  37.947 -0.5393 -0.2892 -0.1148
 8416TIP3    H146739   1.323   2.296  37.920 -0.1541 -0.7402 -1.2366
 8416TIP3    H246740   1.465   2.281  37.872  0.5397 -0.1180  0.5482
 8417TIP3   OH246741   2.447   1.382  36.064 -0.3488  0.0863 -0.3602
 8417TIP3    H146742   2.357   1.366  36.036 -0.4617  1.7788 -1.0529
 8417TIP3    H246743   2.440   1.453  36.128  0.4631  0.0479 -0.2187
 8418TIP3   OH246744   1.845   1.641  45.016  0.8139 -0.3640  0.2713
 8418TIP3    H146745   1.917   1.669  45.073  0.3837 -0.9686  1.1388
 8418TIP3    H246746   1.886   1.627  44.931  1.5504  0.1992  0.5209
 8419TIP3   OH246747   2.161   3.287   8.719  0.2961  0.0066  0.1064
 8419TIP3    H146748   2.135   3.371   8.683  2.9072  0.2049 -1.4776
 8419TIP3    H246749   2.173   3.304   8.813 -2.0377  0.6004  0.3712
 8420TIP3   OH246750   2.452   0.791  33.282  0.8663  0.0456  0.1252
 8420TIP3    H146751   2.511   0.785  33.356  1.2798  0.3004 -0.1778
 8420TIP3    H246752   2.510   0.794  33.205  0.4330 -2.0593 -0.3486
 8421TIP3   OH246753   3.156   1.856  18.797  0.3259 -0.1814 -0.0939
 8421TIP3    H146754   3.205   1.799  18.738  1.2399 -0.1868  0.6506
 8421TIP3    H246755   3.171   1.944  18.764 -0.8429 -0.3106 -1.0670
 8422TIP3   OH246756   0.140   1.274  39.572  0.3760  0.8649 -0.2493
 8422TIP3    H146757   0.126   1.265  39.478  0.2765  1.6368 -0.3145
 8422TIP3    H246758   0.126   1.367  39.589  1.4590  0.9299  0.3490
 8423TIP3   OH246759   0.439   0.320  46.104 -0.5549  0.0758  0.0091
 8423TIP3    H146760   0.354   0.278  46.097  0.1408 -1.3424 -0.3853
 8423TIP3    H246761   0.453   0.361  46.018 -0.4189 -0.5531 -0.2752
 8424TIP3   OH246762   2.268   2.793  45.303  0.5348  0.4893  0.0741
 8424TIP3    H146763   2.295   2.877  45.267 -0.4287  0.2715 -1.2352
 8424TIP3    H246764   2.199   2.814  45.365  0.7310  0.7004  0.2252
 8425TIP3   OH246765   1.339   2.960  14.645 -0.8242  0.0470  0.8172
 8425TIP3    H146766   1.328   2.903  14.569 -3.8991  1.3875  0.0950
 8425TIP3    H246767   1.368   3.044  14.608 -1.1319  0.3558  1.2649
 8426TIP3   OH246768   1.689   0.188   0.096 -1.0705  0.4107 -0.5720
 8426TIP3    H146769   1.642   0.268   0.076 -1.2065  0.1724 -1.2544
 8426TIP3    H246770   1.684   0.137   0.015  1.0093  0.6975 -0.9387
 8427TIP3   OH246771   0.778   1.209  45.631  0.6576  0.3614 -0.2367
 8427TIP3    H146772   0.834   1.135  45.654  0.5734  0.8528  1.7266
 8427TIP3    H246773   0.698   1.168  45.599  1.5841 -0.3519 -1.7734
 8428TIP3   OH246774   3.056   2.324   3.224 -0.4595  0.4684 -0.5551
 8428TIP3    H146775   3.062   2.279   3.140  2.6786  0.4980 -0.4696
 8428TIP3    H246776   3.081   2.257   3.289  1.5926  1.5079 -0.1694
 8429TIP3   OH246777   1.710   0.074  38.786  0.1924 -0.1043 -0.3641
 8429TIP3    H146778   1.681  -0.006  38.742  0.4214 -1.0586  1.1636
 8429TIP3    H246779   1.801   0.085  38.760  0.6278 -1.2214  0.6187
 8430TIP3   OH246780   2.900   3.796  45.785  0.2764  0.3906  0.3219
 8430TIP3    H146781   2.947   3.778  45.866 -0.6089  2.2480  1.3196
 8430TIP3    H246782   2.944   3.874  45.749 -0.1491  0.3472 -0.3135
 8431TIP3   OH246783   3.344   3.759   9.812  0.0452  0.2719  0.2087
 8431TIP3    H146784   3.321   3.753   9.720 -0.9756  1.0164  0.4018
 8431TIP3    H246785   3.283   3.823   9.848  0.1504 -0.3174  1.4867
 8432TIP3   OH246786   0.769   0.322  42.972 -0.3554  0.3780  0.0311
 8432TIP3    H146787   0.843   0.321  42.911 -0.2231 -1.8563  0.1481
 8432TIP3    H246788   0.809   0.306  43.058 -0.5115  3.7109  0.8487
 8433TIP3   OH246789   2.723   0.494  35.797 -0.0510 -0.0973 -0.0016
 8433TIP3    H146790   2.629   0.508  35.790 -0.1324  0.1679  1.3026
 8433TIP3    H246791   2.741   0.418  35.741 -1.1528 -0.5866  0.2855
 8434TIP3   OH246792   2.730   4.091   1.123 -0.1524  1.1218 -0.4623
 8434TIP3    H146793   2.766   4.004   1.110 -1.2336  0.3394  1.3134
 8434TIP3    H246794   2.799   4.139   1.168 -0.2430  0.5613  0.2913
 8435TIP3   OH246795   0.857   3.149  42.882 -0.2522  0.1737 -0.1226
 8435TIP3    H146796   0.785   3.086  42.880 -0.2275  0.1548 -0.5325
 8435TIP3    H246797   0.935   3.096  42.867 -0.2016  0.2618 -0.1701
 8436TIP3   OH246798   2.324   3.758  14.287  0.1164  0.0970 -0.1625
 8436TIP3    H146799   2.405   3.799  14.318 -1.5997  3.1797  0.6443
 8436TIP3    H246800   2.350   3.711  14.207  3.1079 -1.1710  1.3811
 8437TIP3   OH246801   1.694   1.478  31.312  0.5839 -0.2792 -0.1517
 8437TIP3    H146802   1.650   1.416  31.255  1.9997  0.4466 -2.1261
 8437TIP3    H246803   1.717   1.427  31.390  0.8133 -1.9642 -1.2845
 8438TIP3   OH246804   1.668   1.492  33.952  0.3850 -0.0850 -1.0307
 8438TIP3    H146805   1.589   1.475  34.004  0.0812 -1.5256 -1.9169
 8438TIP3    H246806   1.662   1.584  33.930 -0.3385  0.1595  0.0730
 8439TIP3   OH246807   0.841   2.919  38.461  0.5681 -0.1936 -0.2435
 8439TIP3    H146808   0.852   2.827  38.483 -1.4467 -0.4282 -0.0424
 8439TIP3    H246809   0.792   2.919  38.379 -0.7606  0.6677  0.5097
 8440TIP3   OH246810   2.959   1.388  13.322  0.2889  0.5619  0.0952
 8440TIP3    H146811   2.973   1.293  13.320 -1.2194  0.3095 -1.7109
 8440TIP3    H246812   2.959   1.414  13.230  0.6530  2.3311  0.5577
 8441TIP3   OH246813   0.682   2.683  31.404  0.3884  0.2468 -0.4749
 8441TIP3    H146814   0.687   2.778  31.405  1.5889  0.1902  0.0438
 8441TIP3    H246815   0.727   2.657  31.324  2.5470  0.0289  0.7356
 8442TIP3   OH246816   2.983   3.915  30.697  0.1133  0.2306  0.4578
 8442TIP3    H146817   3.069   3.955  30.713  0.1640  0.5928 -0.6746
 8442TIP3    H246818   3.002   3.822  30.686  0.1752  0.0898  1.5983
 8443TIP3   OH246819   3.654   3.973  12.754  0.3976  0.1485 -0.0986
 8443TIP3    H146820   3.577   4.027  12.740  0.5986  0.2643 -0.8392
 8443TIP3    H246821   3.727   4.036  12.758  0.9779 -0.1150 -3.5078
 8444TIP3   OH246822   0.721   3.822   9.228  0.2667  0.0212  0.3206
 8444TIP3    H146823   0.766   3.738   9.225 -1.3274 -0.8337 -1.0054
 8444TIP3    H246824   0.635   3.802   9.265 -1.3791  0.3654 -2.9689
 8445TIP3   OH246825   3.804   4.103   9.153  0.0349 -0.3265  0.2012
 8445TIP3    H146826   3.810   4.194   9.127  1.5058 -0.4958 -0.1382
 8445TIP3    H246827   3.770   4.106   9.243  0.3133  0.5563  0.2832
 8446TIP3   OH246828   2.610   0.064  46.867  0.6293 -0.2453  0.1280
 8446TIP3    H146829   2.680   0.071  46.803  0.1761 -1.2582 -0.5081
 8446TIP3    H246830   2.654   0.055  46.951  1.3560 -2.8100 -0.4368
 8447TIP3   OH246831   1.351   3.075  40.186 -0.4588  0.0259 -0.2808
 8447TIP3    H146832   1.343   3.164  40.151 -0.6465  0.1740  0.1358
 8447TIP3    H246833   1.446   3.058  40.187 -0.4840 -0.2883 -1.6178
 8448TIP3   OH246834   2.877   1.852  18.895  0.1301 -0.2725 -0.2555
 8448TIP3    H146835   2.824   1.857  18.816  0.5666 -0.4845 -0.5715
 8448TIP3    H246836   2.967   1.859  18.863  0.2644  1.2676  0.3822
 8449TIP3   OH246837   4.038   2.360  17.226 -0.0263 -0.3639  0.4654
 8449TIP3    H146838   4.008   2.300  17.294  0.4840  0.4409  1.4274
 8449TIP3    H246839   4.126   2.386  17.254  0.2574 -0.1328 -0.5829
 8450TIP3   OH246840   0.148   3.132   0.190 -0.2731  0.2915 -0.0270
 8450TIP3    H146841   0.240   3.138   0.167 -0.3245 -1.6359 -0.9489
 8450TIP3    H246842   0.115   3.058   0.138 -2.4734  1.3066 -0.1887
 8451TIP3   OH246843   2.656   0.756  46.149  0.1942  0.8792  0.0911
 8451TIP3    H146844   2.685   0.665  46.144 -0.1860  0.7358  0.4719
 8451TIP3    H246845   2.686   0.795  46.067  2.0391  0.9175  0.7368
 8452TIP3   OH246846   0.954   1.636   6.839 -0.5016 -0.1270  0.0564
 8452TIP3    H146847   0.987   1.688   6.912  0.6549  0.8939 -1.1340
 8452TIP3    H246848   0.871   1.600   6.870 -0.9737  1.8197  1.1968
 8453TIP3   OH246849   0.435   3.928   4.548 -0.1166 -0.0315  0.1199
 8453TIP3    H146850   0.460   3.997   4.486 -1.3751 -0.3719 -0.8225
 8453TIP3    H246851   0.490   3.943   4.624  0.5029  1.2650 -0.5410
 8454TIP3   OH246852   2.451   0.617  36.269 -0.2047  0.3112  0.2282
 8454TIP3    H146853   2.479   0.621  36.360  0.1148 -1.9072  0.2576
 8454TIP3    H246854   2.526   0.651  36.219  0.4297 -0.4403  0.6640
 8455TIP3   OH246855   0.250   2.234   9.363  0.8476  0.9821  0.1675
 8455TIP3    H146856   0.228   2.283   9.442 -0.8927 -0.1513  0.4480
 8455TIP3    H246857   0.176   2.249   9.303  2.1315  1.8277 -1.2885
 8456TIP3   OH246858   2.050   3.767  32.015  0.4122 -0.4239 -0.1427
 8456TIP3    H146859   2.045   3.820  31.936  0.0675 -1.7968 -1.0712
 8456TIP3    H246860   1.965   3.722  32.019  0.0815  0.2463  1.4870
 8457TIP3   OH246861   1.355   1.001  32.452  0.2137 -0.0456  0.4901
 8457TIP3    H146862   1.365   1.003  32.357 -2.4430 -0.7448  0.0988
 8457TIP3    H246863   1.351   1.093  32.477 -0.8808  0.1743 -0.3763
 8458TIP3   OH246864   3.357   1.567   0.009  0.2501 -0.0525 -0.1845
 8458TIP3    H146865   3.312   1.576   0.093  0.8524  1.3991  0.0210
 8458TIP3    H246866   3.288   1.551  -0.054 -0.6136  2.0453  0.1292
 8459TIP3   OH246867   2.071   1.703   1.822  0.4255 -0.2699  0.0014
 8459TIP3    H146868   1.977   1.684   1.817  0.6148 -2.1530  1.9540
 8459TIP3    H246869   2.106   1.677   1.737 -1.0201  2.3831 -1.5399
 8460TIP3   OH246870   3.199   1.899  13.546 -0.8950  0.3669  0.0651
 8460TIP3    H146871   3.185   1.855  13.462  1.7637 -0.5676  0.0029
 8460TIP3    H246872   3.261   1.970  13.525 -1.6798  1.3388  0.9363
 8461TIP3   OH246873   3.021   2.988   4.704  0.7947  0.8117 -0.1941
 8461TIP3    H146874   3.093   3.009   4.763  0.4384  0.5241  0.3515
 8461TIP3    H246875   3.045   2.903   4.666  1.1705  1.1367 -0.7148
 8462TIP3   OH246876   2.382   3.905  26.014 -0.3737 -0.4194 -0.1012
 8462TIP3    H146877   2.317   3.873  25.952  0.3252 -0.6072 -0.7552
 8462TIP3    H246878   2.332   3.951  26.081 -1.1866 -0.7292 -0.4881
 8463TIP3   OH246879   3.303   1.573  37.598 -0.3193 -0.3444  0.5860
 8463TIP3    H146880   3.260   1.533  37.674 -2.9329  2.9126  1.0403
 8463TIP3    H246881   3.289   1.667  37.609  3.8108  0.7185 -1.3164
 8464TIP3   OH246882   0.166   2.612  37.261 -0.5775 -0.2375  0.5885
 8464TIP3    H146883   0.222   2.675  37.216  0.4578 -1.4465  0.1099
 8464TIP3    H246884   0.082   2.617  37.216  0.2430 -0.9788 -1.1489
 8465TIP3   OH246885   2.724   2.653  31.134  0.2099 -0.3154 -0.2383
 8465TIP3    H146886   2.762   2.610  31.057 -2.0062  1.0403 -2.2081
 8465TIP3    H246887   2.630   2.654  31.117 -0.4159 -0.2269  2.6983
 8466TIP3   OH246888   1.124   3.528  34.969  0.0373 -0.0703  0.6899
 8466TIP3    H146889   1.219   3.521  34.966  0.2415  2.1207  0.1532
 8466TIP3    H246890   1.094   3.485  34.888  0.9461  2.7455 -1.2994
 8467TIP3   OH246891   2.157   2.305  16.029  0.2000  0.2274 -0.0743
 8467TIP3    H146892   2.131   2.237  16.091  1.4678  1.7576  2.2663
 8467TIP3    H246893   2.088   2.371  16.035  0.7149  0.7434  0.3555
 8468TIP3   OH246894   1.658   0.611   7.841  0.2319 -0.1485  0.3994
 8468TIP3    H146895   1.705   0.609   7.758  0.9166 -0.2019  0.7787
 8468TIP3    H246896   1.579   0.559   7.826 -0.9557  1.9182 -0.9819
 8469TIP3   OH246897   0.152   2.025  41.457  0.1761  0.1038  0.3862
 8469TIP3    H146898   0.115   2.018  41.369  1.1336  0.0513 -0.0198
 8469TIP3    H246899   0.176   1.936  41.481 -0.2997  0.0799  0.8112
 8470TIP3   OH246900   0.316   1.908  44.260 -0.0766 -0.5413 -0.2905
 8470TIP3    H146901   0.344   1.999  44.259  0.5816 -0.7225 -1.6524
 8470TIP3    H246902   0.304   1.886  44.352  1.1682  0.4955  0.1292
 8471TIP3   OH246903   4.053   2.104  34.592 -0.4101  0.0953 -0.2129
 8471TIP3    H146904   4.028   2.181  34.643  1.2156  0.5392 -0.0246
 8471TIP3    H246905   4.005   2.032  34.631  0.4563  0.4978  1.6915
 8472TIP3   OH246906   2.072   1.898  34.137  0.6293  0.0166 -0.3769
 8472TIP3    H146907   2.044   1.854  34.057  3.4824  2.0722 -2.7193
 8472TIP3    H246908   2.027   1.982  34.136 -0.5932 -0.5774  1.1420
 8473TIP3   OH246909   1.742   1.942  38.180  0.3421  0.1620 -0.2379
 8473TIP3    H146910   1.751   1.879  38.109 -2.2278 -0.0825 -0.4646
 8473TIP3    H246911   1.687   2.012  38.142 -2.8715 -0.9608  1.9592
 8474TIP3   OH246912   0.491   3.084  32.332  0.1414 -0.5355  0.7097
 8474TIP3    H146913   0.556   3.018  32.357 -0.6401 -1.4199  0.4789
 8474TIP3    H246914   0.428   3.035  32.279 -0.7882  0.2688  1.0537
 8475TIP3   OH246915   1.908   0.536  43.908  0.5920  0.3618 -0.2233
 8475TIP3    H146916   1.938   0.569  43.993 -1.1388  0.7915  0.2636
 8475TIP3    H246917   1.968   0.574  43.845  1.5422  0.5417  0.7502
 8476TIP3   OH246918   3.860   1.375  43.750  0.1205  0.1813 -0.5347
 8476TIP3    H146919   3.823   1.360  43.663  0.4312  1.1153 -0.8417
 8476TIP3    H246920   3.820   1.308  43.806  0.1257 -0.5981 -1.4515
 8477TIP3   OH246921   2.904   1.890   2.151  0.0845 -0.5915  0.3051
 8477TIP3    H146922   2.904   1.929   2.063 -0.0270  0.1537  0.6274
 8477TIP3    H246923   2.996   1.887   2.176  0.0304  0.3146  0.6402
 8478TIP3   OH246924   0.928   4.016  34.190 -0.0896  0.2218 -0.1099
 8478TIP3    H146925   0.988   4.080  34.153  1.6133  0.4572  2.7211
 8478TIP3    H246926   0.850   4.020  34.134  0.9174  2.9353 -1.5046
 8479TIP3   OH246927   2.848   3.316  11.800 -0.4746  0.3493  0.6611
 8479TIP3    H146928   2.877   3.407  11.793  0.1753  0.0863 -0.1597
 8479TIP3    H246929   2.776   3.308  11.737 -0.1599  0.1478  0.3277
 8480TIP3   OH246930   3.660   2.431  12.386  0.8558  0.1725  0.0919
 8480TIP3    H146931   3.581   2.466  12.427 -0.6420 -1.0327 -1.6604
 8480TIP3    H246932   3.629   2.377  12.314  3.3234  0.5942 -1.4078
 8481TIP3   OH246933   2.887   2.451  38.696  0.0677 -0.3985 -0.7507
 8481TIP3    H146934   2.890   2.358  38.717  1.5427  0.0773  1.3714
 8481TIP3    H246935   2.921   2.456  38.607 -2.2702 -2.0587 -1.8696
 8482TIP3   OH246936   0.670   0.282   1.872 -0.3446 -0.3621  0.4616
 8482TIP3    H146937   0.762   0.294   1.846 -0.5875 -0.6195 -0.5560
 8482TIP3    H246938   0.621   0.331   1.807 -0.8510  2.3919  2.6946
 8483TIP3   OH246939   2.686   0.268  43.057  0.4124  0.1446  0.1141
 8483TIP3    H146940   2.636   0.254  42.976 -0.5207  1.0432  0.5118
 8483TIP3    H246941   2.701   0.180  43.091 -1.5524 -0.1431  0.3568
 8484TIP3   OH246942   0.934   2.562  39.240 -0.4425  0.2670 -0.6220
 8484TIP3    H146943   1.026   2.548  39.263 -0.5837 -0.0915 -0.2638
 8484TIP3    H246944   0.935   2.573  39.145  0.2575  2.6247 -0.3952
 8485TIP3   OH246945   1.857   1.581  22.511  0.7176  1.3445  0.0605
 8485TIP3    H146946   1.840   1.594  22.604 -1.9092  0.0926 -0.1295
 8485TIP3    H246947   1.912   1.503  22.506  1.3352  1.7426  0.5565
 8486TIP3   OH246948   3.867   3.334   9.068 -0.5480 -0.1683 -0.2300
 8486TIP3    H146949   3.814   3.410   9.088 -2.4260 -1.2268 -0.9276
 8486TIP3    H246950   3.895   3.347   8.977 -0.3913 -0.0521 -0.1654
 8487TIP3   OH246951   3.375   1.637  38.756 -0.1876 -0.0199  0.3289
 8487TIP3    H146952   3.450   1.649  38.698  0.0062 -0.1978  0.5415
 8487TIP3    H246953   3.410   1.589  38.831 -0.8939 -1.7914 -0.4117
 8488TIP3   OH246954   3.468   0.059  14.270  0.2322 -0.3732 -0.3829
 8488TIP3    H146955   3.386   0.055  14.221 -0.2297 -1.5428  0.4308
 8488TIP3    H246956   3.442   0.089  14.358  0.4187 -2.1831  0.3252
 8489TIP3   OH246957   2.142   2.577  11.347 -0.0853 -0.1502 -0.2130
 8489TIP3    H146958   2.116   2.574  11.255 -0.2723 -1.3068 -0.1353
 8489TIP3    H246959   2.060   2.583  11.395  0.0528  1.5656 -0.1374
 8490TIP3   OH246960   1.728   1.739  41.685  0.1551  0.5343 -0.1468
 8490TIP3    H146961   1.695   1.806  41.745 -0.9618 -1.4937  1.6332
 8490TIP3    H246962   1.824   1.744  41.695  0.0023  0.1399  2.0051
 8491TIP3   OH246963   1.408   3.898  44.405 -0.0259  0.2138 -0.2951
 8491TIP3    H146964   1.375   3.939  44.325 -2.2062  0.8295  0.8429
 8491TIP3    H246965   1.498   3.873  44.384 -0.3696  0.7949 -2.7632
 8492TIP3   OH246966   2.097   0.765  45.960 -0.4058  0.3892  0.3788
 8492TIP3    H146967   2.088   0.845  45.908 -0.2102  0.4992  0.5182
 8492TIP3    H246968   2.021   0.712  45.934  1.8636 -1.4896 -3.4107
 8493TIP3   OH246969   0.077   3.775  46.287 -0.6414  0.1079 -0.3187
 8493TIP3    H146970   0.063   3.722  46.208 -2.4531  0.3705 -0.2281
 8493TIP3    H246971   0.026   3.855  46.271 -0.8102  0.2806  0.9850
 8494TIP3   OH246972   2.421   3.945  29.230 -0.3885 -0.3395  0.1095
 8494TIP3    H146973   2.508   3.904  29.227 -0.5046 -0.8092  2.1898
 8494TIP3    H246974   2.422   3.999  29.309 -0.8926  2.3312 -1.5747
 8495TIP3   OH246975   3.609   3.752   2.324 -0.4468 -0.0640 -0.2453
 8495TIP3    H146976   3.595   3.726   2.233  0.8978 -1.3591 -0.1192
 8495TIP3    H246977   3.582   3.844   2.326  1.2745  0.5911 -2.4334
 8496TIP3   OH246978   0.124   2.050  39.038  0.4979  0.0906 -0.1786
 8496TIP3    H146979   0.051   2.112  39.028  0.1138 -0.6025 -2.1831
 8496TIP3    H246980   0.113   2.014  39.126 -2.3062 -0.8053 -0.7876
 8497TIP3   OH246981   2.824   2.157  43.538 -0.4267  0.8124 -0.0584
 8497TIP3    H146982   2.805   2.134  43.447  1.3472  1.1890 -0.5651
 8497TIP3    H246983   2.857   2.246  43.535  0.5084  0.5275  0.8199
 8498TIP3   OH246984   3.392   1.947  19.760  0.5533 -0.3891  0.0893
 8498TIP3    H146985   3.437   1.867  19.788  0.0084 -0.7380 -0.0342
 8498TIP3    H246986   3.380   1.936  19.666  1.3422  0.2746 -0.1053
 8499TIP3   OH246987   0.872   0.042  29.603  0.0588 -0.3307  0.1724
 8499TIP3    H146988   0.926   0.058  29.681  1.8026  1.1044 -1.2346
 8499TIP3    H246989   0.926  -0.015  29.548 -0.1108  0.5521 -0.9543
 8500TIP3   OH246990   3.261   3.896  31.580 -0.3624  0.0198 -0.4071
 8500TIP3    H146991   3.354   3.877  31.571 -0.4747 -0.1833 -1.1664
 8500TIP3    H246992   3.225   3.819  31.623 -0.0501  0.4477  0.6696
 8501TIP3   OH246993   0.434   0.461  12.759  0.3227 -0.2742  0.1812
 8501TIP3    H146994   0.447   0.462  12.664 -0.0083 -1.2331  0.1177
 8501TIP3    H246995   0.489   0.389  12.790  0.3909  0.0034  0.7143
 8502TIP3   OH246996   0.998   3.655  41.807 -0.3370  0.2982  0.3520
 8502TIP3    H146997   0.995   3.694  41.720 -0.6155 -0.3267  0.0786
 8502TIP3    H246998   0.907   3.640  41.831 -0.2320 -0.2252  0.4343
 8503TIP3   OH246999   0.596   1.972  37.253 -0.3457 -0.2604 -0.1079
 8503TIP3    H147000   0.593   1.969  37.348 -0.5443  1.1703 -0.0488
 8503TIP3    H247001   0.679   2.014  37.232 -0.8122  0.4901 -0.5175
 8504TIP3   OH247002   2.558   3.184  36.102 -0.0159 -0.0437  0.3191
 8504TIP3    H147003   2.533   3.200  36.193  0.2053  2.2569  0.0419
 8504TIP3    H247004   2.477   3.156  36.060 -0.3918  0.0334  0.9711
 8505TIP3   OH247005   1.193   3.286   1.621  0.6224 -0.0549  0.3000
 8505TIP3    H147006   1.283   3.269   1.592  0.8824 -0.5477  1.3530
 8505TIP3    H247007   1.189   3.381   1.633  1.5919 -0.2035  2.0577
 8506TIP3   OH247008   4.099   3.449   9.251  0.2110  0.4434 -0.3379
 8506TIP3    H147009   4.129   3.476   9.164  0.4974 -1.9411 -1.0327
 8506TIP3    H247010   4.029   3.387   9.234 -1.6126  1.9450  1.2188
 8507TIP3   OH247011   3.831   2.204   9.505  0.3225 -0.3991 -0.6270
 8507TIP3    H147012   3.765   2.224   9.571 -0.4919 -2.2500 -0.8063
 8507TIP3    H247013   3.860   2.115   9.526  0.0676 -1.0341 -2.7030
 8508TIP3   OH247014   1.739   0.428  46.035 -0.2576 -0.5115  0.1067
 8508TIP3    H147015   1.792   0.465  46.106 -2.1388  0.9110  0.8510
 8508TIP3    H247016   1.666   0.385  46.080  0.1335 -2.3176 -0.8965
 8509TIP3   OH247017   2.811   1.853  47.729 -0.1059 -0.6462  0.0498
 8509TIP3    H147018   2.763   1.931  47.703 -0.5805 -1.5187 -1.8050
 8509TIP3    H247019   2.879   1.842  47.663 -0.2186 -1.9571  0.1119
 8510TIP3   OH247020   1.800   2.862  46.769 -0.2887 -0.1856 -0.1604
 8510TIP3    H147021   1.893   2.844  46.759 -0.4925 -0.6800 -1.3836
 8510TIP3    H247022   1.789   2.953  46.741  0.0046  0.2938  1.2300
 8511TIP3   OH247023   1.320   2.495  10.684 -0.4335  0.2785 -0.1642
 8511TIP3    H147024   1.381   2.542  10.628 -1.3028 -0.2391 -1.5858
 8511TIP3    H247025   1.372   2.423  10.720  0.3637  1.1278  0.4315
 8512TIP3   OH247026   3.910   2.440   5.756  0.3111  0.2684  0.1192
 8512TIP3    H147027   3.877   2.445   5.666  0.7783 -0.3190 -0.0901
 8512TIP3    H247028   3.835   2.467   5.810 -0.2478 -0.2027 -0.3948
 8513TIP3   OH247029   1.293   3.939   1.513  0.1126 -0.1177  0.3792
 8513TIP3    H147030   1.213   3.898   1.546 -0.6821  0.6983 -0.4886
 8513TIP3    H247031   1.360   3.870   1.522 -0.6921 -0.8452  1.0104
 8514TIP3   OH247032   3.011   2.020  33.285 -0.2732 -0.0871 -0.2375
 8514TIP3    H147033   2.970   2.106  33.299  0.1384  0.1183 -0.3027
 8514TIP3    H247034   2.938   1.963  33.262 -0.4439  0.4192 -0.9725
 8515TIP3   OH247035   0.790   2.560  44.393  0.3885 -0.2001 -0.3211
 8515TIP3    H147036   0.851   2.549  44.466  2.2073 -0.7913 -1.8476
 8515TIP3    H247037   0.810   2.488  44.334 -1.6196 -0.2289 -1.0395
 8516TIP3   OH247038   2.562   2.551   1.811  0.0016 -0.5208  0.4186
 8516TIP3    H147039   2.471   2.531   1.830  0.7214 -3.3914  1.2957
 8516TIP3    H247040   2.595   2.592   1.891 -0.4085  0.3084  0.1817
 8517TIP3   OH247041   0.793   2.778  35.506 -0.6926  0.7967 -0.5064
 8517TIP3    H147042   0.865   2.819  35.553 -0.2891  0.6920 -1.0218
 8517TIP3    H247043   0.828   2.695  35.475 -1.5097  0.0356  0.5380
 8518TIP3   OH247044   3.978   0.239  38.852  0.0375  0.1002  0.6178
 8518TIP3    H147045   3.894   0.286  38.848 -0.6555 -0.6524  3.7065
 8518TIP3    H247046   3.970   0.171  38.784 -1.3203  0.8157  0.0143
 8519TIP3   OH247047   4.064   3.028   6.072 -0.0214 -0.2073 -0.6741
 8519TIP3    H147048   4.089   3.030   6.164  1.5990  2.0683 -1.0717
 8519TIP3    H247049   3.976   3.067   6.071 -0.4513 -1.1330 -0.0180
 8520TIP3   OH247050   1.367   1.932  19.003 -0.1305  0.0708 -0.5356
 8520TIP3    H147051   1.373   1.998  19.071 -2.3465 -0.4651  0.2539
 8520TIP3    H247052   1.433   1.958  18.938 -0.6239  2.7963 -0.0627
 8521TIP3   OH247053   2.595   1.536   4.349 -0.0865 -0.1045 -0.2175
 8521TIP3    H147054   2.676   1.494   4.319  0.9195  0.6233  1.3349
 8521TIP3    H247055   2.604   1.628   4.322 -0.2472  0.0480  0.2435
 8522TIP3   OH247056   1.024   2.124  37.998 -0.0539 -0.0092  0.2389
 8522TIP3    H147057   0.985   2.114  38.085 -2.4557  1.0900 -0.6229
 8522TIP3    H247058   1.105   2.172  38.014 -0.5211  0.3128  1.8638
 8523TIP3   OH247059   1.565   1.728   5.219  0.2978  0.4405  0.1006
 8523TIP3    H147060   1.485   1.690   5.183 -0.0389  0.8195  0.4484
 8523TIP3    H247061   1.628   1.724   5.147  0.3735 -1.0870  0.2155
 8524TIP3   OH247062   1.352   0.802   1.146  0.6697 -0.4453  0.3794
 8524TIP3    H147063   1.380   0.829   1.234 -1.9332  1.8808  0.6281
 8524TIP3    H247064   1.256   0.806   1.149  0.4352 -2.3703 -1.9944
 8525TIP3   OH247065   3.803   2.228   8.998  0.0306  0.0554  0.0136
 8525TIP3    H147066   3.817   2.139   8.967 -0.8045 -0.1681  0.2646
 8525TIP3    H247067   3.758   2.272   8.926  0.9007  0.4331 -0.3167
 8526TIP3   OH247068   0.260   0.656   3.157  0.0709 -0.7095  0.3232
 8526TIP3    H147069   0.183   0.711   3.144  0.5403 -0.2086 -0.4587
 8526TIP3    H247070   0.239   0.601   3.232 -0.8428 -0.2238  0.4294
 8527TIP3   OH247071   2.884   0.370  36.836  0.1461  0.1461  0.0688
 8527TIP3    H147072   2.929   0.338  36.758  0.8143 -0.1848  0.5837
 8527TIP3    H247073   2.791   0.364  36.814  0.2669 -1.5756 -0.0749
 8528TIP3   OH247074   1.838   1.299   2.040  0.2770  0.2546  0.4507
 8528TIP3    H147075   1.753   1.343   2.043  0.9500  1.6001  0.5255
 8528TIP3    H247076   1.825   1.219   2.092 -1.7125 -1.0336 -1.7916
 8529TIP3   OH247077   2.403   3.802  41.323 -0.5991  0.2930 -0.0256
 8529TIP3    H147078   2.484   3.852  41.317 -1.1758  1.4710  1.3227
 8529TIP3    H247079   2.335   3.862  41.293 -1.0269 -0.5991 -0.9077
 8530TIP3   OH247080   0.545   3.507  45.878  0.0312  0.4425  0.2300
 8530TIP3    H147081   0.450   3.513  45.871 -0.0357 -1.6652 -2.0481
 8530TIP3    H247082   0.574   3.596  45.898 -2.3775  1.1719  0.7121
 8531TIP3   OH247083   1.122   3.089   8.096 -0.0043  0.2482  0.0280
 8531TIP3    H147084   1.040   3.069   8.050  0.1211  0.9198 -0.5110
 8531TIP3    H247085   1.095   3.108   8.186 -0.4340  0.3594 -0.1198
 8532TIP3   OH247086   3.632   3.662  43.286 -0.1151  0.3405 -0.0429
 8532TIP3    H147087   3.699   3.601  43.317 -0.9758 -0.8042 -0.3484
 8532TIP3    H247088   3.553   3.609  43.278 -0.3400  0.9135 -2.6301
 8533TIP3   OH247089   4.080   0.860   2.523 -0.6326 -0.0078  0.6024
 8533TIP3    H147090   4.035   0.793   2.472  1.1873 -1.1359  0.3703
 8533TIP3    H247091   4.092   0.820   2.610 -1.2797  0.8219  1.0923
 8534TIP3   OH247092   2.843   3.710  26.652 -0.2986  0.2172 -0.4930
 8534TIP3    H147093   2.829   3.634  26.709 -0.2783 -0.0642 -0.8605
 8534TIP3    H247094   2.828   3.676  26.564  0.6604  0.4041 -0.7369
 8535TIP3   OH247095   2.329   3.635  42.605 -0.0806 -0.0312  0.6090
 8535TIP3    H147096   2.241   3.647  42.569  0.0636  0.8470  0.5346
 8535TIP3    H247097   2.373   3.719  42.592  0.4758 -0.1672  1.4601
 8536TIP3   OH247098   0.882   2.883  12.250 -0.1576 -0.2137  0.1018
 8536TIP3    H147099   0.965   2.891  12.203 -0.5608 -0.1461 -0.6095
 8536TIP3    H247100   0.859   2.790  12.241  0.2335 -0.4040  0.9844
 8537TIP3   OH247101   1.813   2.028  37.552  0.2079 -0.3161 -0.6853
 8537TIP3    H147102   1.744   1.963  37.566  0.8340 -0.8626 -0.0443
 8537TIP3    H247103   1.890   1.976  37.530  0.7429  0.1894 -0.0522
 8538TIP3   OH247104   0.028   1.140  47.229  0.2386 -0.2878 -0.9328
 8538TIP3    H147105  -0.047   1.164  47.284  0.0348  0.1874 -1.4125
 8538TIP3    H247106   0.064   1.062  47.271 -0.6435 -0.6417 -0.8090
 8539TIP3   OH247107   1.880   2.615  13.452 -0.3324  0.3721 -0.4248
 8539TIP3    H147108   1.797   2.615  13.404 -1.7068  2.0272  1.7552
 8539TIP3    H247109   1.894   2.523  13.476 -2.1895  0.2115  0.1907
 8540TIP3   OH247110   0.839   0.180  40.634  0.0162  0.1092 -0.2691
 8540TIP3    H147111   0.842   0.164  40.728  0.2177  1.6478  0.0158
 8540TIP3    H247112   0.769   0.124  40.602  1.2586 -1.9573  0.4451
 8541TIP3   OH247113   1.084   2.190   3.927  0.1682 -0.2480 -0.5565
 8541TIP3    H147114   1.048   2.279   3.929  0.5351  0.0378 -3.1723
 8541TIP3    H247115   1.179   2.202   3.930  0.2246 -0.7336  1.1624
 8542TIP3   OH247116   1.615   3.249  43.542  0.0799 -0.0586  0.4840
 8542TIP3    H147117   1.585   3.161  43.522  1.9985 -0.5811 -0.3329
 8542TIP3    H247118   1.549   3.307  43.504 -1.2420 -1.1042  1.0998
 8543TIP3   OH247119   2.911   2.666  15.550  0.0201  0.3332  0.1820
 8543TIP3    H147120   2.990   2.715  15.575 -0.1667  0.3896  0.6738
 8543TIP3    H247121   2.849   2.733  15.522  0.7552  0.1880 -2.0350
 8544TIP3   OH247122   2.394   1.991  41.525  0.4357 -0.2472  0.0835
 8544TIP3    H147123   2.410   1.925  41.592  1.5111  1.2825  1.4179
 8544TIP3    H247124   2.456   2.061  41.546 -0.3373  0.9779 -1.5520
 8545TIP3   OH247125   3.861   1.810  38.465 -0.3746  0.1828  0.3439
 8545TIP3    H147126   3.863   1.866  38.543 -1.7643 -1.3775  1.6012
 8545TIP3    H247127   3.927   1.743  38.483 -1.3497 -0.7178  0.6539
 8546TIP3   OH247128   2.533   4.000  44.072 -0.8598 -0.2065 -0.6958
 8546TIP3    H147129   2.601   3.970  44.012 -0.8251  0.9446 -1.2696
 8546TIP3    H247130   2.534   4.096  44.063 -1.8028 -0.1030  0.1070
 8547TIP3   OH247131   2.139   0.502  46.621  0.2286 -0.5522 -0.1230
 8547TIP3    H147132   2.194   0.513  46.699 -0.0898  0.1231  0.0152
 8547TIP3    H247133   2.074   0.436  46.647 -2.3724  2.4561  1.6258
 8548TIP3   OH247134   3.702   3.027  30.982  0.4964  0.0549 -0.3551
 8548TIP3    H147135   3.720   2.982  31.065 -1.0384  1.9275  1.1025
 8548TIP3    H247136   3.606   3.032  30.979  0.5859  2.3759 -0.8755
 8549TIP3   OH247137   1.582   2.185  47.123  0.3433  0.3230  0.3820
 8549TIP3    H147138   1.658   2.148  47.168 -0.0881 -1.5420 -0.3395
 8549TIP3    H247139   1.507   2.154  47.173 -0.0298  0.2149 -0.2305
 8550TIP3   OH247140   2.560   0.868   1.129  0.0025  0.1352  0.2620
 8550TIP3    H147141   2.641   0.890   1.083  0.2821  0.1412  0.7440
 8550TIP3    H247142   2.491   0.910   1.078  0.5474  2.5735  1.3534
 8551TIP3   OH247143   2.060   1.730  45.193  0.3259  0.5049  1.0254
 8551TIP3    H147144   2.103   1.693  45.270  1.6604 -0.7031 -0.2427
 8551TIP3    H247145   2.110   1.808  45.171  1.3957 -0.4166  0.0691
 8552TIP3   OH247146   1.821   2.381  14.773  0.1466 -0.5053  0.1704
 8552TIP3    H147147   1.756   2.433  14.726  0.5108 -0.3259 -0.1487
 8552TIP3    H247148   1.903   2.430  14.761 -0.0628  0.5640  2.5760
 8553TIP3   OH247149   2.266   1.258  45.678  0.4496  0.5927 -0.3119
 8553TIP3    H147150   2.230   1.337  45.718  1.5705  0.0655  1.8710
 8553TIP3    H247151   2.356   1.283  45.654 -0.2500  0.9580 -2.8110
 8554TIP3   OH247152   1.520   3.961   8.237  0.7549  0.4986 -0.2502
 8554TIP3    H147153   1.436   3.983   8.197  0.1902  0.6994  0.9849
 8554TIP3    H247154   1.564   3.906   8.173 -1.1319 -1.2100 -0.1591
 8555TIP3   OH247155   2.525   3.791   2.018 -0.6226 -0.3322 -0.2423
 8555TIP3    H147156   2.464   3.756   1.953  1.0121 -1.5946 -1.1761
 8555TIP3    H247157   2.567   3.865   1.973 -1.0306  0.1807  0.1997
 8556TIP3   OH247158   0.400   2.103   5.280  0.1100  0.1707 -0.2740
 8556TIP3    H147159   0.490   2.099   5.249 -0.5047 -1.3496 -2.0520
 8556TIP3    H247160   0.382   2.197   5.290  1.9377  0.4953  0.3882
 8557TIP3   OH247161   2.643   3.735  45.845  0.1623  0.0305 -0.0413
 8557TIP3    H147162   2.646   3.806  45.909 -0.9949  0.1266 -0.0644
 8557TIP3    H247163   2.734   3.723  45.818  0.4741  1.0026  0.5131
 8558TIP3   OH247164   1.781   3.249   6.292 -0.1328  0.0020  0.3590
 8558TIP3    H147165   1.837   3.314   6.248 -0.4317  0.6191  0.8705
 8558TIP3    H247166   1.811   3.165   6.259  2.6618  0.1122  2.2966
 8559TIP3   OH247167   2.172   3.313  36.564  0.0771 -0.5744 -0.3898
 8559TIP3    H147168   2.237   3.382  36.576 -0.2126 -0.3259 -0.2489
 8559TIP3    H247169   2.223   3.233  36.554  0.3913 -0.4362  0.1063
 8560TIP3   OH247170   3.318   3.556  25.736  0.4566 -0.0935 -0.7521
 8560TIP3    H147171   3.307   3.466  25.766 -0.2155 -0.4957 -2.1275
 8560TIP3    H247172   3.270   3.560  25.653  0.0690  1.6672 -0.4777
 8561TIP3   OH247173   2.059   2.532  13.796  0.0257 -0.9191  0.0112
 8561TIP3    H147174   2.011   2.451  13.782  0.9424 -1.4663 -0.0506
 8561TIP3    H247175   2.099   2.551  13.711 -1.7860  0.7111 -0.5654
 8562TIP3   OH247176   0.702   2.966   3.851 -0.0721 -0.5946  0.3007
 8562TIP3    H147177   0.754   3.042   3.881 -0.4289 -0.0945 -0.3378
 8562TIP3    H247178   0.648   2.944   3.927 -1.0723  0.7559  0.0183
 8563TIP3   OH247179   0.770   2.081   3.839  0.3500 -0.5243 -0.2276
 8563TIP3    H147180   0.746   2.064   3.748  0.1237  0.9260 -0.4712
 8563TIP3    H247181   0.692   2.124   3.877 -0.1165 -2.4259  1.0893
 8564TIP3   OH247182   0.167   2.093  10.000 -0.4523 -0.1132 -0.3554
 8564TIP3    H147183   0.173   2.169   9.943  0.5940  0.4010  0.4208
 8564TIP3    H247184   0.075   2.090  10.026 -0.7926  0.0519 -1.4881
 8565TIP3   OH247185   2.357   3.976  11.751  0.6368  0.2398 -0.0572
 8565TIP3    H147186   2.442   4.010  11.779  1.1654 -0.5083 -0.7333
 8565TIP3    H247187   2.367   3.961  11.657  0.4905 -1.9804  0.2476
 8566TIP3   OH247188   3.633   2.562  15.422  0.1194 -0.3042 -0.2860
 8566TIP3    H147189   3.642   2.656  15.437  0.4455 -0.3578 -0.1358
 8566TIP3    H247190   3.623   2.553  15.328 -0.5637 -0.0677 -0.2401
 8567TIP3   OH247191   2.666   3.153   2.249 -0.3430 -0.6659  0.3169
 8567TIP3    H147192   2.645   3.227   2.306 -0.3930 -0.5985  0.2115
 8567TIP3    H247193   2.759   3.135   2.266 -0.7349 -1.6743  1.6039
 8568TIP3   OH247194   3.248   2.791   4.714  1.1755  0.0320 -0.4036
 8568TIP3    H147195   3.190   2.756   4.782  0.7764 -1.2306 -1.3701
 8568TIP3    H247196   3.334   2.794   4.756  0.5557  1.4267  0.8754
 8569TIP3   OH247197   1.722   2.353  39.369 -0.1040 -0.1311 -0.3642
 8569TIP3    H147198   1.749   2.403  39.446  0.5491 -0.9265 -0.0640
 8569TIP3    H247199   1.750   2.407  39.295 -0.2696  0.3938 -0.0595
 8570TIP3   OH247200   3.900   1.964   5.978  0.1621 -0.2571  0.3968
 8570TIP3    H147201   3.867   2.052   5.961 -0.1331 -0.2117  1.2020
 8570TIP3    H247202   3.994   1.970   5.960 -0.0592 -0.1176 -0.8251
 8571TIP3   OH247203   4.081   2.576   7.365 -0.2672 -0.4164  0.1723
 8571TIP3    H147204   4.022   2.621   7.304 -0.4813  0.4007  0.9548
 8571TIP3    H247205   4.161   2.629   7.364 -0.3523 -0.2682  0.7564
 8572TIP3   OH247206   2.499   3.213  45.118  0.2487  0.2105 -0.2962
 8572TIP3    H147207   2.531   3.234  45.205  1.1350 -2.1252  0.0346
 8572TIP3    H247208   2.570   3.239  45.059  1.1200 -1.2429  0.0520
 8573TIP3   OH247209   0.474   3.306  11.461 -0.0734  0.4824  0.7341
 8573TIP3    H147210   0.391   3.280  11.421 -0.3476  0.9412  1.0046
 8573TIP3    H247211   0.540   3.253  11.416 -0.4852  0.2990  0.3462
 8574TIP3   OH247212   0.089   0.162  25.993 -0.2208 -0.4064 -0.1349
 8574TIP3    H147213   0.066   0.256  25.989 -0.5736 -0.5175 -1.7900
 8574TIP3    H247214   0.159   0.152  25.928 -2.7152 -1.8683 -2.8784
 8575TIP3   OH247215   3.317   2.162   5.687  0.4323 -0.3868  0.2523
 8575TIP3    H147216   3.290   2.175   5.596  0.8723  0.8813  0.2745
 8575TIP3    H247217   3.251   2.210   5.738  1.6588  1.2357  0.4050
 8576TIP3   OH247218   1.436   2.032  33.127  0.1866  0.4904 -0.2454
 8576TIP3    H147219   1.427   2.114  33.176  0.3783  1.2599 -1.4298
 8576TIP3    H247220   1.421   2.058  33.036 -1.0611 -1.0357 -0.5281
 8577TIP3   OH247221   0.252   1.148  39.818 -0.2747 -0.1627  0.2551
 8577TIP3    H147222   0.207   1.187  39.743 -1.7195  0.1867  1.2647
 8577TIP3    H247223   0.255   1.218  39.883  1.8822 -0.1401  0.1976
 8578TIP3   OH247224   1.349   0.845   5.819 -0.0724 -0.0819 -0.1989
 8578TIP3    H147225   1.315   0.885   5.899  2.3471 -0.5870  1.1506
 8578TIP3    H247226   1.366   0.754   5.843 -1.3780 -0.8552 -1.9711
 8579TIP3   OH247227   3.002   3.947   7.992  0.1634 -0.2871 -0.0168
 8579TIP3    H147228   2.955   3.909   7.917 -1.1571  1.5241 -0.1891
 8579TIP3    H247229   3.050   4.022   7.955 -0.5657  0.6781  0.9148
 8580TIP3   OH247230   4.026   3.287  32.060  0.4877 -0.4185  0.1501
 8580TIP3    H147231   3.949   3.242  32.096  1.3600 -0.7541  1.6392
 8580TIP3    H247232   4.030   3.370  32.107  0.2069  0.2522 -0.9766
 8581TIP3   OH247233   2.466   2.085   5.415 -0.0667 -0.4963 -0.2439
 8581TIP3    H147234   2.435   2.171   5.385 -0.1875 -0.5769 -0.3501
 8581TIP3    H247235   2.545   2.105   5.465 -1.4856 -0.0368  1.9915
 8582TIP3   OH247236   0.070   1.976  19.668  0.6594  0.3749 -0.0230
 8582TIP3    H147237   0.101   1.886  19.655  1.6109  0.6699  0.1039
 8582TIP3    H247238   0.128   2.011  19.736 -0.9586  0.4830  1.3706
 8583TIP3   OH247239   1.855   3.165  11.869  0.3410 -0.6977  0.3193
 8583TIP3    H147240   1.919   3.231  11.842 -0.1871  0.5198  1.8688
 8583TIP3    H247241   1.828   3.122  11.788  2.2412 -0.4420 -0.4908
 8584TIP3   OH247242   0.853   2.081  37.228  0.4984 -0.1541 -0.2942
 8584TIP3    H147243   0.870   2.099  37.320 -3.0127 -0.3708  0.5201
 8584TIP3    H247244   0.856   2.167  37.186  3.0440 -0.1511 -0.2581
 8585TIP3   OH247245   1.657   2.526  34.807  0.9173 -0.5074  0.0364
 8585TIP3    H147246   1.626   2.538  34.897 -0.2112  2.3025 -0.6064
 8585TIP3    H247247   1.623   2.603  34.760  0.0615 -2.6591 -3.1980
 8586TIP3   OH247248   1.724   3.195  40.613  0.0838  0.3331 -0.0551
 8586TIP3    H147249   1.678   3.164  40.691 -0.2404 -0.2777 -0.4824
 8586TIP3    H247250   1.816   3.199  40.640  0.1490 -1.0654  0.0120
 8587TIP3   OH247251   0.934   0.104  47.681  0.4160  0.8319  0.5917
 8587TIP3    H147252   0.951   0.158  47.603 -0.1710  0.1114 -0.0557
 8587TIP3    H247253   0.919   0.167  47.751 -0.5777  1.5355 -0.2145
 8588TIP3   OH247254   2.102   1.414  11.486 -0.2742  0.6798  0.3661
 8588TIP3    H147255   2.192   1.438  11.466  0.7539 -0.6314  2.8757
 8588TIP3    H247256   2.094   1.324  11.455 -0.6125  0.6896  0.4204
 8589TIP3   OH247257   2.450   3.224  34.129 -0.2703  0.1232  0.1550
 8589TIP3    H147258   2.412   3.228  34.042 -0.6233 -2.5660  0.0935
 8589TIP3    H247259   2.402   3.289  34.180  0.6842  2.5496 -1.8413
 8590TIP3   OH247260   3.535   3.955  34.972 -0.1384  0.0626  0.7021
 8590TIP3    H147261   3.459   3.905  34.943  1.5562 -0.6168 -3.2767
 8590TIP3    H247262   3.595   3.889  35.006  0.4656 -0.1292 -0.6598
 8591TIP3   OH247263   0.083   1.990   2.412  0.1077  0.1646  0.2548
 8591TIP3    H147264   0.010   1.953   2.461  0.0674  1.3154  1.1042
 8591TIP3    H247265   0.138   2.032   2.478  1.0967  0.0506 -0.4726
 8592TIP3   OH247266   0.227   3.275  31.988 -0.0773 -0.1843  0.4849
 8592TIP3    H147267   0.264   3.244  31.905 -1.2130  1.1530 -0.5663
 8592TIP3    H247268   0.290   3.340  32.019 -0.2353  0.1837  0.0446
 8593TIP3   OH247269   1.870   3.482  41.072  0.0531  0.1696 -0.0394
 8593TIP3    H147270   1.883   3.570  41.108  1.6437 -0.6900  1.6092
 8593TIP3    H247271   1.779   3.461  41.093 -0.7983  1.8804 -1.6555
 8594TIP3   OH247272   0.743   2.184   5.419  0.1498  0.5943  0.0797
 8594TIP3    H147273   0.826   2.231   5.416  0.8160 -0.5555 -0.0605
 8594TIP3    H247274   0.740   2.134   5.337 -1.4870  1.9278 -0.7309
 8595TIP3   OH247275   0.852   3.354  46.573 -0.0693 -0.0556  0.4619
 8595TIP3    H147276   0.926   3.300  46.600  0.8932  1.1976  0.4040
 8595TIP3    H247277   0.807   3.376  46.655 -1.4901 -2.2709  0.3763
 8596TIP3   OH247278   0.043   3.928  13.498  0.0779  0.4656  0.0361
 8596TIP3    H147279   0.032   3.935  13.403  0.2782  2.4407  0.1310
 8596TIP3    H247280   0.071   4.015  13.526  3.6197 -0.9388  1.4339
 8597TIP3   OH247281   3.312   3.316   7.469 -0.1152 -0.4749 -0.9365
 8597TIP3    H147282   3.369   3.333   7.394  0.3373  0.8724 -0.3263
 8597TIP3    H247283   3.258   3.394   7.476  0.5366 -0.1175  0.7177
 8598TIP3   OH247284   0.180   3.573  45.362 -0.3085  0.5458 -0.1895
 8598TIP3    H147285   0.224   3.617  45.289  0.8000  2.0586  1.3053
 8598TIP3    H247286   0.217   3.485  45.362 -0.2111  0.5725 -1.3538
 8599TIP3   OH247287   1.562   3.940   6.405 -0.1139  0.2735 -0.1184
 8599TIP3    H147288   1.624   3.958   6.334  0.3631  0.8730  0.4369
 8599TIP3    H247289   1.606   3.877   6.461 -1.3978 -2.0426 -1.5295
 8600TIP3   OH247290   0.944   2.929   5.287  0.4838  0.4436  0.2557
 8600TIP3    H147291   1.006   2.873   5.241  1.0001  0.9894  0.2665
 8600TIP3    H247292   0.858   2.893   5.267  0.8155 -0.4290  0.3849
 8601TIP3   OH247293   3.122   0.897   6.019  0.5176  0.0398  0.4993
 8601TIP3    H147294   3.098   0.810   5.990  0.6580 -0.2204  1.1398
 8601TIP3    H247295   3.207   0.914   5.979  0.0706  0.2685 -0.3789
 8602TIP3   OH247296   3.293   3.551  45.790  0.0082  0.0516 -0.1334
 8602TIP3    H147297   3.298   3.646  45.797  0.2582  0.1441 -1.3566
 8602TIP3    H247298   3.269   3.522  45.878 -0.9011  1.2978  0.0632
 8603TIP3   OH247299   2.411   4.018  46.942  0.2560 -0.4133  0.4173
 8603TIP3    H147300   2.324   4.052  46.923  0.2705 -0.5361  0.1243
 8603TIP3    H247301   2.468   4.095  46.943  0.4957 -0.5173 -1.4101
 8604TIP3   OH247302   0.300   3.738  43.910  0.4474  0.2114 -0.2371
 8604TIP3    H147303   0.304   3.830  43.936 -0.2975  0.1605  0.0681
 8604TIP3    H247304   0.290   3.740  43.815 -1.9647  0.5184 -0.0353
 8605TIP3   OH247305   0.738   2.652  12.068  0.4548 -0.2990 -0.2054
 8605TIP3    H147306   0.799   2.580  12.049  1.7217  0.6363  0.1894
 8605TIP3    H247307   0.721   2.692  11.983  0.5179 -0.4624 -0.2959
 8606TIP3   OH247308   1.467   2.567  40.839 -1.1062  0.2009 -0.3643
 8606TIP3    H147309   1.453   2.620  40.917  0.0241  0.2804 -0.2076
 8606TIP3    H247310   1.467   2.477  40.871  0.0895  0.2696 -0.1544
 8607TIP3   OH247311   0.708   1.318  35.018  0.0942 -0.1162  0.0260
 8607TIP3    H147312   0.779   1.349  34.961 -0.4679 -0.2421 -0.7619
 8607TIP3    H247313   0.629   1.331  34.966 -0.4276 -0.2890  0.7676
 8608TIP3   OH247314   3.405   0.430   4.853  0.3251  0.1293  0.3486
 8608TIP3    H147315   3.423   0.515   4.813 -0.8662  0.5538  0.6746
 8608TIP3    H247316   3.492   0.395   4.876  0.8196  1.2383  0.2049
 8609TIP3   OH247317   2.634   1.773  38.022 -0.3508 -0.0953 -0.4020
 8609TIP3    H147318   2.541   1.777  38.047 -0.8295 -1.4429 -1.8402
 8609TIP3    H247319   2.637   1.809  37.933  0.9513  2.3237  0.5129
 8610TIP3   OH247320   0.179   1.844   1.702 -0.2032 -0.2081 -0.0314
 8610TIP3    H147321   0.267   1.832   1.666 -0.3172 -0.0932 -0.3547
 8610TIP3    H247322   0.192   1.903   1.776  0.3507 -2.2492  1.5642
 8611TIP3   OH247323   2.954   3.155  37.471 -0.4249 -0.0545  0.1326
 8611TIP3    H147324   3.010   3.182  37.544  0.2962 -0.7201 -0.1667
 8611TIP3    H247325   2.868   3.193  37.492  0.0823  0.8238  0.6887
 8612TIP3   OH247326   0.973   3.447   4.643  0.2633  0.3520 -0.0492
 8612TIP3    H147327   0.971   3.392   4.565 -0.6821 -1.2725  1.0589
 8612TIP3    H247328   1.013   3.529   4.614 -0.2967 -0.1078 -2.2764
 8613TIP3   OH247329   0.518   0.257  34.416  0.8731  0.8326 -0.2497
 8613TIP3    H147330   0.555   0.221  34.335  1.5024 -0.9150  0.7563
 8613TIP3    H247331   0.550   0.347  34.419  2.5201  0.3147 -0.9730
 8614TIP3   OH247332   2.131   3.684  12.608  0.4471  0.1658  0.0808
 8614TIP3    H147333   2.051   3.645  12.574  0.7855  0.8218 -1.5664
 8614TIP3    H247334   2.199   3.620  12.589  0.6639  0.6066 -0.6850
 8615TIP3   OH247335   3.876   2.358  32.857  0.4113 -0.2451 -0.6122
 8615TIP3    H147336   3.848   2.286  32.913 -0.3299 -0.5293 -1.3184
 8615TIP3    H247337   3.919   2.315  32.783 -2.1831 -0.1687 -2.2697
 8616TIP3   OH247338   2.719   1.285  36.458 -0.3807  0.5602  0.1108
 8616TIP3    H147339   2.658   1.226  36.414 -0.2503  1.4696 -1.3532
 8616TIP3    H247340   2.663   1.354  36.494 -0.2742  1.3171 -1.1076
 8617TIP3   OH247341   1.048   3.009  41.557 -0.0977  0.2775  0.1039
 8617TIP3    H147342   1.046   2.983  41.649 -0.7088 -1.9500 -0.4713
 8617TIP3    H247343   0.989   3.084  41.551 -0.8186 -0.1654  1.3691
 8618TIP3   OH247344   1.617   2.636   2.113  0.6166 -0.1459 -0.3647
 8618TIP3    H147345   1.561   2.618   2.037 -1.4629 -0.8228  1.2170
 8618TIP3    H247346   1.621   2.731   2.118 -0.9021 -0.0587 -0.2291
 8619TIP3   OH247347   3.606   1.698  33.052  0.2150  0.1355  0.1062
 8619TIP3    H147348   3.573   1.670  32.967  1.4878 -0.9518 -0.0499
 8619TIP3    H247349   3.555   1.648  33.115  1.1403 -1.1081 -0.1133
 8620TIP3   OH247350   0.426   1.580  42.563 -0.5359  0.2920 -0.1560
 8620TIP3    H147351   0.462   1.618  42.483  0.4715 -0.4925 -0.0925
 8620TIP3    H247352   0.459   1.490  42.564 -0.8977  0.1565  0.9230
 8621TIP3   OH247353   0.658   1.713  18.618 -0.1604 -0.1395  0.3444
 8621TIP3    H147354   0.713   1.696  18.695 -0.5834  0.3556  0.7563
 8621TIP3    H247355   0.569   1.695  18.648 -0.2927 -0.3020 -0.1399
 8622TIP3   OH247356   2.191   2.398   7.101  0.6594  0.1606 -0.3765
 8622TIP3    H147357   2.180   2.488   7.131  1.3266  0.8547 -2.1295
 8622TIP3    H247358   2.285   2.383   7.106  0.3396 -1.6886  3.2047
 8623TIP3   OH247359   2.620   0.701  39.935  0.5497 -0.3012 -0.1597
 8623TIP3    H147360   2.633   0.795  39.933 -0.9101 -0.0415  0.7952
 8623TIP3    H247361   2.630   0.677  40.027  2.1222 -1.2959 -0.5601
 8624TIP3   OH247362   1.503   0.467  38.247 -0.3304 -0.2831  0.1583
 8624TIP3    H147363   1.558   0.423  38.312  1.2847  0.3840 -0.6915
 8624TIP3    H247364   1.483   0.399  38.182 -1.8153 -0.9101  1.2159
 8625TIP3   OH247365   1.184   0.005   8.794  0.1034  0.0950 -0.6911
 8625TIP3    H147366   1.246  -0.055   8.753 -0.2394 -0.7113 -0.0446
 8625TIP3    H247367   1.222   0.092   8.781  1.6721 -0.4254  0.2272
 8626TIP3   OH247368   3.573   3.189  32.672  0.5012  0.6417 -0.2176
 8626TIP3    H147369   3.553   3.097  32.689 -0.5259  1.0074  0.6543
 8626TIP3    H247370   3.663   3.201  32.703 -0.0110  0.3682  1.4537
 8627TIP3   OH247371   2.324   0.207  39.619  0.2485  0.1867  0.0374
 8627TIP3    H147372   2.412   0.228  39.652  0.0662 -0.0345  0.6852
 8627TIP3    H247373   2.266   0.267  39.666 -0.0022 -0.0230 -0.0016
 8628TIP3   OH247374   2.759   1.211  14.281 -0.4089  0.8477  0.3854
 8628TIP3    H147375   2.774   1.128  14.236 -0.3256 -0.2939  2.3792
 8628TIP3    H247376   2.768   1.278  14.213 -0.5200 -0.7660 -1.2836
 8629TIP3   OH247377   3.140   3.067  38.039  0.0367 -0.0388 -0.1308
 8629TIP3    H147378   3.135   3.038  37.948 -1.5528 -0.1565 -0.0389
 8629TIP3    H247379   3.204   3.138  38.038 -0.8170  0.7798 -1.5835
 8630TIP3   OH247380   0.073   1.139   0.655  0.3142  0.2511  0.0505
 8630TIP3    H147381   0.087   1.204   0.724 -0.6047  0.5920 -0.0804
 8630TIP3    H247382  -0.016   1.108   0.668  0.9136 -1.4542  0.4879
 8631TIP3   OH247383   1.631   3.817  39.920 -0.1150  0.1677  0.2955
 8631TIP3    H147384   1.667   3.813  40.009  0.4171 -1.4119  0.0344
 8631TIP3    H247385   1.541   3.787  39.930  0.2892 -1.1441  0.1521
 8632TIP3   OH247386   2.552   2.848  45.860 -0.5420 -0.1635  0.0293
 8632TIP3    H147387   2.519   2.935  45.879  0.3203  0.0601  0.5585
 8632TIP3    H247388   2.645   2.852  45.882 -0.1061 -0.7203 -1.6205
 8633TIP3   OH247389   1.045   1.528  40.352  0.6177  0.0792 -0.1862
 8633TIP3    H147390   1.091   1.579  40.419  0.7584 -1.3361  0.8408
 8633TIP3    H247391   0.956   1.520  40.385  0.2936  0.5973 -0.9034
 8634TIP3   OH247392   0.199   3.226  46.925 -0.0613  0.3412  0.3145
 8634TIP3    H147393   0.116   3.194  46.890  0.4521  0.3834 -0.9986
 8634TIP3    H247394   0.200   3.319  46.903  0.1767  0.4159  0.6405
 8635TIP3   OH247395   2.914   3.972  36.702  0.1712  0.7334 -0.0213
 8635TIP3    H147396   3.006   3.986  36.726 -0.1204  0.3734  1.3879
 8635TIP3    H247397   2.870   3.955  36.785 -0.6064 -2.4344 -0.9517
 8636TIP3   OH247398   0.217   0.015   3.578 -0.1389 -0.1269 -0.0158
 8636TIP3    H147399   0.227  -0.022   3.665  0.8348  1.9342  0.7997
 8636TIP3    H247400   0.144   0.077   3.586 -1.7126 -1.6545 -1.3472
 8637TIP3   OH247401   0.137   3.751   9.063  0.1563  0.6493  0.2721
 8637TIP3    H147402   0.067   3.815   9.046  1.5762  2.5296  1.0928
 8637TIP3    H247403   0.163   3.767   9.154  0.6344 -1.0835  0.4821
 8638TIP3   OH247404   2.625   0.332  31.760  0.2352  0.4804  0.3074
 8638TIP3    H147405   2.624   0.237  31.777  0.1204  0.0699 -1.7784
 8638TIP3    H247406   2.600   0.371  31.844  0.4483 -1.3153  1.2687
 8639TIP3   OH247407   2.527   1.999  34.057 -0.2010  0.3261  0.3595
 8639TIP3    H147408   2.511   2.091  34.079 -0.5983  0.3735 -0.1245
 8639TIP3    H247409   2.458   1.951  34.103 -0.4831  0.3462 -0.0357
 8640TIP3   OH247410   0.344   0.585   3.936 -0.5454 -0.4557  0.4980
 8640TIP3    H147411   0.429   0.551   3.907 -1.3460 -2.7742  0.6518
 8640TIP3    H247412   0.285   0.567   3.863 -1.1864 -0.1032  0.9193
 8641TIP3   OH247413   2.154   3.000  13.079  0.1682 -0.7133 -0.0033
 8641TIP3    H147414   2.206   2.929  13.042 -0.8737 -1.9135  0.7528
 8641TIP3    H247415   2.102   3.033  13.006 -1.6737 -2.8815  0.1863
 8642TIP3   OH247416   3.046   3.428   3.132  0.5036 -0.6457 -0.8983
 8642TIP3    H147417   2.999   3.345   3.131 -0.0588 -0.3548 -0.1682
 8642TIP3    H247418   3.071   3.440   3.223 -2.3894  1.5598 -0.2445
 8643TIP3   OH247419   2.821   2.083  15.287  0.3553  0.4767  0.2596
 8643TIP3    H147420   2.770   2.034  15.222  0.4763  1.2977 -0.4639
 8643TIP3    H247421   2.758   2.142  15.328  0.2829 -0.0247  0.8913
 8644TIP3   OH247422   3.837   0.688   1.436 -0.0971  0.1725  0.0125
 8644TIP3    H147423   3.830   0.696   1.531 -0.5596 -1.0832  0.1036
 8644TIP3    H247424   3.930   0.675   1.420 -0.1874 -1.2164  0.4589
 8645TIP3   OH247425   0.973   4.053  31.630  0.0953 -0.4445  0.0250
 8645TIP3    H147426   1.058   4.040  31.588  0.7259  0.8765  0.8406
 8645TIP3    H247427   0.911   4.056  31.558  0.9477  0.1376 -0.7080
 8646TIP3   OH247428   3.718   1.217  16.378 -0.4084 -0.4496  0.1516
 8646TIP3    H147429   3.644   1.218  16.439  0.1466  0.6055  0.8382
 8646TIP3    H247430   3.781   1.158  16.419 -0.5900 -0.8336 -0.1098
 8647TIP3   OH247431   3.931   1.761  16.313  0.1168 -0.0586 -0.2567
 8647TIP3    H147432   3.954   1.819  16.386 -1.2689  0.4119 -0.1561
 8647TIP3    H247433   4.011   1.752  16.262  1.3420 -0.9997  1.7255
 8648TIP3   OH247434   3.219   1.499   2.251 -0.5897 -0.2164 -0.9183
 8648TIP3    H147435   3.135   1.519   2.210 -0.8459 -0.2789 -0.4404
 8648TIP3    H247436   3.219   1.404   2.261  0.1275 -0.3561 -2.1365
 8649TIP3   OH247437   1.211   0.450  38.063  0.2181  0.2096 -0.4130
 8649TIP3    H147438   1.259   0.532  38.077 -0.2078  0.1828  1.4519
 8649TIP3    H247439   1.276   0.389  38.030  1.7454 -0.0029  2.6302
 8650TIP3   OH247440   1.510   3.111  31.681 -0.5310  0.2345 -0.1628
 8650TIP3    H147441   1.449   3.054  31.634 -0.2656 -0.4039  0.2588
 8650TIP3    H247442   1.582   3.124  31.620 -0.2655 -0.4546  0.0020
 8651TIP3   OH247443   0.189   0.343  35.391 -0.6215  0.7722 -0.4205
 8651TIP3    H147444   0.106   0.300  35.414  0.1137 -0.8277 -0.6269
 8651TIP3    H247445   0.230   0.285  35.327  1.1975  0.8879  0.5505
 8652TIP3   OH247446   0.595   1.357   1.030 -0.2061  0.1928 -0.1644
 8652TIP3    H147447   0.639   1.274   1.015 -0.4255 -0.9372  4.1438
 8652TIP3    H247448   0.662   1.423   1.014  1.0435 -1.0298 -0.1857
 8653TIP3   OH247449   3.103   2.041   4.500  0.0222  0.2107  0.6538
 8653TIP3    H147450   3.121   1.964   4.446  2.0060 -0.4016  2.0469
 8653TIP3    H247451   3.025   2.017   4.551  0.1208 -0.5409  0.4669
 8654TIP3   OH247452   2.567   3.195  46.962  0.2851 -0.3593 -0.0864
 8654TIP3    H147453   2.659   3.206  46.986 -0.0051 -0.3078  1.0464
 8654TIP3    H247454   2.570   3.150  46.877  1.4214  4.0349 -2.6623
 8655TIP3   OH247455   3.168   3.378  32.165 -0.6247  0.4439 -0.4920
 8655TIP3    H147456   3.250   3.359  32.212 -0.9492  1.3552  0.4830
 8655TIP3    H247457   3.181   3.467  32.130 -0.6336  0.0157 -1.6115
 8656TIP3   OH247458   3.436   2.032  43.028 -0.0484  0.1805  0.8248
 8656TIP3    H147459   3.454   2.125  43.015  0.1563  0.2041  1.2827
 8656TIP3    H247460   3.340   2.027  43.032 -0.2544 -0.0088 -2.0707
 8657TIP3   OH247461   2.573   3.504   7.656  0.1774 -0.4639 -0.8471
 8657TIP3    H147462   2.522   3.483   7.578  0.7159  0.2744 -1.4171
 8657TIP3    H247463   2.509   3.532   7.721 -0.3967 -2.2033 -0.6051
 8658TIP3   OH247464   1.817   2.298   2.308  0.3848  0.3799 -0.1323
 8658TIP3    H147465   1.864   2.373   2.273  1.4517  1.2262  2.7869
 8658TIP3    H247466   1.731   2.333   2.333  1.0254  0.8554  1.6133
 8659TIP3   OH247467   0.908   3.817  39.137 -0.6853 -0.0340 -0.2624
 8659TIP3    H147468   0.937   3.869  39.213 -1.4956  0.2501 -0.1387
 8659TIP3    H247469   0.813   3.811  39.147 -0.5567 -2.1058  0.0680
 8660TIP3   OH247470   3.460   3.432  11.969  0.3798 -0.0093 -0.6098
 8660TIP3    H147471   3.387   3.493  11.976  0.3828 -0.0489 -0.2279
 8660TIP3    H247472   3.509   3.443  12.051  0.3713 -0.5350 -0.5325
 8661TIP3   OH247473   3.524   1.022   6.238 -0.0078  0.0798  0.5742
 8661TIP3    H147474   3.535   1.117   6.241 -0.7588  0.3536 -2.2896
 8661TIP3    H247475   3.436   1.007   6.274 -0.0942  0.5242  0.5538
 8662TIP3   OH247476   0.481   1.845   8.258 -0.7489 -0.3767  0.3086
 8662TIP3    H147477   0.567   1.819   8.293 -0.8253  1.2754  1.9424
 8662TIP3    H247478   0.423   1.843   8.335 -1.3076  1.9062  0.0303
 8663TIP3   OH247479   2.335   3.927  37.649  0.0620 -0.5505 -0.2821
 8663TIP3    H147480   2.410   3.901  37.703  0.4555 -0.9585 -1.0261
 8663TIP3    H247481   2.373   3.952  37.565 -0.4543  0.9369 -0.1175
 8664TIP3   OH247482   3.505   1.016  42.560  0.6783 -0.3084 -0.3055
 8664TIP3    H147483   3.434   0.980  42.507 -0.8122  1.8521  0.0942
 8664TIP3    H247484   3.470   1.017  42.649  0.8612  1.5372 -0.2242
 8665TIP3   OH247485   2.270   0.085  34.232 -0.4934 -0.1006 -0.0636
 8665TIP3    H147486   2.268   0.180  34.232 -0.2733 -0.0915 -0.6638
 8665TIP3    H247487   2.197   0.059  34.175 -2.4367 -0.3688  2.3966
 8666TIP3   OH247488   0.391   2.267  38.777  0.1398  0.4586  0.0754
 8666TIP3    H147489   0.363   2.210  38.706 -1.4320 -1.5748  2.1824
 8666TIP3    H247490   0.484   2.283  38.760 -0.0323 -0.4721 -2.0461
 8667TIP3   OH247491   0.002   1.693  47.634 -0.2445  0.0529 -0.5233
 8667TIP3    H147492   0.084   1.671  47.589 -0.8014 -1.4857 -0.8495
 8667TIP3    H247493  -0.047   1.611  47.636 -0.9456  0.4617  1.4594
 8668TIP3   OH247494   0.780   3.016   3.466  0.0002 -0.0316 -0.2519
 8668TIP3    H147495   0.767   2.931   3.508 -2.3434  0.4903  0.2227
 8668TIP3    H247496   0.794   2.995   3.373  1.6566 -1.0025  0.1798
 8669TIP3   OH247497   1.429   0.937  32.181  0.2535  0.0897  0.6322
 8669TIP3    H147498   1.508   0.985  32.157  0.6888  0.1942  2.1424
 8669TIP3    H247499   1.408   0.884  32.104  1.5194  0.4138  0.0381
 8670TIP3   OH247500   4.063   3.789  30.676  0.0780 -0.6367 -0.1175
 8670TIP3    H147501   4.079   3.696  30.693 -0.4651 -1.0247 -1.5398
 8670TIP3    H247502   4.080   3.800  30.582  2.1249  1.1732  0.3746
 8671TIP3   OH247503   0.996   0.805   3.801 -0.3278 -0.6020 -0.3710
 8671TIP3    H147504   1.090   0.811   3.817 -0.7741  1.7466  2.0665
 8671TIP3    H247505   0.958   0.785   3.886 -2.0374 -2.3458 -1.4637
 8672TIP3   OH247506   1.516   1.406  41.543  0.6187 -0.3896 -0.1104
 8672TIP3    H147507   1.464   1.450  41.610 -0.0599 -1.6083  0.1871
 8672TIP3    H247508   1.458   1.398  41.468  1.0053 -0.0613 -0.4514
 8673TIP3   OH247509   3.427   0.113  34.925 -0.1865  0.0741  0.4776
 8673TIP3    H147510   3.466   0.027  34.940 -0.2470 -0.1192 -0.4272
 8673TIP3    H247511   3.498   0.166  34.890 -0.2315  0.3105  0.7351
 8674TIP3   OH247512   2.744   2.400  33.991  0.3787 -0.0708  0.1696
 8674TIP3    H147513   2.714   2.490  33.999 -0.8858 -0.6043  1.8683
 8674TIP3    H247514   2.732   2.363  34.078  3.4218 -1.1441  0.2569
 8675TIP3   OH247515   0.888   2.424   2.671 -0.1720  0.0465 -0.0437
 8675TIP3    H147516   0.900   2.415   2.766  0.1732 -1.2125 -0.2033
 8675TIP3    H247517   0.961   2.376   2.632 -1.9454 -2.0777 -0.9656
 8676TIP3   OH247518   1.014   3.228   2.296 -0.5143  0.4480  0.2502
 8676TIP3    H147519   1.055   3.141   2.304 -0.3030  0.6587  1.6973
 8676TIP3    H247520   1.076   3.287   2.340 -1.4080  1.0861  0.6669
 8677TIP3   OH247521   2.679   3.044  36.860 -0.3402  0.4718 -0.6106
 8677TIP3    H147522   2.681   3.139  36.871 -0.0061  0.5322 -1.1675
 8677TIP3    H247523   2.587   3.020  36.870 -0.1685  0.5716  1.8142
 8678TIP3   OH247524   1.416   2.857   3.069 -0.2540 -0.2621  0.1616
 8678TIP3    H147525   1.467   2.909   3.007  0.5937 -0.1127  0.9580
 8678TIP3    H247526   1.403   2.915   3.144  1.1544 -1.3243  1.2831
 8679TIP3   OH247527   1.692   1.069   7.408 -0.2193  0.0479 -0.0534
 8679TIP3    H147528   1.721   1.109   7.490 -1.4478  1.9053 -0.4603
 8679TIP3    H247529   1.758   1.094   7.344 -0.0132 -0.1685  0.0738
 8680TIP3   OH247530   0.173   4.085  36.011  0.0449  0.2853  0.8315
 8680TIP3    H147531   0.223   4.046  35.939 -0.5817  0.6409  0.1952
 8680TIP3    H247532   0.239   4.129  36.065  0.3992  0.8843 -0.0841
 8681TIP3   OH247533   1.178   1.045  45.465  0.1362  0.4691 -0.3448
 8681TIP3    H147534   1.126   1.113  45.424 -0.0236  0.4645 -0.1482
 8681TIP3    H247535   1.243   1.021  45.398  0.2285  0.8466 -0.3926
 8682TIP3   OH247536   0.088   4.106  40.983 -0.2879  0.1265  0.2812
 8682TIP3    H147537   0.160   4.065  40.936 -0.2623  0.6615 -0.1718
 8682TIP3    H247538   0.020   4.038  40.987 -0.4370  0.1812 -0.8913
 8683TIP3   OH247539   2.412   0.940   5.481 -0.2123  0.0769 -0.2189
 8683TIP3    H147540   2.378   1.030   5.477 -0.5033  0.0415  1.0370
 8683TIP3    H247541   2.367   0.895   5.410  0.8384  1.1906 -1.6670
 8684TIP3   OH247542   3.777   0.462  35.691 -0.0292  0.5840 -0.2986
 8684TIP3    H147543   3.691   0.423  35.675  0.5672 -0.3990 -1.3438
 8684TIP3    H247544   3.770   0.504  35.776 -1.0047 -1.0665  0.4865
 8685TIP3   OH247545   3.989   0.188  44.595 -0.1535 -0.6271  0.5611
 8685TIP3    H147546   3.971   0.210  44.503  0.0075 -1.7533  0.2475
 8685TIP3    H247547   4.063   0.128  44.591 -0.2793 -0.8530  1.4219
 8686TIP3   OH247548   1.664   3.968   2.200  0.1130 -0.0082  0.1121
 8686TIP3    H147549   1.707   4.026   2.263 -1.5284  0.5738  0.7358
 8686TIP3    H247550   1.603   4.025   2.153 -1.2190 -1.1374  0.4350
 8687TIP3   OH247551   0.852   2.325   7.224  0.0262 -0.2385 -0.3235
 8687TIP3    H147552   0.854   2.242   7.176  2.8513 -0.1884 -0.4859
 8687TIP3    H247553   0.893   2.304   7.308  0.4350  0.9208 -0.2215
 8688TIP3   OH247554   2.928   1.331  36.217 -0.3099 -0.5957  0.0495
 8688TIP3    H147555   2.897   1.285  36.295  0.9207 -0.5446  0.5928
 8688TIP3    H247556   3.023   1.319  36.219 -0.1949  0.0654 -1.0250
 8689TIP3   OH247557   0.801   2.778   4.892  0.5559 -0.2247  0.1480
 8689TIP3    H147558   0.731   2.721   4.857  0.9634  0.1929 -1.4364
 8689TIP3    H247559   0.854   2.720   4.947 -0.1723 -0.9008  0.1606
 8690TIP3   OH247560   3.820   2.379  13.500 -0.2367  0.3820  0.0523
 8690TIP3    H147561   3.894   2.410  13.449  0.7634 -0.6366  0.8292
 8690TIP3    H247562   3.811   2.287  13.478 -0.0870  0.0351  1.3257
 8691TIP3   OH247563   2.169   0.832  46.217 -0.1491 -0.1752 -0.0033
 8691TIP3    H147564   2.169   0.801  46.126  0.3975 -1.1027  0.3038
 8691TIP3    H247565   2.209   0.761  46.267  0.7976  0.8747  0.7887
 8692TIP3   OH247566   3.951   3.253   1.416  0.1855 -0.2057  0.8337
 8692TIP3    H147567   3.976   3.262   1.508  0.2073 -3.6287  1.2979
 8692TIP3    H247568   3.898   3.330   1.398 -0.1584  0.3929  3.8252
 8693TIP3   OH247569   2.458   1.083  31.187  0.0339 -0.0812 -0.2759
 8693TIP3    H147570   2.497   1.024  31.122  0.3716 -0.7735  0.5340
 8693TIP3    H247571   2.401   1.026  31.239  1.2054  0.0735  1.2133
 8694TIP3   OH247572   3.416   1.390  44.561 -0.0622 -0.0870 -0.6340
 8694TIP3    H147573   3.374   1.328  44.501  0.3201  0.4359 -1.4601
 8694TIP3    H247574   3.352   1.404  44.631 -0.0451 -1.6243 -0.2780
 8695TIP3   OH247575   2.787   3.889   1.460  1.0245  0.3168  0.1740
 8695TIP3    H147576   2.756   3.979   1.455 -0.6914 -0.2677 -0.5341
 8695TIP3    H247577   2.713   3.841   1.497  1.5968 -0.9347 -0.2527
 8696TIP3   OH247578   1.610   1.545  45.937 -0.0959 -0.0144  0.4935
 8696TIP3    H147579   1.617   1.595  46.018 -2.1066  1.9365 -0.4224
 8696TIP3    H247580   1.643   1.603  45.869 -1.1919 -0.4126 -0.4281
 8697TIP3   OH247581   1.061   2.217   9.566  0.0953  0.1698 -0.0189
 8697TIP3    H147582   0.986   2.164   9.592 -0.3422  0.2288 -1.1408
 8697TIP3    H247583   1.035   2.307   9.583  0.3592  0.1172  0.6878
 8698TIP3   OH247584   2.002   3.933   4.133 -0.6683  0.5032  0.1922
 8698TIP3    H147585   2.095   3.937   4.110 -0.2749 -0.3882  1.5159
 8698TIP3    H247586   1.972   3.849   4.098 -0.1710 -0.6596  2.4134
 8699TIP3   OH247587   2.725   3.098  42.984  0.1291  0.2974 -0.0291
 8699TIP3    H147588   2.800   3.078  42.927  0.7869  1.8696  0.2344
 8699TIP3    H247589   2.752   3.068  43.071  1.5714  3.0638  0.5925
 8700TIP3   OH247590   0.916   0.410  43.918  0.1186  0.3924  0.2561
 8700TIP3    H147591   0.827   0.425  43.884  0.2110 -2.6950 -1.6898
 8700TIP3    H247592   0.903   0.384  44.009 -1.2164 -1.9091 -0.5330
 8701TIP3   OH247593   2.261   1.296  34.660  0.2467  0.5278 -0.5642
 8701TIP3    H147594   2.182   1.342  34.632  0.8708  1.7786 -0.3631
 8701TIP3    H247595   2.331   1.337  34.609  0.8990  0.1873  0.0457
 8702TIP3   OH247596   1.037   2.628  20.874 -0.0215  0.0302 -0.2414
 8702TIP3    H147597   1.122   2.598  20.905  0.2090  0.5017 -0.4106
 8702TIP3    H247598   0.980   2.622  20.951  0.1615 -0.2851 -0.1290
 8703TIP3   OH247599   1.670   1.954  46.085  0.3637 -0.5477 -0.2407
 8703TIP3    H147600   1.637   1.934  45.997  1.0174 -0.5431 -0.4941
 8703TIP3    H247601   1.672   1.870  46.129 -2.0458 -0.2875  0.5284
 8704TIP3   OH247602   1.711   3.292   5.107 -0.5594 -0.3891 -0.1854
 8704TIP3    H147603   1.796   3.326   5.081 -1.3054  1.8385  0.1504
 8704TIP3    H247604   1.662   3.285   5.025 -0.5634 -0.2129 -0.1969
 8705TIP3   OH247605   0.856   3.276   8.751  0.0128  0.1201  0.3512
 8705TIP3    H147606   0.948   3.253   8.754 -0.2566 -1.0449 -0.0123
 8705TIP3    H247607   0.854   3.364   8.712  0.9002 -0.2251 -0.4923
 8706TIP3   OH247608   3.097   2.481  46.767  0.1518 -0.2204 -0.1452
 8706TIP3    H147609   3.192   2.475  46.776  0.2438  0.8499 -0.2158
 8706TIP3    H247610   3.081   2.468  46.673 -0.1256 -3.8866  0.2845
 8707TIP3   OH247611   1.805   0.318  47.440 -0.4740 -0.0186 -0.1625
 8707TIP3    H147612   1.825   0.226  47.458  1.0941 -0.1049 -2.0047
 8707TIP3    H247613   1.725   0.315  47.388  0.1157 -0.4780 -1.0932
 8708TIP3   OH247614   0.110   1.461  13.953 -0.3845  0.1901  0.5895
 8708TIP3    H147615   0.047   1.467  13.881 -0.0568  1.1674  0.3634
 8708TIP3    H247616   0.159   1.381  13.935 -0.4845  0.2790 -0.1328
 8709TIP3   OH247617   1.229   2.735  34.062  0.0552 -0.4571  0.0207
 8709TIP3    H147618   1.273   2.732  33.977  0.1934  0.5161  0.0424
 8709TIP3    H247619   1.300   2.733  34.126  0.1502  1.6963  0.0482
 8710TIP3   OH247620   3.193   3.627  36.953  0.2606  0.1335  0.9308
 8710TIP3    H147621   3.237   3.710  36.973 -0.0904  0.5255  0.0931
 8710TIP3    H247622   3.197   3.578  37.036  0.8907  0.7837  1.3010
 8711TIP3   OH247623   4.048   0.435  31.148  0.1985  0.4260 -0.2791
 8711TIP3    H147624   3.990   0.378  31.198 -1.2119  1.0372 -1.1613
 8711TIP3    H247625   4.085   0.495  31.213  0.4560 -0.4633  0.4080
 8712TIP3   OH247626   2.306   1.305  38.050  0.7362 -0.0045 -0.4661
 8712TIP3    H147627   2.371   1.301  37.980  0.9617  1.0821 -0.3462
 8712TIP3    H247628   2.352   1.273  38.128  0.8511 -0.0909 -0.5712
 8713TIP3   OH247629   2.933   3.777  38.038  0.6453  0.1128 -0.1997
 8713TIP3    H147630   2.932   3.824  37.954  0.8869  2.1817  0.8951
 8713TIP3    H247631   3.021   3.739  38.042  0.8545  0.5349 -0.6037
 8714TIP3   OH247632   3.251   1.681   4.485  0.7329  0.9820  0.4767
 8714TIP3    H147633   3.235   1.750   4.420  0.4566  1.6325  1.2259
 8714TIP3    H247634   3.194   1.702   4.558 -1.9925 -1.9010 -0.5625
 8715TIP3   OH247635   2.982   3.705   0.404  0.2544  0.2421 -0.1158
 8715TIP3    H147636   2.983   3.730   0.312  0.7481  1.1342  0.1193
 8715TIP3    H247637   3.036   3.627   0.409 -1.6347 -1.1824 -0.9315
 8716TIP3   OH247638   3.882   2.947  11.290 -0.7161  0.2620 -0.5484
 8716TIP3    H147639   3.949   2.974  11.228 -0.4160  0.8987  0.0385
 8716TIP3    H247640   3.926   2.948  11.375 -1.6972  1.5820 -0.0233
 8717TIP3   OH247641   0.183   2.904   0.013  0.3736 -0.0826 -0.4799
 8717TIP3    H147642   0.275   2.909  -0.015  0.1224  1.7999 -1.1578
 8717TIP3    H247643   0.166   2.811   0.023  2.3630 -0.4823 -0.3318
 8718TIP3   OH247644   1.499   0.304   3.918  0.1681 -0.2710 -0.2518
 8718TIP3    H147645   1.432   0.287   3.852  0.3267  0.0105 -0.4848
 8718TIP3    H247646   1.515   0.218   3.958  0.2200 -0.4827 -0.7214
 8719TIP3   OH247647   2.482   3.449  32.324 -0.1424  0.1007 -0.2322
 8719TIP3    H147648   2.458   3.465  32.233 -0.5689  1.3558  0.0769
 8719TIP3    H247649   2.480   3.536  32.365  0.3207 -0.4014  0.9101
 8720TIP3   OH247650   3.037   3.016  42.507 -0.2502  0.4499 -0.4075
 8720TIP3    H147651   3.103   2.996  42.574  0.5948 -3.3549 -2.1030
 8720TIP3    H247652   3.076   3.087  42.456  1.5458 -0.2008 -0.0101
 8721TIP3   OH247653   2.319   3.183  35.981 -0.7522 -0.1771 -0.4580
 8721TIP3    H147654   2.273   3.266  35.967 -0.4009 -0.0272 -0.7283
 8721TIP3    H247655   2.254   3.126  36.021 -0.9627  0.2709 -0.1560
 8722TIP3   OH247656   1.877   0.816  46.918  0.1571 -0.2575  0.0656
 8722TIP3    H147657   1.915   0.852  46.998  2.4021 -1.8306 -0.1781
 8722TIP3    H247658   1.809   0.878  46.893  0.6442  1.2307  2.1736
 8723TIP3   OH247659   3.129   4.007   4.970  0.5422 -0.0136 -0.2818
 8723TIP3    H147660   3.054   3.949   4.983 -0.8321  1.7241 -0.0329
 8723TIP3    H247661   3.187   3.989   5.045 -0.3929 -0.2703  0.3975
 8724TIP3   OH247662   2.311   0.341   2.598 -0.2063 -0.1250  0.7795
 8724TIP3    H147663   2.335   0.430   2.575  1.6315 -0.3696  1.6056
 8724TIP3    H247664   2.256   0.349   2.676 -1.1134  0.3279  0.1096
 8725TIP3   OH247665   1.309   3.962  10.456 -0.2508  0.0522 -0.1469
 8725TIP3    H147666   1.308   4.053  10.427 -0.0999  0.2873  0.5555
 8725TIP3    H247667   1.378   3.921  10.404 -0.6084  0.2322 -0.7667
 8726TIP3   OH247668   3.584   3.561  40.771  0.5410 -0.1367  0.2837
 8726TIP3    H147669   3.575   3.500  40.844  0.0326 -0.9950 -0.4883
 8726TIP3    H247670   3.569   3.647  40.811 -1.5721 -0.7181  0.8649
 8727TIP3   OH247671   1.318   2.793  31.812  0.2518  0.2605  0.0881
 8727TIP3    H147672   1.397   2.779  31.864  0.7013 -0.0761 -0.6571
 8727TIP3    H247673   1.259   2.842  31.869  0.6630 -0.2418  0.9557
 8728TIP3   OH247674   1.127   2.706   8.839 -0.2433 -0.0731  0.1845
 8728TIP3    H147675   1.187   2.760   8.891 -0.5785  2.1724 -1.5969
 8728TIP3    H247676   1.184   2.657   8.780 -0.0475  0.1605  0.1779
 8729TIP3   OH247677   2.464   2.196   8.585 -0.3650 -0.0517 -0.5074
 8729TIP3    H147678   2.373   2.222   8.568 -0.1882  1.0729  0.1555
 8729TIP3    H247679   2.501   2.180   8.498 -0.3379  2.5410 -1.0723
 8730TIP3   OH247680   3.451   1.109   9.117 -0.0768 -0.1950 -0.5462
 8730TIP3    H147681   3.372   1.059   9.098  0.0555 -0.4843 -0.3389
 8730TIP3    H247682   3.520   1.063   9.069  0.2286 -0.8204  0.4765
 8731TIP3   OH247683   3.221   3.506  46.822  0.3931 -0.0058  0.1352
 8731TIP3    H147684   3.292   3.477  46.880  0.7715  2.4038  0.9934
 8731TIP3    H247685   3.262   3.513  46.735  0.6591 -0.5463  0.2125
 8732TIP3   OH247686   3.122   0.848  12.581 -0.4490  0.8920 -0.5741
 8732TIP3    H147687   3.105   0.932  12.623  1.4067  1.2236 -0.3673
 8732TIP3    H247688   3.200   0.814  12.626 -1.5111 -1.2515 -0.2364
 8733TIP3   OH247689   2.447   2.149  21.514  0.8599 -0.0406 -0.5116
 8733TIP3    H147690   2.541   2.134  21.511  1.3022  2.3789 -0.4586
 8733TIP3    H247691   2.419   2.148  21.423  0.8602 -1.0437 -0.5104
 8734TIP3   OH247692   1.410   0.300   6.356  0.4505  0.4477 -0.0375
 8734TIP3    H147693   1.377   0.226   6.305  0.3504  0.3237  0.2029
 8734TIP3    H247694   1.426   0.264   6.443 -1.3525  1.1093  0.6155
 8735TIP3   OH247695   1.261   3.571  31.964 -0.3655 -0.3050 -0.0771
 8735TIP3    H147696   1.294   3.523  32.040  1.1211  3.3725  1.8777
 8735TIP3    H247697   1.168   3.585  31.983 -0.7900 -2.0589 -0.6100
 8736TIP3   OH247698   1.115   1.702  16.047  0.6024  0.5258 -0.3938
 8736TIP3    H147699   1.194   1.701  15.993 -1.1228 -0.8512 -3.0877
 8736TIP3    H247700   1.105   1.793  16.073  1.9851  1.0724 -1.6531
 8737TIP3   OH247701   2.916   1.699  37.200 -0.0380  0.1859 -0.2295
 8737TIP3    H147702   2.860   1.689  37.123 -0.4245  1.1852 -0.0930
 8737TIP3    H247703   2.858   1.738  37.266 -0.0445 -1.7411  0.9686
 8738TIP3   OH247704   1.265   1.616   8.365  0.0207 -0.2878  0.1062
 8738TIP3    H147705   1.319   1.540   8.386 -2.1730 -1.8924  0.3537
 8738TIP3    H247706   1.236   1.601   8.275 -0.0555  0.5182 -0.0080
 8739TIP3   OH247707   2.436   3.542  31.528 -0.4301  0.6852 -0.0909
 8739TIP3    H147708   2.389   3.463  31.555  0.9018 -0.5420 -1.1885
 8739TIP3    H247709   2.388   3.614  31.569 -1.6673 -0.6862  0.9741
 8740TIP3   OH247710   1.676   0.750  32.911  0.0169 -0.2941  0.5984
 8740TIP3    H147711   1.721   0.835  32.909 -0.1112 -0.2224 -1.4710
 8740TIP3    H247712   1.606   0.759  32.846  0.5368 -2.2359 -0.2915
 8741TIP3   OH247713   0.070   1.287  42.662  0.1190 -0.1031  0.0221
 8741TIP3    H147714   0.061   1.372  42.619 -0.8051  0.4114  1.1883
 8741TIP3    H247715   0.010   1.290  42.736  0.0101 -1.8054  0.0609
 8742TIP3   OH247716   0.800   1.124  15.407 -0.0295 -0.5994  0.3500
 8742TIP3    H147717   0.709   1.096  15.397 -0.4164 -0.4126  2.8212
 8742TIP3    H247718   0.806   1.156  15.497  1.9053  1.6308 -0.4584
 8743TIP3   OH247719   2.830   2.765   3.191 -1.1121 -0.6465  0.8697
 8743TIP3    H147720   2.804   2.750   3.100  3.7248 -0.0140 -0.8793
 8743TIP3    H247721   2.863   2.680   3.221 -1.6040 -0.5638  1.6902
 8744TIP3   OH247722   0.773   1.044  13.385  0.2115 -0.4357 -0.4280
 8744TIP3    H147723   0.721   0.963  13.376  1.4446 -1.5113  1.5158
 8744TIP3    H247724   0.740   1.085  13.465  0.6194  0.2157 -0.5871
 8745TIP3   OH247725   2.122   3.771   4.683 -0.3118  0.1523  0.4333
 8745TIP3    H147726   2.125   3.865   4.700 -2.4117  0.6189 -1.3099
 8745TIP3    H247727   2.121   3.764   4.587 -0.3169 -1.6456  0.5221
 8746TIP3   OH247728   2.725   1.719  11.481  0.3352 -0.0435 -0.3649
 8746TIP3    H147729   2.679   1.788  11.528  1.6717  0.0558  0.8847
 8746TIP3    H247730   2.758   1.761  11.402 -0.1788  0.3510 -0.3676
 8747TIP3   OH247731   2.936   3.917  11.985  0.1448  0.5135 -0.2529
 8747TIP3    H147732   2.881   3.961  11.920 -1.9527 -3.2391 -1.3332
 8747TIP3    H247733   2.888   3.928  12.068  0.2216  1.1197 -0.2822
 8748TIP3   OH247734   3.769   2.159   8.118  0.3139  0.5460 -0.3150
 8748TIP3    H147735   3.858   2.192   8.132  0.9020 -1.1763  0.2238
 8748TIP3    H247736   3.732   2.147   8.205 -0.9747  2.4764 -0.5346
 8749TIP3   OH247737   1.901   2.356  38.470  0.2141  0.4682  0.3182
 8749TIP3    H147738   1.920   2.436  38.421  1.4858 -0.1048 -0.1561
 8749TIP3    H247739   1.986   2.325  38.500 -0.3752 -0.0833  1.5081
 8750TIP3   OH247740   1.654   1.710   5.889 -0.0932  0.2892 -0.7555
 8750TIP3    H147741   1.580   1.651   5.872  0.1285 -0.5179  0.8601
 8750TIP3    H247742   1.714   1.696   5.815 -1.1979  0.4029 -1.7009
 8751TIP3   OH247743   0.757   2.935  36.663 -0.0457  0.3335  0.2063
 8751TIP3    H147744   0.842   2.911  36.626 -1.2317 -0.8961 -1.9047
 8751TIP3    H247745   0.751   3.030  36.651  0.0671  0.1145 -1.8569
 8752TIP3   OH247746   3.651   2.677  41.429  0.3662  0.1621 -0.4233
 8752TIP3    H147747   3.736   2.715  41.454  0.4265 -0.0910 -0.2400
 8752TIP3    H247748   3.674   2.597  41.382  0.2331  0.2077 -0.5655
 8753TIP3   OH247749   2.018   2.475  45.937  0.7246 -0.2499  0.1875
 8753TIP3    H147750   2.066   2.539  45.884 -0.0756  0.3819  0.1985
 8753TIP3    H247751   2.069   2.470  46.019 -0.3340  2.0632  1.0872
 8754TIP3   OH247752   0.429   1.566  14.052  0.0201 -0.3501 -0.1901
 8754TIP3    H147753   0.381   1.511  14.114  0.1163  2.2475  2.3948
 8754TIP3    H247754   0.510   1.517  14.035  0.9288 -0.4055  3.3883
 8755TIP3   OH247755   2.915   1.969  33.916  0.0103 -0.4592  0.4693
 8755TIP3    H147756   2.828   1.989  33.882 -0.6052 -0.3874  2.0010
 8755TIP3    H247757   2.944   2.050  33.957  0.6791 -0.5601  0.1967
 8756TIP3   OH247758   0.653   3.983   7.470  0.6279 -0.0059 -0.1246
 8756TIP3    H147759   0.574   3.936   7.444  0.5373  0.0753 -0.0046
 8756TIP3    H247760   0.718   3.961   7.404  0.8076 -0.8882  0.3303
 8757TIP3   OH247761   0.917   0.397  30.489  0.6808 -0.3246  0.1632
 8757TIP3    H147762   0.955   0.445  30.416 -0.9809  1.3282  0.3066
 8757TIP3    H247763   0.987   0.393  30.554  1.2545  0.8301 -0.3584
 8758TIP3   OH247764   3.807   0.652  37.012  0.3984  0.2990 -0.4275
 8758TIP3    H147765   3.731   0.675  37.066  0.0625 -1.0935 -0.2837
 8758TIP3    H247766   3.809   0.720  36.944 -1.1389  0.2214 -0.5912
 8759TIP3   OH247767   0.058   1.672  16.983 -0.6128  0.0124 -0.1184
 8759TIP3    H147768   0.068   1.765  16.960 -1.8489 -0.0209 -0.9111
 8759TIP3    H247769  -0.023   1.646  16.939 -0.7226 -1.2323  0.7909
 8760TIP3   OH247770   0.806   0.188   3.167 -0.3135  0.2346 -0.1091
 8760TIP3    H147771   0.764   0.104   3.189  0.6205 -0.1991  0.0649
 8760TIP3    H247772   0.735   0.252   3.173 -0.7053 -0.2859  1.4026
 8761TIP3   OH247773   3.377   0.816  32.405 -0.4103 -0.3633 -0.2774
 8761TIP3    H147774   3.390   0.790  32.496  2.3678 -2.3130 -1.1200
 8761TIP3    H247775   3.442   0.885  32.390 -1.0417  0.1438 -0.7449
 8762TIP3   OH247776   3.625   1.594  11.636 -0.5083 -0.2070 -0.1951
 8762TIP3    H147777   3.645   1.686  11.651 -0.9727  0.6800 -3.8952
 8762TIP3    H247778   3.710   1.552  11.624 -0.3160 -0.1837  1.0162
 8763TIP3   OH247779   0.326   3.111   8.289 -0.2537 -0.6719  0.0287
 8763TIP3    H147780   0.366   3.052   8.353 -0.8601 -0.9612  0.1451
 8763TIP3    H247781   0.394   3.124   8.223  0.3648 -0.4091  0.6980
 8764TIP3   OH247782   0.216   0.513  35.672  0.6757  0.0456  0.2075
 8764TIP3    H147783   0.286   0.449  35.687 -1.0855 -1.8155  0.9813
 8764TIP3    H247784   0.205   0.556  35.757 -1.4229 -2.2375  1.2496
 8765TIP3   OH247785   0.657   3.221  29.378 -0.0226 -0.4099  0.4509
 8765TIP3    H147786   0.621   3.305  29.348  0.5427  0.2099  1.4662
 8765TIP3    H247787   0.614   3.205  29.463  0.3541 -0.8349  0.5663
 8766TIP3   OH247788   1.027   1.003   5.517  0.3864  0.1689  0.6672
 8766TIP3    H147789   1.047   0.945   5.444  1.5243  0.2956  0.8473
 8766TIP3    H247790   1.107   1.003   5.570  0.6051  2.2456  0.4284
 8767TIP3   OH247791   0.731   1.757   7.750 -0.1966  0.2899 -0.6331
 8767TIP3    H147792   0.746   1.849   7.771  0.1747  0.3524 -1.1617
 8767TIP3    H247793   0.807   1.731   7.698 -0.8702  0.0172 -1.5053
 8768TIP3   OH247794   1.734   1.966   8.599 -0.3121  0.3064  0.0500
 8768TIP3    H147795   1.643   1.937   8.605 -0.0731 -0.2874  1.0034
 8768TIP3    H247796   1.740   2.039   8.660 -0.2827  0.7249 -0.4450
 8769TIP3   OH247797   3.790   2.546  33.636  0.2436 -0.5582  0.1650
 8769TIP3    H147798   3.860   2.597  33.676  0.4612  0.3754 -1.3425
 8769TIP3    H247799   3.715   2.605  33.632  0.1189 -0.7458 -0.4605
 8770TIP3   OH247800   4.002   0.816  38.630 -0.1548  0.0285  0.5702
 8770TIP3    H147801   4.033   0.778  38.713 -1.1055 -0.9371  0.5097
 8770TIP3    H247802   3.907   0.805  38.634 -0.2824  0.8151 -0.2534
 8771TIP3   OH247803   2.897   1.527  44.241 -0.3445 -0.1980  0.1364
 8771TIP3    H147804   2.815   1.532  44.193 -1.2508 -0.4169  1.5981
 8771TIP3    H247805   2.937   1.613  44.230 -1.0032  0.0737 -0.1846
 8772TIP3   OH247806   1.850   2.984  13.170 -0.2119  0.0239  0.4652
 8772TIP3    H147807   1.867   3.030  13.088  0.6128 -0.9134  0.0875
 8772TIP3    H247808   1.786   2.916  13.147  1.0231 -1.1154  0.2656
 8773TIP3   OH247809   1.555   3.066   8.900  0.2419 -0.8783 -0.2532
 8773TIP3    H147810   1.650   3.067   8.908  0.1700  0.0241  0.9757
 8773TIP3    H247811   1.527   3.141   8.953 -1.0749 -0.2384 -1.7980
 8774TIP3   OH247812   1.695   3.779  37.569  0.1861 -0.4148  0.4862
 8774TIP3    H147813   1.619   3.729  37.600  0.0419  0.6835  2.0170
 8774TIP3    H247814   1.694   3.859  37.621  1.2209  0.5705 -0.9223
 8775TIP3   OH247815   2.094   0.661  32.240  0.4136 -0.2865 -0.1481
 8775TIP3    H147816   2.111   0.688  32.330 -0.6643 -1.3884  0.4093
 8775TIP3    H247817   2.025   0.720  32.209  1.7989  1.0664 -0.7948
 8776TIP3   OH247818   2.903   2.500  33.268  0.1335  0.3141  0.2380
 8776TIP3    H147819   2.959   2.498  33.191  0.3541  1.2355  0.3643
 8776TIP3    H247820   2.946   2.560  33.329  0.0863 -0.5723  1.1873
 8777TIP3   OH247821   0.028   1.926  41.143 -0.6229  0.4439 -0.0130
 8777TIP3    H147822   0.062   1.886  41.063 -0.1182  0.2147  0.3123
 8777TIP3    H247823   0.019   2.019  41.121  0.7017  0.6098  0.0458
 8778TIP3   OH247824   0.558   0.186  10.692 -0.0328 -0.0815  0.0180
 8778TIP3    H147825   0.641   0.195  10.738 -0.4012  1.6003  0.4103
 8778TIP3    H247826   0.556   0.259  10.630 -0.9182 -0.5117 -0.4905
 8779TIP3   OH247827   1.120   2.258  12.555 -0.1961  0.1275 -0.5254
 8779TIP3    H147828   1.101   2.212  12.473  0.1306 -2.0152  0.5316
 8779TIP3    H247829   1.205   2.225  12.583 -0.9263 -0.3058  1.3749
 8780TIP3   OH247830   3.922   3.595  10.969  0.1769  0.4504 -0.1062
 8780TIP3    H147831   3.929   3.548  11.053  1.7246  0.5229 -0.1705
 8780TIP3    H247832   3.978   3.546  10.910  0.3616  1.3305 -0.6744
 8781TIP3   OH247833   3.429   0.327  45.326  0.0958  0.4629  0.1781
 8781TIP3    H147834   3.510   0.351  45.282 -0.0087 -1.8597 -1.4600
 8781TIP3    H247835   3.360   0.347  45.263 -0.3610 -0.0804  0.4965
 8782TIP3   OH247836   3.375   2.502  47.348  0.1240  0.3516 -0.4786
 8782TIP3    H147837   3.345   2.534  47.264 -1.0254 -0.8076 -0.5457
 8782TIP3    H247838   3.439   2.433  47.326  1.8741  1.8516 -0.3441
 8783TIP3   OH247839   3.689   2.669   8.021 -0.8640 -0.3127 -0.7027
 8783TIP3    H147840   3.760   2.718   7.981 -0.5679 -0.8397 -0.8375
 8783TIP3    H247841   3.709   2.577   8.001 -0.8217 -0.5736  0.4743
 8784TIP3   OH247842   0.061   1.569  14.835 -0.5257 -0.9684  0.1092
 8784TIP3    H147843  -0.018   1.577  14.782  0.0431  0.5212 -0.5668
 8784TIP3    H247844   0.100   1.656  14.834 -0.1340 -1.0618  2.4624
 8785TIP3   OH247845   4.063   3.354  13.777 -0.1113  0.1360 -0.4248
 8785TIP3    H147846   4.105   3.438  13.754  1.3269 -0.0332  1.3677
 8785TIP3    H247847   4.111   3.290  13.725  1.1951  0.0728  0.7966
 8786TIP3   OH247848   2.826   3.526  10.251 -0.1405 -0.1002 -0.1685
 8786TIP3    H147849   2.846   3.497  10.162  1.2639 -1.1791  0.4552
 8786TIP3    H247850   2.750   3.583  10.241 -0.8019 -1.2058 -1.8978
 8787TIP3   OH247851   3.581   3.739  32.670  0.2830 -0.0379 -0.0297
 8787TIP3    H147852   3.596   3.645  32.683 -0.6239 -0.1444  0.3115
 8787TIP3    H247853   3.486   3.747  32.661  0.4617  0.6477 -1.7073
 8788TIP3   OH247854   2.512   2.041   2.758 -0.0764 -0.6062 -0.7907
 8788TIP3    H147855   2.472   2.088   2.685 -0.3304 -0.0131 -0.2765
 8788TIP3    H247856   2.441   2.028   2.821  0.5048  0.4829  0.1395
 8789TIP3   OH247857   0.242   2.064  42.044 -0.2953 -0.1220 -0.6421
 8789TIP3    H147858   0.223   2.034  42.133 -0.9890  0.0865 -0.7103
 8789TIP3    H247859   0.203   2.152  42.040  0.9835  0.4589 -0.6960
 8790TIP3   OH247860   2.803   0.449  33.573 -0.7201 -0.4285  0.0211
 8790TIP3    H147861   2.790   0.389  33.647  0.7253 -0.6177  0.1497
 8790TIP3    H247862   2.774   0.398  33.497 -1.0381 -0.6897  0.3081
 8791TIP3   OH247863   2.261   2.929   2.992  0.5772  0.1928  0.3816
 8791TIP3    H147864   2.247   2.840   2.959  1.5931 -0.2797  1.1901
 8791TIP3    H247865   2.326   2.966   2.933 -1.7669  1.3884 -1.6162
 8792TIP3   OH247866   1.500   1.652  44.814  0.7320 -0.0505  0.0075
 8792TIP3    H147867   1.453   1.721  44.862  0.3848  0.2525 -0.7630
 8792TIP3    H247868   1.449   1.638  44.735  1.6075 -0.1441 -0.5598
 8793TIP3   OH247869   3.485   2.650  13.435  0.0295 -0.3816 -0.5488
 8793TIP3    H147870   3.516   2.607  13.514  1.1432 -1.8379 -1.7124
 8793TIP3    H247871   3.533   2.733  13.432  0.1308 -0.4133  0.1795
 8794TIP3   OH247872   3.028   2.948  31.769  0.0246  0.1755 -0.3010
 8794TIP3    H147873   2.961   2.977  31.830  0.9867 -1.8229  1.8529
 8794TIP3    H247874   3.099   3.011  31.780 -0.5645  0.9564 -0.8643
 8795TIP3   OH247875   1.622   0.637  43.944  0.4802 -0.1853  0.3905
 8795TIP3    H147876   1.608   0.626  43.849  1.6678  1.6458 -0.0476
 8795TIP3    H247877   1.665   0.555  43.971  0.1511 -0.7275 -0.6564
 8796TIP3   OH247878   0.432   2.821   5.352  0.0469  0.6881  0.4354
 8796TIP3    H147879   0.355   2.782   5.394 -0.2121  0.5105 -0.2043
 8796TIP3    H247880   0.493   2.835   5.425 -0.3668  0.3061  0.8665
 8797TIP3   OH247881   3.528   2.888   9.462  0.1007  0.1932  0.2500
 8797TIP3    H147882   3.513   2.883   9.557 -0.6928 -2.9547  0.0694
 8797TIP3    H247883   3.452   2.937   9.429  0.2821  1.1503  1.1644
 8798TIP3   OH247884   2.040   3.920  35.444 -0.3589 -0.8556  0.0809
 8798TIP3    H147885   2.094   3.861  35.392  1.2704  0.0279  0.6938
 8798TIP3    H247886   2.029   3.875  35.528  0.5008 -0.5137  0.3878
 8799TIP3   OH247887   1.557   0.592   6.474  0.3714  0.3045 -0.6636
 8799TIP3    H147888   1.617   0.610   6.401  2.5569 -0.9488  0.7005
 8799TIP3    H247889   1.615   0.578   6.549 -1.7734  0.9100  1.1923
 8800TIP3   OH247890   3.356   0.139  29.722 -0.2335  0.0919  0.0557
 8800TIP3    H147891   3.276   0.165  29.766 -0.7429 -0.5809 -0.4433
 8800TIP3    H247892   3.341   0.161  29.630 -0.3152 -1.0897 -0.2255
 8801TIP3   OH247893   2.297   3.567  28.731 -0.6608 -0.2259  0.6419
 8801TIP3    H147894   2.207   3.557  28.700 -1.0109 -0.3142  1.6444
 8801TIP3    H247895   2.312   3.662  28.733 -0.0004 -0.2276 -1.4766
 8802TIP3   OH247896   2.438   2.718  33.159 -0.0103  0.3642  0.4884
 8802TIP3    H147897   2.363   2.711  33.099  1.2056  0.6024 -1.1253
 8802TIP3    H247898   2.479   2.632  33.155 -0.0671  0.2941  1.2284
 8803TIP3   OH247899   3.266   2.673   9.007  0.2872 -0.2212 -0.3312
 8803TIP3    H147900   3.310   2.648   8.926  0.7497 -0.9187  0.1290
 8803TIP3    H247901   3.336   2.712   9.061 -0.2941  1.5940 -0.8115
 8804TIP3   OH247902   0.555   3.814  30.913  0.6581 -0.2946 -0.3924
 8804TIP3    H147903   0.565   3.880  30.981 -0.0179  0.6654 -1.2031
 8804TIP3    H247904   0.468   3.776  30.929  0.8385 -0.6383 -0.2266
 8805TIP3   OH247905   1.874   2.971  35.635  0.0614  0.5445 -0.1421
 8805TIP3    H147906   1.851   2.916  35.560  0.9628  1.8767 -1.4794
 8805TIP3    H247907   1.963   3.001  35.615 -0.1112  1.8344  0.9052
 8806TIP3   OH247908   1.191   4.085   8.360  0.1616 -0.5677  0.2715
 8806TIP3    H147909   1.230   4.114   8.443 -0.3297 -0.1264  0.3509
 8806TIP3    H247910   1.105   4.053   8.385 -0.9820  1.8029 -0.3578
 8807TIP3   OH247911   4.019   2.894  34.204 -0.0916  0.0256  0.7414
 8807TIP3    H147912   4.047   2.845  34.281 -0.0687 -0.1038  0.6496
 8807TIP3    H247913   3.979   2.829  34.147  0.3036  0.0389  0.4406
 8808TIP3   OH247914   0.365   3.873  33.845 -0.6355  0.1831  0.1655
 8808TIP3    H147915   0.303   3.942  33.869 -2.0924 -1.2241  0.6680
 8808TIP3    H247916   0.365   3.814  33.921  1.0171 -0.0713 -0.0057
 8809TIP3   OH247917   1.914   2.603  20.993  0.4386  0.4873 -0.6569
 8809TIP3    H147918   1.949   2.689  20.971 -1.9209  1.5836 -0.3748
 8809TIP3    H247919   1.883   2.568  20.909  1.2021 -0.0157 -0.7364
 8810TIP3   OH247920   1.699   1.726  16.145 -0.1095  0.0502 -0.9901
 8810TIP3    H147921   1.705   1.822  16.147 -0.6850  0.0982 -1.5368
 8810TIP3    H247922   1.653   1.703  16.226  2.7190  0.0084  0.7411
 8811TIP3   OH247923   3.882   3.040   1.099 -0.4870  0.4219 -0.2350
 8811TIP3    H147924   3.915   2.977   1.163 -1.1993 -0.1259 -0.4011
 8811TIP3    H247925   3.788   3.044   1.116 -0.1959  3.2613  1.4166
 8812TIP3   OH247926   1.536   0.866   5.635  0.0106 -0.3438 -0.0894
 8812TIP3    H147927   1.454   0.862   5.685 -0.7255  0.9755 -1.0947
 8812TIP3    H247928   1.544   0.780   5.595  0.1694 -1.1406  1.5789
 8813TIP3   OH247929   1.289   4.005   2.766  0.0484  0.1441 -0.3244
 8813TIP3    H147930   1.262   4.044   2.682 -0.0975 -1.1590 -0.9000
 8813TIP3    H247931   1.209   4.006   2.819 -0.6909 -1.8323 -1.3102
 8814TIP3   OH247932   0.584   3.043   2.125  0.0880 -0.4580 -0.1140
 8814TIP3    H147933   0.623   3.124   2.159 -0.5816  0.5152 -1.5593
 8814TIP3    H247934   0.524   3.015   2.195 -0.1941  0.6930  0.1291
 8815TIP3   OH247935   1.661   1.060  37.569 -0.0129 -0.3687  0.0198
 8815TIP3    H147936   1.617   1.078  37.486  0.3826  0.6352  0.0071
 8815TIP3    H247937   1.608   1.106  37.634 -0.5446 -1.4793  0.3851
 8816TIP3   OH247938   2.845   3.053  34.972  0.4298  0.3156  0.1199
 8816TIP3    H147939   2.798   2.977  35.005  1.5329 -0.0785  0.8595
 8816TIP3    H247940   2.817   3.062  34.881 -3.0914  1.7183  1.1587
 8817TIP3   OH247941   2.299   2.895   4.557 -0.5929  0.2753  0.4238
 8817TIP3    H147942   2.342   2.908   4.473  1.0441 -0.4119  1.1224
 8817TIP3    H247943   2.358   2.937   4.621  0.5081 -2.9685  1.7223
 8818TIP3   OH247944   2.343   2.490  15.936 -0.4170 -0.6352 -0.2717
 8818TIP3    H147945   2.298   2.424  15.989 -0.9568  0.4936  0.7263
 8818TIP3    H247946   2.333   2.459  15.846 -2.0446 -1.1255  0.0422
 8819TIP3   OH247947   1.357   1.528  44.512  0.1205  0.5435 -0.5177
 8819TIP3    H147948   1.319   1.464  44.573  1.3655  0.8348  0.6154
 8819TIP3    H247949   1.310   1.514  44.430  0.2617 -1.7538 -0.2785
 8820TIP3   OH247950   1.216   3.709  32.364  0.3316  0.0393  0.0018
 8820TIP3    H147951   1.305   3.682  32.345  0.4188  0.8886 -0.8572
 8820TIP3    H247952   1.204   3.690  32.457  1.5192  0.2437  0.2045
 8821TIP3   OH247953   0.791   2.388   7.558 -0.3632  0.3168  0.3628
 8821TIP3    H147954   0.699   2.367   7.575 -0.3758 -0.3821 -0.5113
 8821TIP3    H247955   0.831   2.305   7.534  0.2280  0.8156 -0.4276
 8822TIP3   OH247956   0.322   0.410  26.304 -1.0363 -0.7060 -0.1488
 8822TIP3    H147957   0.271   0.415  26.223 -1.9687 -1.3785  0.3799
 8822TIP3    H247958   0.276   0.467  26.365  0.6178  1.1687 -0.5473
 8823TIP3   OH247959   0.513   3.708  38.893 -0.0818  0.6442 -0.4398
 8823TIP3    H147960   0.596   3.756  38.895 -0.6866  1.7591  2.3785
 8823TIP3    H247961   0.539   3.617  38.875  1.5681  1.2075 -1.1097
 8824TIP3   OH247962   3.793   3.871  39.530 -0.2758 -0.2618 -0.8218
 8824TIP3    H147963   3.858   3.908  39.590 -1.0309  2.0400 -1.3284
 8824TIP3    H247964   3.714   3.862  39.584 -0.3418 -0.2687 -0.9204
 8825TIP3   OH247965   3.563   0.090  46.778 -0.0338  0.0734  0.1395
 8825TIP3    H147966   3.647   0.089  46.732 -0.0820  0.0003  0.0509
 8825TIP3    H247967   3.512   0.022  46.734 -0.0635 -0.0273  0.3292
 8826TIP3   OH247968   3.744   2.216  35.172  0.0422 -0.3905  0.0174
 8826TIP3    H147969   3.703   2.144  35.220 -0.9852 -0.4844 -0.9636
 8826TIP3    H247970   3.745   2.289  35.234 -0.8595 -0.6295  0.3247
 8827TIP3   OH247971   3.837   1.820  37.895 -0.4873 -0.4636 -0.1801
 8827TIP3    H147972   3.895   1.759  37.939 -0.6679  0.1599  0.9492
 8827TIP3    H247973   3.806   1.772  37.818 -0.2981 -1.6372  0.4569
 8828TIP3   OH247974   1.508   2.422  10.393 -0.0864 -0.4938 -0.5100
 8828TIP3    H147975   1.587   2.421  10.447  0.2487  4.1945 -0.5015
 8828TIP3    H247976   1.535   2.385  10.309  1.8773  0.1494 -0.1990
 8829TIP3   OH247977   3.166   2.564   4.578 -0.1446 -0.0938 -0.3299
 8829TIP3    H147978   3.194   2.654   4.597  0.6294 -0.3481 -0.2398
 8829TIP3    H247979   3.247   2.514   4.574 -0.5227 -0.6750 -1.0169
 8830TIP3   OH247980   2.043   1.377   3.426  0.6059 -0.0955 -0.2469
 8830TIP3    H147981   1.957   1.378   3.386  0.9897  0.1877 -1.0822
 8830TIP3    H247982   2.102   1.347   3.357  1.5433  2.0075 -0.4449
 8831TIP3   OH247983   2.501   3.551  15.062 -0.1330 -0.0187  0.6201
 8831TIP3    H147984   2.442   3.623  15.042 -2.1988 -1.6526  0.5734
 8831TIP3    H247985   2.481   3.528  15.153 -0.1150 -1.0893  0.3590
 8832TIP3   OH247986   2.476   3.515  41.356  0.2720 -0.0204 -0.0936
 8832TIP3    H147987   2.452   3.589  41.300  0.3433 -0.6539 -0.9863
 8832TIP3    H247988   2.567   3.497  41.333  0.2281 -0.4409  0.0672
 8833TIP3   OH247989   1.708   1.689  11.237 -0.7414 -0.3021 -0.2839
 8833TIP3    H147990   1.765   1.660  11.309 -1.1989  0.4912  0.4124
 8833TIP3    H247991   1.719   1.622  11.170  1.2646  0.0006 -0.3116
 8834TIP3   OH247992   1.000   3.520  26.468 -0.5753  0.1799  0.1378
 8834TIP3    H147993   0.981   3.475  26.550  1.2659 -2.1052 -0.6006
 8834TIP3    H247994   1.060   3.591  26.492 -1.2012  0.4622  0.9197
 8835TIP3   OH247995   2.517   0.263  44.721  0.7641 -0.0770  0.1661
 8835TIP3    H147996   2.478   0.184  44.758 -1.3199  0.9847  0.3993
 8835TIP3    H247997   2.584   0.231  44.660  0.5988 -1.9685  0.9134
 8836TIP3   OH247998   1.730   3.238  33.900 -0.2717 -0.2731 -0.1961
 8836TIP3    H147999   1.641   3.265  33.879 -0.0589  0.3270 -0.3751
 8836TIP3    H248000   1.779   3.254  33.819 -0.0097 -0.6193 -0.1062
 8837TIP3   OH248001   3.556   0.948   2.685  0.0706 -0.3570  0.4449
 8837TIP3    H148002   3.586   0.942   2.594  1.0076 -1.6544  0.8175
 8837TIP3    H248003   3.475   0.897   2.686 -0.2587  0.1517  0.2213
 8838TIP3   OH248004   0.962   3.604  35.468 -0.0191  0.0540  0.2912
 8838TIP3    H148005   0.959   3.637  35.378 -2.4836 -1.4711 -0.2596
 8838TIP3    H248006   1.010   3.521  35.461 -1.8861 -1.0439 -0.0262
 8839TIP3   OH248007   0.331   1.223  14.585 -0.1634  0.1439  0.1596
 8839TIP3    H148008   0.262   1.156  14.583  0.6747 -0.7418  0.0626
 8839TIP3    H248009   0.369   1.216  14.673 -0.6311  1.1016  0.4550
 8840TIP3   OH248010   3.950   1.843  45.674 -0.2012 -0.1657  0.6801
 8840TIP3    H148011   3.998   1.772  45.716  0.0319  0.0554  0.7847
 8840TIP3    H248012   3.940   1.815  45.583  0.4093 -0.0607  0.5828
 8841TIP3   OH248013   3.853   0.284  27.745 -0.0115 -0.1765  0.2097
 8841TIP3    H148014   3.794   0.243  27.683 -0.6459  1.6406 -0.4410
 8841TIP3    H248015   3.832   0.378  27.741  0.3607  0.0814  2.6944
 8842TIP3   OH248016   0.381   0.562  44.165 -0.3400  0.3293  0.0972
 8842TIP3    H148017   0.343   0.476  44.147 -1.3342  0.5830  0.8826
 8842TIP3    H248018   0.409   0.557  44.256 -1.2551  1.1173  0.4390
 8843TIP3   OH248019   2.390   0.120  36.578 -0.1303  0.1533  0.0659
 8843TIP3    H148020   2.470   0.081  36.541  0.8182  2.0292  0.0348
 8843TIP3    H248021   2.420   0.162  36.659 -0.9463  1.5017 -0.3136
 8844TIP3   OH248022   3.459   2.146  34.790 -0.1691  1.0488  0.1692
 8844TIP3    H148023   3.522   2.215  34.812  1.3586 -0.4910  0.8503
 8844TIP3    H248024   3.452   2.149  34.695  0.0174  1.9973  0.1726
 8845TIP3   OH248025   1.006   2.219  33.528  0.2000 -0.6890  0.1688
 8845TIP3    H148026   0.983   2.292  33.472 -0.1576 -0.4968  0.5603
 8845TIP3    H248027   0.926   2.200  33.577  0.9795  0.3199  1.9169
 8846TIP3   OH248028   3.350   1.740  33.385  0.4264  0.1314 -0.5047
 8846TIP3    H148029   3.319   1.759  33.296  1.9413 -0.6416 -1.2439
 8846TIP3    H248030   3.275   1.700  33.428  0.8629 -3.9319 -2.9748
 8847TIP3   OH248031   1.030   2.045  40.251 -0.6599 -0.3767  0.2964
 8847TIP3    H148032   0.987   2.126  40.277 -0.1797  0.9945 -2.7822
 8847TIP3    H248033   0.983   2.017  40.173  0.9665 -1.5206 -0.3186
 8848TIP3   OH248034   2.879   4.073  32.921  0.0037  0.5451  0.6844
 8848TIP3    H148035   2.881   3.989  32.876 -1.4454  0.7505  0.1993
 8848TIP3    H248036   2.971   4.092  32.940  0.5622 -0.0677 -1.2243
 8849TIP3   OH248037   0.701   0.416  34.884 -0.0340 -0.0319  0.1992
 8849TIP3    H148038   0.629   0.440  34.943 -0.2956  0.1102 -0.1753
 8849TIP3    H248039   0.679   0.328  34.854 -0.6471  0.4372 -0.7976
 8850TIP3   OH248040   1.172   0.240  34.989  0.4607 -0.0298 -0.0976
 8850TIP3    H148041   1.141   0.216  35.076  0.6323 -0.9490 -0.2833
 8850TIP3    H248042   1.266   0.256  35.000  0.3994  0.2886 -0.0301
 8851TIP3   OH248043   0.142   3.383   1.815 -0.1561 -0.0098 -0.2677
 8851TIP3    H148044   0.209   3.442   1.848 -0.8869 -0.0121  1.2813
 8851TIP3    H248045   0.154   3.302   1.865  0.8007 -1.2260 -2.3103
 8852TIP3   OH248046   2.173   0.762  44.321 -0.2209  0.4321  0.9623
 8852TIP3    H148047   2.162   0.846  44.365  0.7013  0.0784  1.8818
 8852TIP3    H248048   2.255   0.770  44.273 -0.6815  0.4331  0.1540
 8853TIP3   OH248049   1.167   0.312  30.354 -1.1447 -0.5690  0.1229
 8853TIP3    H148050   1.158   0.226  30.395  0.5141 -0.6048  0.4853
 8853TIP3    H248051   1.246   0.350  30.394  0.4198 -0.4813 -2.7668
 8854TIP3   OH248052   0.153   1.071  43.146  0.5140  0.0710  0.0444
 8854TIP3    H148053   0.071   1.023  43.136 -0.0086  0.8900  0.3280
 8854TIP3    H248054   0.219   1.012  43.110  0.1024 -1.4486  1.6375
 8855TIP3   OH248055   3.072   4.086  13.025  0.0971  0.1148 -0.8040
 8855TIP3    H148056   3.070   3.999  12.986 -0.1590  0.4811 -1.6428
 8855TIP3    H248057   3.117   4.140  12.960  2.4496  0.1456  0.7318
 8856TIP3   OH248058   2.210   1.970   8.485  0.3006 -0.3507  0.0568
 8856TIP3    H148059   2.300   1.941   8.500  0.4471  0.0817  0.0122
 8856TIP3    H248060   2.157   1.891   8.500  0.5735 -0.3193  1.3208
 8857TIP3   OH248061   3.416   0.372   8.805 -0.2759  0.4650  0.1935
 8857TIP3    H148062   3.397   0.323   8.885 -0.9018 -0.3138 -0.4106
 8857TIP3    H248063   3.342   0.431   8.795 -0.2725  0.4555  0.1100
 8858TIP3   OH248064   1.556   1.062  10.475 -0.7537  0.3120 -0.9681
 8858TIP3    H148065   1.575   1.094  10.387 -2.8211 -1.8693 -2.3235
 8858TIP3    H248066   1.605   0.980  10.482 -1.2677  0.0452 -0.3991
 8859TIP3   OH248067   3.516   2.773   6.956 -0.0204  0.4590 -0.3506
 8859TIP3    H148068   3.577   2.814   7.017  0.4133 -0.2828 -0.2714
 8859TIP3    H248069   3.541   2.680   6.956  0.6741  0.5888 -2.4162
 8860TIP3   OH248070   2.445   1.231  42.340  0.0845 -0.1057  0.1429
 8860TIP3    H148071   2.525   1.263  42.298  0.0306  1.8159  1.3597
 8860TIP3    H248072   2.476   1.177  42.412  0.2066 -1.4770 -0.9022
 8861TIP3   OH248073   2.648   2.244  15.400 -0.2742  0.0422 -0.2154
 8861TIP3    H148074   2.573   2.234  15.458 -0.0209  0.7855  0.2539
 8861TIP3    H248075   2.620   2.308  15.335 -0.0976  0.2118 -0.1247
 8862TIP3   OH248076   2.516   2.779   3.911 -0.0066 -0.2742 -0.1686
 8862TIP3    H148077   2.468   2.795   3.993  0.7290 -2.2321  0.6930
 8862TIP3    H248078   2.482   2.696   3.880  0.8363 -0.3034 -1.0445
 8863TIP3   OH248079   2.798   1.109  20.687 -0.0895  0.5545 -0.3553
 8863TIP3    H148080   2.871   1.048  20.699 -0.5993 -0.9999 -3.8309
 8863TIP3    H248081   2.719   1.055  20.696 -0.6477  1.2415 -0.9606
 8864TIP3   OH248082   0.315   0.001  47.673  0.1509 -0.0816  0.0262
 8864TIP3    H148083   0.236   0.016  47.725 -0.6601  0.6390 -1.3733
 8864TIP3    H248084   0.318  -0.094  47.660 -1.1180 -0.0109 -0.8648
 8865TIP3   OH248085   3.955   3.058  38.288  0.0917  0.0336  0.0639
 8865TIP3    H148086   3.946   2.980  38.233 -1.3068 -1.2587  1.9798
 8865TIP3    H248087   3.883   3.051  38.352  1.3937  1.6319  1.8302
 8866TIP3   OH248088   3.105   1.809  39.275  0.2272  0.2720  0.2244
 8866TIP3    H148089   3.118   1.881  39.337 -0.6329 -1.1873  2.1840
 8866TIP3    H248090   3.156   1.737  39.310  0.4437 -0.3382 -1.2815
 8867TIP3   OH248091   1.590   2.653  38.699 -0.7260  0.1455 -0.5396
 8867TIP3    H148092   1.640   2.650  38.617 -0.4482 -1.4971 -0.3395
 8867TIP3    H248093   1.563   2.745  38.707  0.1612  0.5584 -1.9076
 8868TIP3   OH248094   2.631   0.920  12.556  0.4319  0.0471  0.2331
 8868TIP3    H148095   2.580   0.963  12.625 -0.3225  0.2694 -0.4528
 8868TIP3    H248096   2.627   0.980  12.482 -0.1590 -0.9132 -0.5437
 8869TIP3   OH248097   1.435   4.014   2.496 -0.5470  0.2686 -0.9709
 8869TIP3    H148098   1.505   3.959   2.461  0.4437  1.7507 -1.4591
 8869TIP3    H248099   1.355   3.965   2.481  0.4990 -2.6713  1.8977
 8870TIP3   OH248100   0.941   2.062  43.877  0.0899 -0.9404 -0.1121
 8870TIP3    H148101   0.868   2.085  43.820  1.3149 -0.6335 -1.6167
 8870TIP3    H248102   0.991   1.998  43.827  0.8314 -1.1812  0.9125
 8871TIP3   OH248103   0.662   1.229  15.069 -0.3025  0.7477  0.4484
 8871TIP3    H148104   0.628   1.139  15.069  2.1685 -0.3502 -1.8086
 8871TIP3    H248105   0.757   1.218  15.069  0.1767  3.1423 -3.2631
 8872TIP3   OH248106   1.767   3.363  33.444 -0.2694  0.0676  0.4075
 8872TIP3    H148107   1.695   3.426  33.440  0.0429  0.4413  0.5919
 8872TIP3    H248108   1.843   3.411  33.410  0.0735 -0.0621  0.9753
 8873TIP3   OH248109   1.477   3.444  42.015  0.1582 -0.3592 -0.3915
 8873TIP3    H148110   1.493   3.376  42.080  2.3771  0.2633 -0.2005
 8873TIP3    H248111   1.474   3.525  42.067 -0.8312 -0.1263 -0.7923
 8874TIP3   OH248112   0.153   0.582   9.363  0.0993  0.6224 -0.2958
 8874TIP3    H148113   0.112   0.496   9.351  1.3441 -0.0566  0.1318
 8874TIP3    H248114   0.218   0.568   9.432  1.2492  1.5641 -1.1361
 8875TIP3   OH248115   0.428   1.928  34.117  0.6733  0.2555  0.6236
 8875TIP3    H148116   0.479   1.860  34.071  1.4572 -0.2138  2.1025
 8875TIP3    H248117   0.490   1.966  34.178 -0.8596 -0.7622  2.9551
 8876TIP3   OH248118   2.855   0.255  39.398  0.4637 -0.5498 -0.4013
 8876TIP3    H148119   2.834   0.250  39.304  1.0287 -3.8069 -0.4825
 8876TIP3    H248120   2.947   0.230  39.403  1.3000  2.3980  0.8873
 8877TIP3   OH248121   3.724   1.087   7.183 -0.5727 -0.1138 -0.1430
 8877TIP3    H148122   3.752   1.049   7.099  2.0417  2.6563 -0.6916
 8877TIP3    H248123   3.802   1.084   7.238 -1.8987 -0.6992  1.8149
 8878TIP3   OH248124   3.995   2.583   9.678  0.0431 -0.1448 -0.4648
 8878TIP3    H148125   3.971   2.491   9.692 -1.2408  0.1278 -0.7343
 8878TIP3    H248126   3.929   2.615   9.615  0.7368  0.8425 -0.7089
 8879TIP3   OH248127   1.285   1.105  47.021  0.3008 -0.6268  0.6794
 8879TIP3    H148128   1.300   1.097  46.927  0.1471  0.3800  0.5615
 8879TIP3    H248129   1.220   1.175  47.029  0.4670 -0.5653  1.5471
 8880TIP3   OH248130   0.596   3.595  14.846 -0.7708  0.0023 -0.4081
 8880TIP3    H148131   0.586   3.608  14.752  0.3680 -2.0457 -0.8930
 8880TIP3    H248132   0.547   3.515  14.864  2.9057 -2.5029 -0.3299
 8881TIP3   OH248133   2.969   2.318   0.342 -0.5775  0.1137 -0.4406
 8881TIP3    H148134   2.923   2.281   0.266  1.5670 -1.0199 -1.3011
 8881TIP3    H248135   2.992   2.242   0.395 -1.3218  0.8319  0.9484
 8882TIP3   OH248136   3.770   2.257  32.190  0.0213 -0.3940 -0.7122
 8882TIP3    H148137   3.862   2.278  32.203  0.5095 -2.4697 -0.5282
 8882TIP3    H248138   3.757   2.174  32.236 -2.0398  0.0358 -0.4126
 8883TIP3   OH248139   1.619   2.547  14.659 -0.2425  0.2554  0.3131
 8883TIP3    H148140   1.639   2.639  14.644  0.0300  0.1095 -0.2576
 8883TIP3    H248141   1.549   2.527  14.597  0.1622 -0.0835 -0.0546
 8884TIP3   OH248142   3.534   0.105  15.472  0.1140  0.2218 -0.4763
 8884TIP3    H148143   3.525   0.030  15.413 -0.4493 -0.9238  1.0077
 8884TIP3    H248144   3.444   0.135  15.487  0.1927  0.0283  0.3948
 8885TIP3   OH248145   3.462   2.042   6.896 -0.0192  0.2854 -0.0853
 8885TIP3    H148146   3.401   1.977   6.861 -0.1988  1.3072 -1.7947
 8885TIP3    H248147   3.410   2.121   6.905  0.1676  0.2199  2.0779
 8886TIP3   OH248148   2.665   0.598  30.604  0.0548  0.1224 -0.6327
 8886TIP3    H148149   2.667   0.655  30.681 -0.8446  0.3367 -0.7524
 8886TIP3    H248150   2.736   0.630  30.549 -0.1709  0.8615 -0.5082
 8887TIP3   OH248151   0.240   3.519  32.405  0.3047  0.4342  0.0546
 8887TIP3    H148152   0.306   3.462  32.443 -0.5783 -0.4977  0.2376
 8887TIP3    H248153   0.173   3.460  32.371  0.7685  1.2521 -2.4730
 8888TIP3   OH248154   3.802   1.427   3.229  0.4074  0.4172 -0.3839
 8888TIP3    H148155   3.794   1.448   3.322  0.2483  0.0492 -0.3120
 8888TIP3    H248156   3.868   1.487   3.196 -0.2822  1.2596 -0.2559
 8889TIP3   OH248157   3.516   3.602  15.128 -0.2907  0.2158  0.3725
 8889TIP3    H148158   3.530   3.611  15.222 -0.4301 -0.8033  0.5093
 8889TIP3    H248159   3.509   3.507  15.114 -0.3987  0.3599 -0.6443
 8890TIP3   OH248160   2.650   1.166  11.951  0.1788  0.4165 -0.3247
 8890TIP3    H148161   2.639   1.089  11.895  0.4220 -0.6526  1.0385
 8890TIP3    H248162   2.562   1.182  11.987 -0.2452  1.8401 -1.8821
 8891TIP3   OH248163   0.319   1.165  33.677 -0.4887  0.2495  0.1472
 8891TIP3    H148164   0.301   1.146  33.585  2.3316 -2.4630 -0.0282
 8891TIP3    H248165   0.393   1.227  33.674  2.0193 -2.4860  0.3142
 8892TIP3   OH248166   3.576   1.281  33.880 -0.3234 -0.7243 -0.2892
 8892TIP3    H148167   3.522   1.361  33.882 -0.9951 -1.1678  1.0724
 8892TIP3    H248168   3.532   1.224  33.817 -1.6197 -1.1602  0.9610
 8893TIP3   OH248169   2.639   3.780   4.070  0.3896 -0.0884 -0.6950
 8893TIP3    H148170   2.634   3.724   4.148 -2.9053  1.0611  0.1079
 8893TIP3    H248171   2.588   3.733   4.004 -0.1730  0.7111 -0.8489
 8894TIP3   OH248172   3.194   2.532   6.607 -0.0789 -0.0190 -0.2418
 8894TIP3    H148173   3.137   2.578   6.669  1.4458  0.3956  0.9312
 8894TIP3    H248174   3.225   2.601   6.548 -0.4417 -0.1687 -0.6120
 8895TIP3   OH248175   0.353   2.387  39.205 -0.3569 -0.3032 -0.4868
 8895TIP3    H148176   0.360   2.306  39.154 -0.3680  0.1674 -1.2390
 8895TIP3    H248177   0.269   2.425  39.179 -2.5902 -2.2291  3.0912
 8896TIP3   OH248178   1.414   3.443   3.604 -0.0480 -0.7298  0.1371
 8896TIP3    H148179   1.465   3.505   3.655  0.1083  1.2366 -2.2159
 8896TIP3    H248180   1.371   3.388   3.669 -0.4383  2.0438  2.4142
 8897TIP3   OH248181   1.369   0.568  45.458  0.6929 -0.4117 -0.6145
 8897TIP3    H148182   1.432   0.500  45.479  0.6458 -0.3828 -0.3737
 8897TIP3    H248183   1.420   0.636  45.414  1.3907  0.8517  1.9368
 8898TIP3   OH248184   2.307   3.571   2.773  0.0918 -0.4751 -0.2154
 8898TIP3    H148185   2.399   3.569   2.748  0.1887  0.8615 -0.0174
 8898TIP3    H248186   2.301   3.641   2.838 -1.0793 -0.5150 -0.2597
 8899TIP3   OH248187   0.993   1.971  37.011 -0.0650 -0.5336 -0.5244
 8899TIP3    H148188   0.925   1.992  37.074 -0.9244  1.9493 -2.1291
 8899TIP3    H248189   1.070   1.950  37.064 -1.5571 -1.6174  1.3147
 8900TIP3   OH248190   3.561   3.286   8.481 -0.4122 -0.7201 -0.0663
 8900TIP3    H148191   3.536   3.242   8.562 -0.0282 -3.4757 -1.3201
 8900TIP3    H248192   3.482   3.287   8.428 -0.3683 -0.0493 -0.1227
 8901TIP3   OH248193   1.105   0.187   3.623  0.1413 -0.6642  0.2609
 8901TIP3    H148194   1.045   0.150   3.688 -0.2758  0.8929  0.8110
 8901TIP3    H248195   1.081   0.145   3.541 -3.0360  1.2700  0.0717
 8902TIP3   OH248196   4.004   0.430  36.476 -0.3692 -0.2029  0.7374
 8902TIP3    H148197   4.050   0.350  36.501 -1.8489 -0.7199  1.9319
 8902TIP3    H248198   4.001   0.482  36.556  1.6749  1.6762 -0.3102
 8903TIP3   OH248199   0.973   1.975   4.879 -0.1990  0.0202  0.0527
 8903TIP3    H148200   0.973   1.880   4.893  1.7354 -0.0098  0.0472
 8903TIP3    H248201   1.025   1.988   4.799 -0.7242  1.0688 -0.1362
 8904TIP3   OH248202   2.858   3.210   3.161  0.3629 -0.0959 -0.2711
 8904TIP3    H148203   2.932   3.217   3.222  0.8110  0.1566 -0.8321
 8904TIP3    H248204   2.806   3.136   3.194  0.4733  0.1877  0.5440
 8905TIP3   OH248205   2.888   2.918  41.814  0.1782 -0.0522  0.4990
 8905TIP3    H148206   2.888   2.927  41.719 -0.3938 -0.3334  0.4646
 8905TIP3    H248207   2.968   2.961  41.843 -0.2937  1.2068 -0.0003
 8906TIP3   OH248208   0.437   3.968  39.104 -0.0775  0.0220 -0.0916
 8906TIP3    H148209   0.441   3.954  39.199 -3.9462  0.8289  0.3233
 8906TIP3    H248210   0.496   4.042  39.088  0.2191  0.2245  1.7543
 8907TIP3   OH248211   3.114   2.695  38.024  0.0961  0.3136  0.0077
 8907TIP3    H148212   3.084   2.703  37.934 -0.0800 -2.0593 -0.2033
 8907TIP3    H248213   3.036   2.675  38.075  0.1710  1.7752  0.7343
 8908TIP3   OH248214   0.524   2.803  40.439  1.0777 -0.4136 -0.2408
 8908TIP3    H148215   0.574   2.831  40.515  2.3851 -1.8213 -0.5338
 8908TIP3    H248216   0.524   2.708  40.443 -1.4492 -0.4946 -0.3842
 8909TIP3   OH248217   0.244   1.901  36.383  0.4436 -0.5848  0.4023
 8909TIP3    H148218   0.301   1.977  36.371  0.7158 -1.0940 -1.9715
 8909TIP3    H248219   0.163   1.938  36.419  0.9170  0.6860  0.2105
 8910TIP3   OH248220   1.109   1.706   9.235 -0.2099  0.3937  0.2732
 8910TIP3    H148221   1.161   1.670   9.308 -1.1614 -0.3102  0.6369
 8910TIP3    H248222   1.058   1.776   9.275 -3.1712 -2.0262  1.1802
 8911TIP3   OH248223   1.329   3.395  37.846  0.7085  0.4812  0.2290
 8911TIP3    H148224   1.274   3.420  37.772  1.1279 -1.0147 -0.6170
 8911TIP3    H248225   1.408   3.357  37.807 -0.1093 -2.7225  1.3309
 8912TIP3   OH248226   1.048   3.589  27.187  0.1772 -0.0799 -0.5351
 8912TIP3    H148227   1.123   3.591  27.129  1.7584  2.3455  1.3760
 8912TIP3    H248228   1.074   3.530  27.258 -1.0246 -1.6139 -1.2962
 8913TIP3   OH248229   1.283   1.561  13.369 -0.6689  0.0055  0.3122
 8913TIP3    H148230   1.288   1.654  13.348 -0.5253 -0.4495 -2.0429
 8913TIP3    H248231   1.335   1.550  13.448 -0.8576  1.9499  0.7357
 8914TIP3   OH248232   3.512   1.418  36.868 -0.2286  0.0376 -0.5454
 8914TIP3    H148233   3.512   1.449  36.958  2.4638 -0.0704 -0.4071
 8914TIP3    H248234   3.599   1.442  36.835 -0.9442 -0.3820 -2.9616
 8915TIP3   OH248235   0.740   2.276  12.276 -0.1397  0.7556 -0.5922
 8915TIP3    H148236   0.661   2.223  12.264  0.1933 -0.1327  0.8422
 8915TIP3    H248237   0.746   2.329  12.196 -2.7268  1.6127 -0.3012
 8916TIP3   OH248238   2.249   1.170   7.367  0.7220 -0.0638 -0.1015
 8916TIP3    H148239   2.334   1.133   7.345  1.3147 -0.9310  3.0673
 8916TIP3    H248240   2.186   1.121   7.315  1.8022 -3.0300  1.1946
 8917TIP3   OH248241   2.503   1.933  21.090 -0.0317  0.1744 -0.2814
 8917TIP3    H148242   2.420   1.896  21.061  0.1611 -0.3759 -0.1351
 8917TIP3    H248243   2.488   1.956  21.182  0.1325 -0.3870 -0.1136
 8918TIP3   OH248244   2.750   0.986   9.133  0.1823  0.4250  0.0995
 8918TIP3    H148245   2.724   1.023   9.049 -0.8777  0.3055  0.3657
 8918TIP3    H248246   2.711   1.043   9.198  0.8280  0.3984  0.5202
 8919TIP3   OH248247   3.398   3.592  39.634 -0.2737 -0.0216  0.2452
 8919TIP3    H148248   3.386   3.498  39.647  0.7587 -0.4511 -1.5449
 8919TIP3    H248249   3.316   3.621  39.594 -0.5836 -0.1647  0.7755
 8920TIP3   OH248250   3.941   1.557  45.864 -0.7067  0.3782 -0.0826
 8920TIP3    H148251   3.936   1.494  45.792  0.6526  1.5746 -1.2967
 8920TIP3    H248252   3.854   1.598  45.865 -1.9649 -2.1137  1.3972
 8921TIP3   OH248253   0.292   3.484  13.445  0.2763 -0.3757 -0.4863
 8921TIP3    H148254   0.321   3.565  13.402 -0.6334  0.3346  0.2061
 8921TIP3    H248255   0.283   3.421  13.373  2.6193 -0.3896 -0.8428
 8922TIP3   OH248256   2.465   4.078   8.037  0.2443  0.3489  0.2010
 8922TIP3    H148257   2.374   4.074   8.066 -0.0297 -2.3838 -0.7538
 8922TIP3    H248258   2.516   4.083   8.118 -0.7040  1.0294  0.7754
 8923TIP3   OH248259   4.027   3.743  43.785 -0.0124 -0.1361  0.0854
 8923TIP3    H148260   4.073   3.669  43.745 -0.8465 -0.7516  0.2430
 8923TIP3    H248261   4.069   3.755  43.870  2.5030  1.8544 -1.2792
 8924TIP3   OH248262   2.765   4.080  11.857  0.5119  0.0513  0.3960
 8924TIP3    H148263   2.679   4.098  11.896  0.1320 -2.0736  0.6916
 8924TIP3    H248264   2.805   4.166  11.845 -0.7757  0.9859  2.2768
 8925TIP3   OH248265   1.021   3.015  40.063  0.1011  0.0032  0.4966
 8925TIP3    H148266   1.054   3.096  40.025 -0.4281 -0.2828 -0.6328
 8925TIP3    H248267   1.008   3.035  40.155  0.3289  1.0831  0.3102
 8926TIP3   OH248268   2.589   0.498  47.017 -1.2963  0.3358  0.3366
 8926TIP3    H148269   2.535   0.466  47.089 -1.0719  0.9373  0.7701
 8926TIP3    H248270   2.671   0.525  47.058 -1.6130  1.8296  0.0396
 8927TIP3   OH248271   1.862   3.730   0.240 -0.0032  0.1536 -0.3039
 8927TIP3    H148272   1.849   3.742   0.334  1.4915 -0.2864 -0.0018
 8927TIP3    H248273   1.947   3.685   0.234 -0.6901 -1.0152 -1.8107
 8928TIP3   OH248274   2.546   1.050  20.642 -0.0738  0.2915 -0.2224
 8928TIP3    H148275   2.507   1.016  20.561  2.6571 -0.9689 -1.1433
 8928TIP3    H248276   2.480   1.033  20.709 -1.1643 -1.5970 -1.6716
 8929TIP3   OH248277   2.498   0.438  47.300  0.3519 -0.1419 -0.0570
 8929TIP3    H148278   2.591   0.425  47.321  0.1707  0.4166  1.2174
 8929TIP3    H248279   2.451   0.403  47.376 -0.3866  1.2549  0.1620
 8930TIP3   OH248280   3.057   3.507  14.108 -0.4033 -0.5284 -0.1357
 8930TIP3    H148281   2.989   3.541  14.049 -0.4508  0.7967  0.6405
 8930TIP3    H248282   3.016   3.431  14.151 -2.3587  1.5923  2.0673
 8931TIP3   OH248283   1.949   3.008  11.583  0.0731 -0.2349  0.1640
 8931TIP3    H148284   2.044   3.002  11.587  0.2910  1.5671 -1.0409
 8931TIP3    H248285   1.931   3.102  11.574 -1.9394 -0.3017  2.4662
 8932TIP3   OH248286   3.083   0.398  42.073 -0.5282 -0.2834  0.2407
 8932TIP3    H148287   2.990   0.374  42.078 -1.0849  1.6425 -0.1382
 8932TIP3    H248288   3.091   0.444  41.989  0.7844 -0.4219  0.2670
 8933TIP3   OH248289   2.058   2.278  40.642 -0.0861  0.4469 -0.2157
 8933TIP3    H148290   2.134   2.324  40.607 -0.1244  0.0430 -0.8684
 8933TIP3    H248291   1.984   2.336  40.625 -0.0674  0.3651 -0.5960
 8934TIP3   OH248292   0.239   1.465   4.461 -0.0903 -0.2553  0.0150
 8934TIP3    H148293   0.205   1.396   4.519 -1.1920 -0.4432 -0.8205
 8934TIP3    H248294   0.245   1.423   4.375 -1.1423  0.7709 -0.5900
 8935TIP3   OH248295   1.779   1.835   7.100 -0.7567 -0.1641 -0.0896
 8935TIP3    H148296   1.720   1.898   7.059 -0.4108 -0.0433 -0.4119
 8935TIP3    H248297   1.724   1.760   7.120 -1.0309 -0.0365 -0.3532
 8936TIP3   OH248298   0.707   1.048  45.061 -0.1218 -0.1687 -0.1941
 8936TIP3    H148299   0.768   1.119  45.041 -2.5173  2.2670  0.4590
 8936TIP3    H248300   0.729   1.021  45.150 -0.1106  0.8576  0.1254
 8937TIP3   OH248301   3.559   1.871   6.019  0.2997  0.5201 -0.0550
 8937TIP3    H148302   3.559   1.921   6.101  0.1495  1.0999 -0.3991
 8937TIP3    H248303   3.471   1.882   5.984  0.3593  0.2627 -0.2910
 8938TIP3   OH248304   0.652   2.130  38.227  0.2814 -0.2945  0.2816
 8938TIP3    H148305   0.618   2.211  38.266 -0.2207 -0.1951 -0.3387
 8938TIP3    H248306   0.581   2.100  38.170  0.1598 -1.5876  1.0768
 8939TIP3   OH248307   1.123   1.762  36.685 -0.1269  0.5741 -0.2894
 8939TIP3    H148308   1.120   1.716  36.602  0.7165 -0.6960  0.3438
 8939TIP3    H248309   1.050   1.726  36.735  0.5922 -0.1654  0.2434
 8940TIP3   OH248310   3.890   0.313  42.387  0.2029 -0.1846  0.4885
 8940TIP3    H148311   3.836   0.256  42.442 -0.0615  0.7785  1.2547
 8940TIP3    H248312   3.963   0.339  42.443 -0.6092  1.6438  0.7592
 8941TIP3   OH248313   2.761   1.827  35.749  0.0310 -0.2230  0.4556
 8941TIP3    H148314   2.837   1.791  35.793 -0.0682 -0.5065  0.3952
 8941TIP3    H248315   2.698   1.845  35.820 -0.2352 -0.9383  0.4037
 8942TIP3   OH248316   0.497   0.593  33.183  0.9117  0.7364 -0.5432
 8942TIP3    H148317   0.551   0.647  33.125 -1.0197  2.2313 -1.0724
 8942TIP3    H248318   0.444   0.657  33.232 -0.9370 -0.6282 -0.6543
 8943TIP3   OH248319   3.593   0.156  38.123  0.4215  0.3304  0.1475
 8943TIP3    H148320   3.592   0.061  38.118  0.7842  0.3848 -2.9679
 8943TIP3    H248321   3.662   0.176  38.186  1.5164 -1.4597 -0.4196
 8944TIP3   OH248322   4.061   1.027   8.342 -0.0547  0.9065 -0.1421
 8944TIP3    H148323   4.147   0.996   8.316 -0.2888 -0.0662  0.2182
 8944TIP3    H248324   4.079   1.093   8.410  0.3885  0.2823  0.3571
 8945TIP3   OH248325   0.633   3.583  12.882  0.0409 -0.1671  0.6441
 8945TIP3    H148326   0.653   3.549  12.795 -2.5366  0.6211 -0.3402
 8945TIP3    H248327   0.696   3.653  12.896  0.4513 -0.2662 -0.6034
 8946TIP3   OH248328   1.154   1.062  36.947  0.2465 -0.0848  0.2732
 8946TIP3    H148329   1.089   1.130  36.964  1.9782  1.2485  2.0812
 8946TIP3    H248330   1.107   0.996  36.896 -2.4673  0.8591  1.3547
 8947TIP3   OH248331   2.498   0.519  42.830 -0.0916  0.2461 -0.2549
 8947TIP3    H148332   2.520   0.426  42.817  0.1008  0.3939 -1.0619
 8947TIP3    H248333   2.411   0.528  42.793  0.4058  0.6488 -1.3832
 8948TIP3   OH248334   0.988   3.156  13.322  0.2541 -0.0150 -0.0222
 8948TIP3    H148335   0.940   3.073  13.322  2.0173 -1.1053  0.7946
 8948TIP3    H248336   0.977   3.191  13.234  0.0898 -1.5048 -0.6118
 8949TIP3   OH248337   1.870   3.271  39.151  0.3378 -0.5239 -0.4820
 8949TIP3    H148338   1.806   3.203  39.170 -0.0427 -0.4507 -1.4267
 8949TIP3    H248339   1.821   3.353  39.157  0.1011 -0.5174 -2.0544
 8950TIP3   OH248340   1.548   2.030   4.672 -0.1179  0.1824 -0.5090
 8950TIP3    H148341   1.636   2.048   4.640  0.0628  2.1345  0.9454
 8950TIP3    H248342   1.557   1.951   4.726  0.3585 -0.6454 -1.7531
 8951TIP3   OH248343   1.209   3.286  42.309  0.1945  0.1967 -0.0858
 8951TIP3    H148344   1.193   3.221  42.241  2.4788  1.3767 -1.8624
 8951TIP3    H248345   1.260   3.239  42.376  1.5031  0.0118 -1.1725
 8952TIP3   OH248346   0.403   0.312   3.577  0.4561  0.1314 -0.2608
 8952TIP3    H148347   0.393   0.217   3.571 -0.4980 -0.0056  2.2200
 8952TIP3    H248348   0.428   0.328   3.669  2.9901  2.1453 -1.1616
 8953TIP3   OH248349   1.794   1.991  42.662 -0.3312 -0.2094 -0.2571
 8953TIP3    H148350   1.827   2.074  42.628  0.9105 -0.5333  0.1218
 8953TIP3    H248351   1.828   1.925  42.602 -1.2517 -0.4598 -0.5115
 8954TIP3   OH248352   0.211   0.650  45.371  0.1121  0.4175 -0.1525
 8954TIP3    H148353   0.146   0.589  45.335 -0.7764  0.6318  1.0147
 8954TIP3    H248354   0.181   0.667  45.460  1.7119  0.6386  0.3782
 8955TIP3   OH248355   1.470   1.559  35.576  0.3990  0.3666 -0.0374
 8955TIP3    H148356   1.525   1.492  35.535  0.6016  0.8702 -0.6073
 8955TIP3    H248357   1.382   1.520  35.580  1.2811 -1.7302  3.7835
 8956TIP3   OH248358   2.834   1.785  14.011  0.8123 -0.1911  0.1516
 8956TIP3    H148359   2.897   1.836  14.062  0.1814  0.2065  0.5631
 8956TIP3    H248360   2.749   1.810  14.047  0.4074 -0.5935 -0.4972
 8957TIP3   OH248361   2.782   0.489  40.275 -0.6793  0.5762 -1.2625
 8957TIP3    H148362   2.802   0.420  40.338  0.1624  0.6340 -1.4613
 8957TIP3    H248363   2.712   0.452  40.220 -0.6249  0.0973 -1.0126
 8958TIP3   OH248364   2.045   1.660   0.388  0.4605  0.1340 -0.1697
 8958TIP3    H148365   2.075   1.672   0.298  2.4193 -2.0967  0.0994
 8958TIP3    H248366   2.126   1.649   0.439 -0.6196  0.7744  1.7904
 8959TIP3   OH248367   1.901   2.839  39.205  0.0371 -0.0508 -0.4792
 8959TIP3    H148368   1.890   2.874  39.293  1.8115 -0.9950  0.1640
 8959TIP3    H248369   1.936   2.912  39.154 -0.7799  0.4331 -0.3651
 8960TIP3   OH248370   0.349   2.730  45.767 -0.3852 -0.2302 -0.4471
 8960TIP3    H148371   0.427   2.675  45.778 -1.1358 -1.1319  0.4796
 8960TIP3    H248372   0.356   2.795  45.837  0.4523  0.8475 -1.4871
 8961TIP3   OH248373   3.729   3.034  39.231  0.4094  0.2210  0.1913
 8961TIP3    H148374   3.796   2.999  39.171  0.8440 -1.4581  1.5710
 8961TIP3    H248375   3.763   3.119  39.258  0.7283  0.5237 -1.0654
 8962TIP3   OH248376   1.942   0.127  37.773 -0.1461 -0.3090 -0.0696
 8962TIP3    H148377   1.888   0.053  37.801 -2.3736  0.8493 -1.0695
 8962TIP3    H248378   2.019   0.087  37.733 -0.4380 -2.0445  1.0128
 8963TIP3   OH248379   1.368   3.940  41.922 -0.0753  0.4075 -0.6239
 8963TIP3    H148380   1.366   4.032  41.949 -2.1691 -0.0810  1.1738
 8963TIP3    H248381   1.277   3.912  41.928  0.7703 -2.3240  0.9596
 8964TIP3   OH248382   3.624   1.589  42.413  0.0148 -0.3585  0.1419
 8964TIP3    H148383   3.574   1.549  42.483 -0.1815  0.0096  0.2175
 8964TIP3    H248384   3.652   1.674  42.448 -0.5214  0.0528 -0.3969
 8965TIP3   OH248385   0.764   3.423  11.347 -0.3100  0.3678 -0.0226
 8965TIP3    H148386   0.770   3.482  11.272 -0.1488 -2.1002 -2.0572
 8965TIP3    H248387   0.846   3.374  11.346 -0.5168 -0.0635  1.5006
 8966TIP3   OH248388   2.844   2.458  10.787  0.5127  0.6394  0.0935
 8966TIP3    H148389   2.873   2.549  10.779  1.1093  0.5048  0.6413
 8966TIP3    H248390   2.842   2.441  10.881  1.1752 -0.1555 -0.0236
 8967TIP3   OH248391   1.901   1.635  45.865 -0.0783  0.5817 -0.0655
 8967TIP3    H148392   1.900   1.539  45.868  0.7190  0.5914  1.6861
 8967TIP3    H248393   1.827   1.658  45.808 -0.7305 -1.0460  0.0679
 8968TIP3   OH248394   1.783   3.237  32.265  0.1341  0.1124  0.3780
 8968TIP3    H148395   1.848   3.250  32.196 -0.1536 -0.7732 -0.0751
 8968TIP3    H248396   1.833   3.244  32.347  0.7956 -0.4684  0.0367
 8969TIP3   OH248397   2.225   4.089  28.775  0.5096  0.1635  0.3095
 8969TIP3    H148398   2.227   3.998  28.748  1.7189 -0.4575  2.3378
 8969TIP3    H248399   2.308   4.125  28.744  1.0165 -0.0278  1.4250
 8970TIP3   OH248400   2.354   0.196  30.824  0.6771  0.2373  1.0315
 8970TIP3    H148401   2.317   0.165  30.741  0.7417 -1.3315  1.5517
 8970TIP3    H248402   2.403   0.275  30.801  0.7359 -0.2009 -0.4367
 8971TIP3   OH248403   1.472   4.011   1.198  0.2245  0.4307 -0.2118
 8971TIP3    H148404   1.476   4.107   1.206 -0.7824  0.3750  1.5623
 8971TIP3    H248405   1.455   3.996   1.106  2.5234  1.8547 -0.9520
 8972TIP3   OH248406   1.522   3.753  34.626 -0.5189 -0.0456  0.2356
 8972TIP3    H148407   1.574   3.752  34.546  0.9929  0.7887  1.1747
 8972TIP3    H248408   1.460   3.681  34.615 -0.7704  0.4243 -1.9369
 8973TIP3   OH248409   0.946   3.475  43.547 -0.0123  0.4276  0.0675
 8973TIP3    H148410   0.876   3.449  43.487  0.3000  0.0026 -0.1163
 8973TIP3    H248411   0.906   3.544  43.602 -1.0096 -0.7426  0.8795
 8974TIP3   OH248412   2.145   2.051   9.304 -0.1626 -0.1912 -0.0339
 8974TIP3    H148413   2.198   2.015   9.232  0.8267  2.0023 -0.4879
 8974TIP3    H248414   2.181   2.139   9.318 -1.6838  0.1910  1.7867
 8975TIP3   OH248415   2.775   2.754  34.260 -0.2549  0.1098 -0.1514
 8975TIP3    H148416   2.740   2.803  34.334 -0.0763 -0.2136  0.1578
 8975TIP3    H248417   2.743   2.664  34.274  2.2388 -0.6599  1.2296
 8976TIP3   OH248418   2.770   3.876  11.280 -0.2448  0.4888  0.0824
 8976TIP3    H148419   2.826   3.917  11.346 -0.1142 -0.0676  0.3208
 8976TIP3    H248420   2.688   3.860  11.325 -0.2318  0.3172  0.0464
 8977TIP3   OH248421   3.558   3.171   9.823  0.3245 -0.0460  0.0447
 8977TIP3    H148422   3.611   3.242   9.789  0.1778  0.0234 -0.0380
 8977TIP3    H248423   3.619   3.097   9.832  0.0244 -0.6095 -2.0115
 8978TIP3   OH248424   1.376   0.303  27.179 -0.4922  0.7674  0.1991
 8978TIP3    H148425   1.359   0.370  27.113  0.2082  0.2995 -0.4750
 8978TIP3    H248426   1.330   0.225  27.147 -0.3467  0.6046  0.3850
 8979TIP3   OH248427   3.067   3.064   5.484  0.1495 -0.1025 -0.7183
 8979TIP3    H148428   3.139   3.076   5.422 -0.4435 -1.2382 -1.6809
 8979TIP3    H248429   3.058   2.969   5.490 -1.6248  0.0156 -1.0680
 8980TIP3   OH248430   2.272   3.007  37.575 -0.0785  0.6360  0.1491
 8980TIP3    H148431   2.322   3.063  37.515  0.9314  0.0558  0.4133
 8980TIP3    H248432   2.236   3.067  37.640 -2.4134  1.4720 -1.7834
 8981TIP3   OH248433   2.729   0.640   6.378  0.0982  0.1234 -0.0070
 8981TIP3    H148434   2.633   0.636   6.379 -0.0402  2.5060  0.6312
 8981TIP3    H248435   2.751   0.676   6.292  0.1115  3.5567  1.3001
 8982TIP3   OH248436   2.469   2.432   0.648 -0.0981  0.4844 -0.2094
 8982TIP3    H148437   2.552   2.451   0.692 -0.2113  0.4682  0.0101
 8982TIP3    H248438   2.402   2.443   0.716 -0.4014  1.8060 -0.6899
 8983TIP3   OH248439   4.072   1.818   0.492  0.0161  0.2705 -0.3710
 8983TIP3    H148440   4.069   1.826   0.587  0.3590  0.5147 -0.3817
 8983TIP3    H248441   3.999   1.871   0.461  0.6034  1.1286 -0.3029
 8984TIP3   OH248442   1.234   0.298  27.894 -0.1524  0.3510 -0.5014
 8984TIP3    H148443   1.184   0.338  27.822  1.8190  3.1090 -0.4995
 8984TIP3    H248444   1.321   0.338  27.888  0.6704 -0.7725  2.3044
 8985TIP3   OH248445   4.069   0.434  46.514  0.5591 -0.2325  0.4973
 8985TIP3    H148446   3.977   0.412  46.526  0.6430 -0.3265  1.0160
 8985TIP3    H248447   4.085   0.422  46.421 -0.3775  1.4593  0.0829
 8986TIP3   OH248448   1.217   2.091  46.876 -0.4307  0.2328 -0.0132
 8986TIP3    H148449   1.256   2.154  46.936  2.8186 -2.7955  1.4359
 8986TIP3    H248450   1.141   2.057  46.923 -0.0543  0.5020  0.8157
 8987TIP3   OH248451   0.311   0.297  44.144 -0.0867 -0.4876  0.6786
 8987TIP3    H148452   0.364   0.218  44.150 -0.0740 -0.5486 -0.0651
 8987TIP3    H248453   0.237   0.272  44.088  0.4326  0.2874 -0.3931
 8988TIP3   OH248454   1.915   1.435  14.367 -0.3415 -0.4301 -0.3612
 8988TIP3    H148455   1.949   1.481  14.444  1.1850 -1.3392 -0.4622
 8988TIP3    H248456   1.965   1.354  14.363 -0.6469 -0.5768 -2.1183
 8989TIP3   OH248457   4.066   2.989   5.534  0.8918  0.2100 -0.7663
 8989TIP3    H148458   4.161   2.998   5.531  1.0148 -1.1506 -1.9085
 8989TIP3    H248459   4.049   2.939   5.614  0.9778  1.7635  0.2669
 8990TIP3   OH248460   3.606   0.771  35.716 -0.3087 -0.3810 -0.5942
 8990TIP3    H148461   3.545   0.744  35.785 -0.6252  0.4879 -0.5232
 8990TIP3    H248462   3.551   0.782  35.639 -0.1418 -0.2182 -0.6879
 8991TIP3   OH248463   2.037   0.538   2.535 -0.1915  0.8174  0.1067
 8991TIP3    H148464   1.983   0.565   2.609 -0.9379 -1.7090  0.5917
 8991TIP3    H248465   2.010   0.447   2.518 -0.3292  1.4121 -3.5397
 8992TIP3   OH248466   2.950   1.280  35.445 -0.0389  0.0618  0.3101
 8992TIP3    H148467   2.965   1.372  35.422  0.8913 -0.3779 -0.9531
 8992TIP3    H248468   2.880   1.252  35.387 -0.4931  0.0331  0.8698
 8993TIP3   OH248469   0.549   0.635   9.921 -0.6861 -0.4752 -0.1621
 8993TIP3    H148470   0.623   0.593   9.966 -0.4630  1.2927  1.2845
 8993TIP3    H248471   0.577   0.642   9.830  0.8896 -0.0422  0.3160
 8994TIP3   OH248472   3.651   3.511  45.544  0.3835 -0.0651  0.0322
 8994TIP3    H148473   3.576   3.465  45.582  0.1048  0.9920  0.8073
 8994TIP3    H248474   3.680   3.571  45.613  0.6497  1.0154 -0.9828
 8995TIP3   OH248475   1.026   3.335   9.925  0.0368  0.5735  0.0712
 8995TIP3    H148476   1.066   3.261   9.879 -1.2342 -0.8297  1.1198
 8995TIP3    H248477   1.057   3.326  10.016 -0.1686  1.2967  0.2139
 8996TIP3   OH248478   0.104   0.386  45.408 -0.0064 -0.1583  0.0226
 8996TIP3    H148479   0.033   0.323  45.396  1.0689 -1.7931  1.7188
 8996TIP3    H248480   0.153   0.382  45.326 -0.3552 -1.0480 -0.1585
 8997TIP3   OH248481   2.643   1.883   8.973 -0.3134  0.0618 -0.6773
 8997TIP3    H148482   2.709   1.951   8.961 -0.3413 -0.1210 -2.0296
 8997TIP3    H248483   2.566   1.915   8.924 -0.2583 -1.0095 -1.5029
 8998TIP3   OH248484   3.076   1.114   5.286  0.1707  0.3063 -0.3412
 8998TIP3    H148485   3.071   1.207   5.307  1.7860  0.5523 -0.9405
 8998TIP3    H248486   3.152   1.082   5.334  0.4321 -0.4143 -1.2030
 8999TIP3   OH248487   3.855   1.163   9.975  0.1828 -0.4537  0.0454
 8999TIP3    H148488   3.926   1.226   9.988 -0.4592  0.2572  0.2051
 8999TIP3    H248489   3.867   1.098  10.044  1.2800 -0.9326 -0.5603
 9000TIP3   OH248490   3.247   1.220   6.311 -0.0635 -0.2038  0.4549
 9000TIP3    H148491   3.330   1.258   6.283 -0.2541  0.6321  0.9838
 9000TIP3    H248492   3.271   1.135   6.348  0.2627 -1.0284 -1.5494
 9001TIP3   OH248493   1.395   2.387  46.622 -0.1379 -0.2422  0.2771
 9001TIP3    H148494   1.446   2.391  46.541 -1.6449  2.3252 -0.6767
 9001TIP3    H248495   1.380   2.294  46.636  0.2900 -0.8064 -2.3615
 9002TIP3   OH248496   3.854   0.360   4.190 -0.4559 -0.1418 -0.1437
 9002TIP3    H148497   3.809   0.430   4.238  1.3768  1.1907 -0.2599
 9002TIP3    H248498   3.890   0.403   4.113  0.3102 -1.3304 -0.4693
 9003TIP3   OH248499   0.405   3.052  32.889  0.2473  0.5629 -0.2432
 9003TIP3    H148500   0.391   3.084  32.979  1.5030 -1.5684  0.7865
 9003TIP3    H248501   0.488   3.006  32.893  0.0339 -0.1047 -2.3966
 9004TIP3   OH248502   3.407   0.088  35.997  0.0492  0.2049  0.3609
 9004TIP3    H148503   3.471   0.017  36.001  0.2751  0.3824 -0.0979
 9004TIP3    H248504   3.350   0.065  35.924  0.5095  0.8219 -0.1988
 9005TIP3   OH248505   0.479   1.873  36.629 -0.5989 -0.0093  0.0419
 9005TIP3    H148506   0.390   1.839  36.632 -0.3081 -0.7688  2.8786
 9005TIP3    H248507   0.474   1.949  36.570 -2.6415 -1.1429 -1.3704
 9006TIP3   OH248508   1.991   0.500   4.893 -0.4938  0.0117 -0.3170
 9006TIP3    H148509   2.061   0.474   4.953 -0.8341 -0.4914 -0.1276
 9006TIP3    H248510   1.968   0.420   4.847  0.0998  0.4942 -1.4960
 9007TIP3   OH248511   2.419   3.902  44.838  0.1636 -0.1998  0.5949
 9007TIP3    H148512   2.431   3.865  44.750  0.9523 -0.9395  0.9992
 9007TIP3    H248513   2.485   3.971  44.844 -0.8569  0.8614  0.0979
 9008TIP3   OH248514   3.564   0.259  36.935  0.7693 -0.5402  0.3737
 9008TIP3    H148515   3.639   0.202  36.954  0.7735 -0.7816 -0.3504
 9008TIP3    H248516   3.521   0.270  37.020  0.9340 -1.3917  0.5790
 9009TIP3   OH248517   2.040   3.263  46.223  0.7302 -0.0055  0.2754
 9009TIP3    H148518   2.106   3.201  46.255  0.9891  0.1982  0.1377
 9009TIP3    H248519   2.087   3.345  46.212  0.8509 -0.2435 -1.3580
 9010TIP3   OH248520   1.137   1.694   2.074 -0.6311 -0.0694  0.2251
 9010TIP3    H148521   1.143   1.729   2.163 -1.7586 -0.0857  0.3288
 9010TIP3    H248522   1.095   1.608   2.084  0.5839 -0.7340 -0.1905
 9011TIP3   OH248523   0.651   2.949  45.175 -0.2682 -0.0660  0.3330
 9011TIP3    H148524   0.614   2.868  45.139  0.6358 -0.1070 -0.5200
 9011TIP3    H248525   0.590   3.017  45.146 -0.4439 -0.3034  0.1320
 9012TIP3   OH248526   3.059   3.184  45.207  0.2293  0.1535 -0.0029
 9012TIP3    H148527   3.063   3.178  45.111 -0.4640 -1.9403  0.0355
 9012TIP3    H248528   3.056   3.092  45.236  0.4066  0.7419  2.0344
 9013TIP3   OH248529   2.355   2.713   6.983 -0.2370  0.4719  0.1355
 9013TIP3    H148530   2.304   2.723   6.903 -1.4636  0.9266  0.9501
 9013TIP3    H248531   2.293   2.682   7.048  1.1426 -1.8261  0.4780
 9014TIP3   OH248532   3.452   0.691   4.728 -0.1941 -0.5463  0.0503
 9014TIP3    H148533   3.466   0.743   4.807  0.1085 -1.0395  0.3277
 9014TIP3    H248534   3.492   0.742   4.657  0.0208 -0.3639  0.3036
 9015TIP3   OH248535   3.888   1.209   3.964 -0.0985  0.3070 -0.2886
 9015TIP3    H148536   3.839   1.134   3.932 -0.9489  1.4956 -1.9202
 9015TIP3    H248537   3.976   1.197   3.928  0.6990 -1.4288  2.0068
 9016TIP3   OH248538   3.812   2.135   5.010 -0.2475  0.0932 -0.3975
 9016TIP3    H148539   3.803   2.170   4.922 -1.3255  0.7002 -0.0718
 9016TIP3    H248540   3.856   2.051   4.998  0.6504  0.6860 -1.3853
 9017TIP3   OH248541   3.607   1.060   0.761  0.4815 -0.1851 -0.3085
 9017TIP3    H148542   3.651   1.145   0.754 -0.5194  0.3014 -0.8904
 9017TIP3    H248543   3.558   1.065   0.843  1.1425 -0.5549  0.1136
 9018TIP3   OH248544   2.337   2.774  44.984 -0.1935  0.5760 -0.0250
 9018TIP3    H148545   2.305   2.859  44.955 -2.0119  0.1994  0.7137
 9018TIP3    H248546   2.315   2.770  45.077  0.0979 -0.5910  0.0174
 9019TIP3   OH248547   2.275   0.649  37.191 -0.1082 -0.1512 -0.4789
 9019TIP3    H148548   2.181   0.628  37.195 -0.2599  0.6729  1.0518
 9019TIP3    H248549   2.318   0.565  37.178 -0.9113 -0.9739  1.7399
 9020TIP3   OH248550   1.679   0.850   8.811  0.2823  0.1953 -0.4070
 9020TIP3    H148551   1.593   0.853   8.853  0.2805 -0.1563 -0.3793
 9020TIP3    H248552   1.734   0.907   8.865  0.3377 -0.4300  0.2139
 9021TIP3   OH248553   1.046   1.924  37.591  0.5271 -0.0451  0.8379
 9021TIP3    H148554   1.004   1.843  37.564 -0.9532  0.5800  1.1921
 9021TIP3    H248555   1.084   1.904  37.677  2.0117 -0.9470  0.0191
 9022TIP3   OH248556   3.431   2.881  34.501 -0.1746 -0.4684 -0.0202
 9022TIP3    H148557   3.342   2.868  34.470  0.1769 -1.1269 -0.7965
 9022TIP3    H248558   3.446   2.810  34.564 -0.0071 -0.7086 -0.3283
 9023TIP3   OH248559   2.429   3.930   7.643 -0.2921 -0.2526  0.1288
 9023TIP3    H148560   2.368   3.901   7.711 -0.1826 -2.1483 -0.5003
 9023TIP3    H248561   2.419   4.025   7.640 -0.8739 -0.1847  2.2233
 9024TIP3   OH248562   3.264   0.933  21.116  0.4953  0.3220  0.4037
 9024TIP3    H148563   3.268   1.026  21.136 -0.9821  0.7097 -0.9458
 9024TIP3    H248564   3.170   0.915  21.105  0.8506 -1.0073 -0.7241
 9025TIP3   OH248565   2.014   0.874  42.058  0.2288 -0.5810 -0.1530
 9025TIP3    H148566   2.077   0.807  42.087  0.4446 -0.6802 -0.8171
 9025TIP3    H248567   2.060   0.920  41.988 -0.4992 -0.7548 -0.7525
 9026TIP3   OH248568   2.372   1.024  31.606 -0.4353 -0.4399  0.2990
 9026TIP3    H148569   2.370   1.116  31.631  2.4996 -0.4454  0.8869
 9026TIP3    H248570   2.283   0.993  31.622 -1.5625  2.3161 -0.1474
 9027TIP3   OH248571   3.199   0.301  44.876 -0.0149  0.3371 -0.0604
 9027TIP3    H148572   3.221   0.360  44.804  0.3724  0.4049  0.1122
 9027TIP3    H248573   3.140   0.352  44.932  1.3694  1.0519  0.7971
 9028TIP3   OH248574   1.856   2.819  39.479 -0.2654 -0.1467  0.4184
 9028TIP3    H148575   1.881   2.886  39.542 -1.3026  0.4006  0.2704
 9028TIP3    H248576   1.786   2.769  39.522  0.1079 -0.7777  0.3069
 9029TIP3   OH248577   0.345   2.530  35.019 -0.0367 -0.1836 -0.3106
 9029TIP3    H148578   0.329   2.527  35.114  0.8828  0.5866 -0.1160
 9029TIP3    H248579   0.356   2.438  34.994  3.5468 -0.2851  1.0659
 9030TIP3   OH248580   1.500   3.254  15.462 -0.2045  0.9667  0.3289
 9030TIP3    H148581   1.495   3.316  15.389  0.6049  0.8732  0.1842
 9030TIP3    H248582   1.583   3.275  15.505  1.3629 -1.6112 -1.1871
 9031TIP3   OH248583   2.131   0.195  14.590  0.1937 -0.4057  0.0849
 9031TIP3    H148584   2.196   0.263  14.607  0.1955 -0.5048  0.4708
 9031TIP3    H248585   2.158   0.121  14.645 -0.3525 -0.3799  0.3960
 9032TIP3   OH248586   1.609   3.192  32.632  0.3889 -0.8376  0.3812
 9032TIP3    H148587   1.609   3.144  32.549 -1.4075  0.8366 -0.6792
 9032TIP3    H248588   1.702   3.213  32.647  0.6828 -0.1519 -1.8898
 9033TIP3   OH248589   0.316   3.887  13.618 -0.2319  0.3172  0.1858
 9033TIP3    H148590   0.283   3.832  13.546  0.1160 -0.3841  0.5436
 9033TIP3    H248591   0.258   3.867  13.692  2.0178 -2.4840  1.4401
 9034TIP3   OH248592   3.331   0.064  28.584 -0.3086 -0.2182 -0.3786
 9034TIP3    H148593   3.244   0.102  28.594 -0.0584  0.2366  0.1237
 9034TIP3    H248594   3.316  -0.030  28.580 -0.7114 -0.2424  1.1989
 9035TIP3   OH248595   0.198   2.287  16.228 -0.0562 -0.0865 -0.4271
 9035TIP3    H148596   0.120   2.305  16.176 -1.0478  0.3041  1.1596
 9035TIP3    H248597   0.168   2.285  16.318  1.7701  0.0725  0.2296
 9036TIP3   OH248598   3.920   3.338  44.530  0.1147 -0.1841 -0.1239
 9036TIP3    H148599   3.933   3.415  44.586  1.2305 -0.0481 -0.5578
 9036TIP3    H248600   3.825   3.334  44.518 -0.0738  0.2980  1.0512
 9037TIP3   OH248601   1.736   0.681   9.620 -0.0015  0.1387 -0.6666
 9037TIP3    H148602   1.729   0.650   9.529  2.0320 -0.2566 -0.7422
 9037TIP3    H248603   1.829   0.696   9.632  0.0181 -1.5153  1.9253
 9038TIP3   OH248604   1.717   3.023  33.640  0.0917  0.3144 -0.1368
 9038TIP3    H148605   1.622   3.018  33.639  0.0472  0.7586 -1.9189
 9038TIP3    H248606   1.738   3.094  33.580  1.5556 -0.1775 -0.2450
 9039TIP3   OH248607   1.509   0.988  44.437  0.0539  0.0062 -0.0882
 9039TIP3    H148608   1.569   0.924  44.398 -0.9252 -2.3791  2.0430
 9039TIP3    H248609   1.424   0.944  44.437 -0.4342  0.7799  2.5633
 9040TIP3   OH248610   1.272   3.303   8.601  0.0584 -0.6113 -0.0418
 9040TIP3    H148611   1.230   3.228   8.642 -0.9721 -0.2848 -0.4713
 9040TIP3    H248612   1.201   3.364   8.583  0.6552 -0.2333 -1.2122
 9041TIP3   OH248613   0.663   2.846  32.867 -0.4989 -0.1915 -0.0361
 9041TIP3    H148614   0.735   2.783  32.867 -1.6297 -1.6639 -2.7665
 9041TIP3    H248615   0.692   2.917  32.810  0.0930  1.0030  1.6676
 9042TIP3   OH248616   0.071   3.210   2.394 -0.2620  0.2932  0.2370
 9042TIP3    H148617   0.119   3.131   2.419 -0.6150 -0.4166 -1.2253
 9042TIP3    H248618  -0.019   3.179   2.378 -0.3758  0.9709 -0.4562
 9043TIP3   OH248619   3.111   2.517  37.730  0.0243 -0.1041  0.5416
 9043TIP3    H148620   3.024   2.552  37.750 -0.1500 -0.1658 -0.0993
 9043TIP3    H248621   3.162   2.593  37.703  0.7631  0.2808  2.7568
 9044TIP3   OH248622   2.484   1.361   5.271  0.2139  0.4683 -0.0241
 9044TIP3    H148623   2.479   1.406   5.186  1.5134 -1.4771 -1.2154
 9044TIP3    H248624   2.486   1.432   5.335  0.1554  2.0393 -1.6579
 9045TIP3   OH248625   1.153   3.197  13.966  1.2067  0.5416  0.0667
 9045TIP3    H148626   1.157   3.103  13.983 -0.0939  0.3121 -0.8423
 9045TIP3    H248627   1.102   3.232  14.039  0.6883  0.3832 -0.2220
 9046TIP3   OH248628   3.680   3.487   5.070 -0.3082 -0.0864 -0.0352
 9046TIP3    H148629   3.757   3.443   5.034 -0.1069  0.8603 -0.8232
 9046TIP3    H248630   3.607   3.429   5.049  0.3751 -2.0645  2.6020
 9047TIP3   OH248631   3.106   3.592  42.239 -0.3944 -1.0380 -0.4915
 9047TIP3    H148632   3.166   3.529  42.199  0.4849 -0.2852 -0.3814
 9047TIP3    H248633   3.047   3.538  42.292  0.7954 -1.7178  0.1740
 9048TIP3   OH248634   3.419   3.057  33.583 -0.1941  0.2770 -0.3706
 9048TIP3    H148635   3.449   2.974  33.618  0.1823  0.4636 -0.2527
 9048TIP3    H248636   3.436   3.051  33.489 -2.8656 -0.9629 -0.8865
 9049TIP3   OH248637   1.282   3.155  46.924 -0.4013  0.1654  0.3760
 9049TIP3    H148638   1.304   3.227  46.865 -2.6380 -0.0209 -0.7669
 9049TIP3    H248639   1.338   3.083  46.895 -0.2146  0.5984 -0.3684
 9050TIP3   OH248640   2.048   1.352   2.318  0.2721  0.0730  0.0525
 9050TIP3    H148641   1.976   1.304   2.358  1.4179 -1.2191  0.6416
 9050TIP3    H248642   2.006   1.427   2.276 -1.1844  0.4924  2.1111
 9051TIP3   OH248643   0.095   2.932  33.774 -0.0579  0.3685 -0.0605
 9051TIP3    H148644   0.021   2.977  33.815 -0.6663 -0.0355 -0.7016
 9051TIP3    H248645   0.147   3.003  33.735  0.8444  0.8187  1.8466
 9052TIP3   OH248646   3.717   2.075  20.780 -0.5868  0.4121  0.3626
 9052TIP3    H148647   3.708   2.168  20.758 -1.3228  0.0467 -1.0395
 9052TIP3    H248648   3.630   2.050  20.813 -1.0110 -0.2018 -1.1251
 9053TIP3   OH248649   3.985   1.340  32.797  0.2178  0.0145  0.0129
 9053TIP3    H148650   3.910   1.376  32.750 -0.5242  0.8702  1.7492
 9053TIP3    H248651   4.047   1.413  32.804  0.2441 -0.0491  0.4943
 9054TIP3   OH248652   3.247   0.431   4.021  0.2168 -0.2778 -0.4146
 9054TIP3    H148653   3.247   0.521   3.987 -2.1672  0.4438  1.2851
 9054TIP3    H248654   3.223   0.440   4.113  1.9920 -2.5403  0.3506
 9055TIP3   OH248655   3.132   0.519  38.897  0.3367  0.1009 -0.0852
 9055TIP3    H148656   3.144   0.583  38.827 -1.4874  1.5927  0.8773
 9055TIP3    H248657   3.044   0.484  38.883  0.6522 -0.9475  0.4253
 9056TIP3   OH248658   3.889   1.290   9.270 -0.3691 -0.5385 -0.4091
 9056TIP3    H148659   3.804   1.331   9.287  0.3899 -0.1968  3.2828
 9056TIP3    H248660   3.892   1.215   9.330  1.8062 -0.7479 -0.7073
 9057TIP3   OH248661   3.375   0.448  11.303  0.7280  0.0689 -0.2469
 9057TIP3    H148662   3.291   0.494  11.312  0.8116  0.8130 -2.5875
 9057TIP3    H248663   3.418   0.460  11.387 -1.2405  0.1938  0.8073
 9058TIP3   OH248664   1.347   2.392  13.625 -0.3740 -0.0238  0.2606
 9058TIP3    H148665   1.319   2.480  13.601  0.2863  0.2224  0.4028
 9058TIP3    H248666   1.435   2.384  13.589  0.1838 -0.0724  1.5801
 9059TIP3   OH248667   0.164   3.402  43.472 -0.0396  0.7389  0.4122
 9059TIP3    H148668   0.250   3.395  43.431 -0.4161  0.7213 -0.3913
 9059TIP3    H248669   0.141   3.313  43.498 -0.5791  0.4449 -0.9877
 9060TIP3   OH248670   3.885   2.590  31.113  0.2703 -0.2018  0.2534
 9060TIP3    H148671   3.814   2.644  31.078  0.6190  0.5413  0.6619
 9060TIP3    H248672   3.964   2.643  31.100  0.5982 -0.5344  0.8230
 9061TIP3   OH248673   4.099   1.290   3.731 -0.3776  0.4594 -0.3126
 9061TIP3    H148674   4.108   1.199   3.705 -1.4537  0.7235 -1.7343
 9061TIP3    H248675   4.135   1.340   3.658 -2.3827  1.2018 -0.8632
 9062TIP3   OH248676   2.259   3.765  46.237  0.0918  0.1740  0.3128
 9062TIP3    H148677   2.321   3.834  46.216 -1.1564  1.2933  0.1735
 9062TIP3    H248678   2.224   3.789  46.323  1.0987 -1.3871  1.2223
 9063TIP3   OH248679   2.867   3.993  47.017  0.2606 -0.0382  0.6058
 9063TIP3    H148680   2.798   3.947  47.066 -0.2685  0.8017  0.6748
 9063TIP3    H248681   2.854   3.965  46.927  1.0771 -1.3920  0.8791
 9064TIP3   OH248682   2.489   0.248  37.368 -0.3799 -0.1393 -0.1973
 9064TIP3    H148683   2.575   0.273  37.333 -0.4262 -1.6980 -1.5433
 9064TIP3    H248684   2.498   0.258  37.462  0.9269  0.7540 -0.3856
 9065TIP3   OH248685   2.060   0.025  36.981 -0.2290 -0.0031  0.2013
 9065TIP3    H148686   2.090  -0.049  37.034 -1.0159  1.3753  2.7823
 9065TIP3    H248687   2.014  -0.015  36.907 -0.2351 -2.0944  1.2561
 9066TIP3   OH248688   2.611   3.412  37.108 -0.0653  0.3002 -0.0796
 9066TIP3    H148689   2.693   3.401  37.059  1.6678 -1.2791  2.8350
 9066TIP3    H248690   2.606   3.333  37.164 -3.4209  0.5252  0.1429
 9067TIP3   OH248691   3.236   2.989  47.192  0.2457  0.0829 -0.3305
 9067TIP3    H148692   3.275   3.068  47.156 -1.8119  0.8062 -1.1284
 9067TIP3    H248693   3.254   2.921  47.127 -1.0940  0.7652 -1.4609
 9068TIP3   OH248694   3.599   2.595  42.388 -0.1618 -0.1454  0.1959
 9068TIP3    H148695   3.526   2.534  42.401 -0.7002  0.1729 -1.1159
 9068TIP3    H248696   3.635   2.608  42.475 -1.3418 -0.7302  0.8026
 9069TIP3   OH248697   2.068   1.681  12.235 -0.4761  0.4435  0.8165
 9069TIP3    H148698   2.110   1.766  12.246 -0.2585  0.3252  0.9164
 9069TIP3    H248699   2.112   1.624  12.299  0.7150 -0.2245 -0.5199
 9070TIP3   OH248700   3.441   0.619   8.303  0.0189 -0.0165 -0.2595
 9070TIP3    H148701   3.402   0.544   8.348  0.8998 -0.4227 -0.1513
 9070TIP3    H248702   3.439   0.689   8.368 -0.4931 -0.0348 -0.2457
 9071TIP3   OH248703   3.180   1.660   9.829  0.2005  0.2789  0.3118
 9071TIP3    H148704   3.085   1.665   9.831  0.2572  1.7053  0.6241
 9071TIP3    H248705   3.201   1.575   9.868 -0.9293  0.0164  0.3669
 9072TIP3   OH248706   1.823   2.090  16.608 -0.1143  0.3411 -0.5118
 9072TIP3    H148707   1.793   2.053  16.691 -0.5428  1.9672  0.0962
 9072TIP3    H248708   1.910   2.052  16.594 -0.6684 -1.1359 -0.1281
 9073TIP3   OH248709   1.378   1.576  32.932 -0.4833  0.0480  0.2155
 9073TIP3    H148710   1.459   1.623  32.952 -1.5469  1.2714  1.8930
 9073TIP3    H248711   1.384   1.496  32.984 -0.0753 -0.2060 -0.2037
 9074TIP3   OH248712   3.565   1.842   2.965 -0.0309  0.3769  0.4341
 9074TIP3    H148713   3.639   1.793   2.999 -1.4357 -1.4482  1.0394
 9074TIP3    H248714   3.564   1.823   2.871 -1.0435 -1.5486  0.7829
 9075TIP3   OH248715   2.177   3.114  38.275  0.5395 -0.5078 -0.0842
 9075TIP3    H148716   2.146   3.040  38.326  4.0800 -0.6692  2.1573
 9075TIP3    H248717   2.207   3.076  38.193  0.1053 -1.1582  0.0498
 9076TIP3   OH248718   1.411   3.887  38.385  0.0544 -0.5346 -0.3381
 9076TIP3    H148719   1.424   3.840  38.303  0.3392 -0.8962 -0.0884
 9076TIP3    H248720   1.476   3.957  38.384 -1.1254  0.6136 -1.2443
 9077TIP3   OH248721   3.698   1.483  44.416  0.1361  0.5994  0.3389
 9077TIP3    H148722   3.784   1.442  44.408 -0.9414 -1.5984 -1.1612
 9077TIP3    H248723   3.698   1.552  44.349 -0.2032 -1.3906 -1.8723
 9078TIP3   OH248724   0.668   2.475   6.167  0.6419 -0.6337 -0.0833
 9078TIP3    H148725   0.640   2.564   6.189  0.4357 -1.1102  1.8306
 9078TIP3    H248726   0.756   2.467   6.204  0.1188 -1.6243  1.0397
 9079TIP3   OH248727   2.374   1.581   3.910  0.2745 -0.5761 -0.4729
 9079TIP3    H148728   2.330   1.579   3.826 -0.6394 -1.4249 -0.0038
 9079TIP3    H248729   2.304   1.574   3.975  0.6564  3.0443  0.5227
 9080TIP3   OH248730   3.250   1.590  41.093  0.3107  0.2565  0.0091
 9080TIP3    H148731   3.311   1.521  41.121 -2.3274 -3.7759 -3.0620
 9080TIP3    H248732   3.194   1.605  41.169  0.5961 -1.5202  0.6160
 9081TIP3   OH248733   2.163   2.079  39.628  0.8163 -0.0258  0.1548
 9081TIP3    H148734   2.133   2.109  39.542  0.5627  0.9465  0.5646
 9081TIP3    H248735   2.225   2.147  39.656  2.5169 -1.3681 -0.1453
 9082TIP3   OH248736   3.561   3.997  31.275 -0.3754 -0.4954  0.1197
 9082TIP3    H148737   3.465   3.992  31.282 -0.3843 -0.6292 -0.0764
 9082TIP3    H248738   3.583   3.933  31.207 -0.1870 -0.1273 -0.1694
 9083TIP3   OH248739   0.975   2.886  39.196 -0.7523 -0.3435  0.1124
 9083TIP3    H148740   1.024   2.815  39.238  0.6929  0.2210 -0.5576
 9083TIP3    H248741   0.984   2.868  39.102  2.1963  2.2633 -0.2502
 9084TIP3   OH248742   2.558   3.227   0.557 -0.1572 -0.1917 -0.9345
 9084TIP3    H148743   2.471   3.261   0.579  0.1195  0.4395 -0.7826
 9084TIP3    H248744   2.548   3.191   0.469 -1.0034 -1.7308 -0.2449
 9085TIP3   OH248745   0.112   3.790   2.258 -0.0275 -0.2202 -0.0283
 9085TIP3    H148746   0.027   3.792   2.303 -0.0828 -0.0678 -0.1367
 9085TIP3    H248747   0.090   3.772   2.167 -0.1034  1.5703 -0.4056
 9086TIP3   OH248748   2.739   3.724  44.865 -0.5360  0.7668  0.5489
 9086TIP3    H148749   2.666   3.672  44.830  0.2400  0.0106  0.0092
 9086TIP3    H248750   2.751   3.691  44.954 -0.2331  0.1883  0.3049
 9087TIP3   OH248751   1.692   2.757   8.059  0.6392 -0.1847 -0.0507
 9087TIP3    H148752   1.776   2.803   8.059  1.1727 -0.9761 -2.9977
 9087TIP3    H248753   1.715   2.665   8.049 -0.5535 -0.7536  1.9078
 9088TIP3   OH248754   3.453   1.599  39.554 -0.2611 -0.0593  0.4061
 9088TIP3    H148755   3.463   1.693  39.568  1.2223 -0.3056  1.1223
 9088TIP3    H248756   3.364   1.580  39.585 -2.1165  1.6814 -3.2198
 9089TIP3   OH248757   1.968   0.408   5.583  0.4320 -0.4285  0.2841
 9089TIP3    H148758   1.983   0.420   5.489  3.5184 -0.7870  0.6369
 9089TIP3    H248759   1.992   0.492   5.622 -0.6522 -0.3447  0.8228
 9090TIP3   OH248760   3.118   3.750  11.607  0.6257  0.0766  0.0766
 9090TIP3    H148761   3.183   3.780  11.543 -0.0107  0.5640 -0.3539
 9090TIP3    H248762   3.078   3.831  11.640  1.3871 -0.1260  1.5834
 9091TIP3   OH248763   2.649   3.137  12.864 -0.0606 -0.5452  0.3817
 9091TIP3    H148764   2.680   3.193  12.792 -0.7986 -1.0791 -0.3813
 9091TIP3    H248765   2.726   3.123  12.918  0.4499  0.1088 -0.1476
 9092TIP3   OH248766   3.958   0.244  26.161 -0.1494  0.4262  0.1870
 9092TIP3    H148767   4.029   0.258  26.224 -0.9767  1.5137  0.9245
 9092TIP3    H248768   3.878   0.249  26.213 -0.8243  0.4377 -0.8140
 9093TIP3   OH248769   3.833   0.224   3.713  0.1784  0.2609  0.6221
 9093TIP3    H148770   3.806   0.184   3.630  0.4164 -1.1165  1.1905
 9093TIP3    H248771   3.799   0.314   3.708  0.2478  0.2298 -0.9910
 9094TIP3   OH248772   3.037   0.931  37.530 -0.2239 -0.2177 -0.2701
 9094TIP3    H148773   3.097   0.884  37.588 -0.9875 -0.6294  0.2078
 9094TIP3    H248774   2.968   0.867  37.510 -0.2194  0.0715 -1.2563
 9095TIP3   OH248775   1.663   1.692  31.511 -0.5310 -0.0058  0.0773
 9095TIP3    H148776   1.754   1.697  31.538 -0.3369 -1.1723 -0.2900
 9095TIP3    H248777   1.667   1.666  31.419 -1.1623  3.6483 -1.1300
 9096TIP3   OH248778   3.153   2.806   8.377 -0.2640  0.2198 -0.2132
 9096TIP3    H148779   3.101   2.777   8.452 -1.5461  0.4516 -0.9848
 9096TIP3    H248780   3.147   2.734   8.314 -0.6379  0.7477 -0.7843
 9097TIP3   OH248781   3.040   2.405  42.428  0.4650  0.2783 -0.0270
 9097TIP3    H148782   3.103   2.334  42.423 -0.6308 -0.7898  0.7005
 9097TIP3    H248783   3.017   2.424  42.337 -0.2543 -1.2650 -0.1888
 9098TIP3   OH248784   1.876   3.000  36.384 -0.3187  0.4510 -0.5567
 9098TIP3    H148785   1.888   2.926  36.443 -0.2421  0.2678 -0.8025
 9098TIP3    H248786   1.835   2.963  36.306 -0.7870  0.7597 -0.4625
 9099TIP3   OH248787   0.244   1.347  35.388 -0.0032 -0.0721 -0.3737
 9099TIP3    H148788   0.235   1.438  35.418  1.9585 -0.5299  1.9122
 9099TIP3    H248789   0.159   1.307  35.405 -0.9161  1.3158 -1.4713
 9100TIP3   OH248790   1.191   2.747  32.939  0.8654 -0.1290  0.4801
 9100TIP3    H148791   1.169   2.664  32.982  1.7070 -0.8444 -0.4058
 9100TIP3    H248792   1.168   2.814  33.003 -0.6603 -0.9793  0.9003
 9101TIP3   OH248793   4.005   3.783   1.800  0.0908 -0.0974  0.2426
 9101TIP3    H148794   4.058   3.759   1.724  1.6360  0.3507  1.1519
 9101TIP3    H248795   4.065   3.782   1.874 -1.8146 -2.7526  1.9239
 9102TIP3   OH248796   1.337   4.027  44.173  0.1806  0.2946  0.1289
 9102TIP3    H148797   1.352   3.988  44.086  1.3884  1.6994 -0.3387
 9102TIP3    H248798   1.400   4.099  44.177 -0.7364  1.0329  1.6857
 9103TIP3   OH248799   1.890   2.398   5.910 -0.4367  0.0381  0.3415
 9103TIP3    H148800   1.961   2.455   5.937 -1.4023 -0.0011  3.2519
 9103TIP3    H248801   1.813   2.455   5.907 -1.1961 -0.8110  2.1674
 9104TIP3   OH248802   4.021   1.376  17.403 -0.1745  0.4800  0.2638
 9104TIP3    H148803   3.983   1.320  17.336 -0.7125 -0.0635  1.0019
 9104TIP3    H248804   3.965   1.364  17.479  0.0405  1.5860  0.6206
 9105TIP3   OH248805   1.995   3.709  40.033 -0.3145  0.0524 -0.3363
 9105TIP3    H148806   1.978   3.669  39.947 -1.7956  0.1819 -0.1188
 9105TIP3    H248807   2.068   3.659  40.068  1.3699  0.9395 -2.2876
 9106TIP3   OH248808   2.954   2.415   3.702 -0.2366  0.6746  0.6465
 9106TIP3    H148809   3.033   2.443   3.747  0.8324  0.5602 -1.0507
 9106TIP3    H248810   2.926   2.492   3.652 -0.0400  0.1594 -0.2887
 9107TIP3   OH248811   2.542   0.182  44.045  0.4000  0.2335 -0.4348
 9107TIP3    H148812   2.629   0.208  44.075  1.1279 -0.6879 -1.6293
 9107TIP3    H248813   2.483   0.244  44.086  1.7511  1.7657 -0.7135
 9108TIP3   OH248814   1.752   1.067   8.123  0.4681  0.7206  0.3459
 9108TIP3    H148815   1.668   1.037   8.088  0.1167  0.8305  1.0799
 9108TIP3    H248816   1.807   1.079   8.046  0.9348 -2.6929 -0.0052
 9109TIP3   OH248817   0.274   1.980  33.445  0.4561 -0.0042  0.3071
 9109TIP3    H148818   0.360   2.006  33.479  0.7802 -0.7229  0.0603
 9109TIP3    H248819   0.252   2.047  33.380  0.6136  0.4381  0.7080
 9110TIP3   OH248820   3.300   3.936   5.186 -0.2588 -0.2492  0.4297
 9110TIP3    H148821   3.273   3.900   5.270  0.8395 -0.9455  0.5132
 9110TIP3    H248822   3.309   3.859   5.129  1.0744 -0.0258  0.3003
 9111TIP3   OH248823   0.948   4.011  14.641  0.2877  0.3115  0.3413
 9111TIP3    H148824   0.945   4.007  14.545 -2.3615 -1.7458  0.4087
 9111TIP3    H248825   1.002   4.088  14.660 -0.0196  1.4270 -2.7920
 9112TIP3   OH248826   2.629   2.886   7.947  0.1989  0.4942  0.8086
 9112TIP3    H148827   2.716   2.846   7.958 -0.1141  0.1829  2.5526
 9112TIP3    H248828   2.642   2.977   7.974  0.6412  1.3354 -1.9874
 9113TIP3   OH248829   1.754   4.054   1.241  0.4175 -0.0573  0.7656
 9113TIP3    H148830   1.669   4.010   1.232 -1.9735  4.3816 -1.5243
 9113TIP3    H248831   1.806   4.020   1.169 -0.9054 -0.0844 -0.2173
 9114TIP3   OH248832   2.637   0.546  12.555 -0.3476  0.0335  0.2479
 9114TIP3    H148833   2.694   0.538  12.631  2.0089 -0.1413 -1.4200
 9114TIP3    H248834   2.575   0.616  12.578 -0.1786 -0.5158  2.5505
 9115TIP3   OH248835   1.067   2.030  40.869 -0.1497  0.8739  0.2211
 9115TIP3    H148836   0.972   2.022  40.866 -0.0862  0.1880 -0.1030
 9115TIP3    H248837   1.092   1.993  40.954 -0.1588  0.8919  0.2331
 9116TIP3   OH248838   0.264   1.168  42.169 -0.4961 -0.1241  0.1659
 9116TIP3    H148839   0.168   1.167  42.162 -0.5157  1.2290 -0.0190
 9116TIP3    H248840   0.282   1.156  42.262 -0.8419 -0.5663  0.1775
 9117TIP3   OH248841   1.749   0.702  31.332  0.4218  0.6048  0.3571
 9117TIP3    H148842   1.666   0.729  31.293  0.2027 -0.1159  0.3027
 9117TIP3    H248843   1.816   0.748  31.280  0.2014 -1.1373 -1.6158
 9118TIP3   OH248844   0.678   3.982  37.326  0.8813 -0.1114  0.1477
 9118TIP3    H148845   0.756   3.946  37.283  1.5631  1.1532  0.2630
 9118TIP3    H248846   0.613   3.990  37.257  1.6172  0.9274 -0.4448
 9119TIP3   OH248847   0.088   3.867  40.336 -0.1418 -0.2207  0.8235
 9119TIP3    H148848   0.014   3.924  40.358 -0.5418 -0.2596 -0.3255
 9119TIP3    H248849   0.057   3.779  40.357 -0.5564 -0.2689  0.0471
 9120TIP3   OH248850   1.810   2.463  13.980  0.0907  0.0285  0.2240
 9120TIP3    H148851   1.784   2.545  13.938 -0.1990 -0.4533 -0.5573
 9120TIP3    H248852   1.852   2.412  13.910  2.4637  0.4639  1.2583
 9121TIP3   OH248853   1.249   0.089   9.857  0.0490  0.3341  0.1127
 9121TIP3    H148854   1.268   0.142   9.780 -1.7981  1.0750  0.1260
 9121TIP3    H248855   1.162   0.118   9.886  0.3663 -0.4559  2.0268
 9122TIP3   OH248856   3.245   0.972  45.287  0.7191 -0.0202 -0.5151
 9122TIP3    H148857   3.209   0.946  45.202 -0.4652  0.3215 -0.1240
 9122TIP3    H248858   3.316   1.032  45.266  0.7243 -0.2870 -1.2759
 9123TIP3   OH248859   1.494   1.508  42.965  0.2475  0.5047  1.0893
 9123TIP3    H148860   1.527   1.419  42.971  2.2485  0.9082 -1.7587
 9123TIP3    H248861   1.464   1.529  43.053  0.5209 -2.6305  2.0462
 9124TIP3   OH248862   0.447   3.322   2.903 -0.7453 -0.2694 -0.0830
 9124TIP3    H148863   0.399   3.243   2.928  2.2657 -1.8845  1.2261
 9124TIP3    H248864   0.492   3.297   2.822 -1.5626  0.9697 -0.9424
 9125TIP3   OH248865   0.747   1.984   6.517  0.2399  0.1080 -0.1229
 9125TIP3    H148866   0.701   1.901   6.502  1.9496 -0.8595 -0.3065
 9125TIP3    H248867   0.748   2.027   6.432 -0.9293  0.4725  0.0425
 9126TIP3   OH248868   2.338   0.561  10.743  0.2230 -0.0890  0.0787
 9126TIP3    H148869   2.258   0.527  10.782 -0.2119 -0.6344 -1.1985
 9126TIP3    H248870   2.348   0.649  10.779 -0.5464 -0.2901  0.8092
 9127TIP3   OH248871   3.870   1.909  41.211 -0.0060  0.3878  0.1622
 9127TIP3    H148872   3.831   1.873  41.131 -0.3092 -1.6564  1.1830
 9127TIP3    H248873   3.963   1.889  41.204  0.0477  0.6551  0.0987
 9128TIP3   OH248874   3.678   2.078  46.818  0.1053 -0.3805  0.3035
 9128TIP3    H148875   3.618   2.050  46.887  1.8170 -3.0737  0.8708
 9128TIP3    H248876   3.689   2.000  46.762 -1.0907  1.6312 -3.0399
 9129TIP3   OH248877   2.227   0.157  46.828 -0.1375 -0.0640 -0.1957
 9129TIP3    H148878   2.287   0.195  46.893 -0.5301 -1.1206  0.8266
 9129TIP3    H248879   2.276   0.157  46.746  2.0285 -2.6048  0.9532
 9130TIP3   OH248880   1.706   2.030  41.391  0.7198 -0.1754 -0.4703
 9130TIP3    H148881   1.750   2.101  41.439  1.9449  0.4208 -2.3741
 9130TIP3    H248882   1.777   1.979  41.353 -0.1617  0.2333 -2.8252
 9131TIP3   OH248883   2.709   3.781   8.430 -0.5447  0.4020  0.3634
 9131TIP3    H148884   2.758   3.855   8.394  0.1024 -0.5860 -0.8519
 9131TIP3    H248885   2.659   3.747   8.355  0.1472 -1.1642  0.5795
 9132TIP3   OH248886   1.107   1.777   7.033  0.2038  0.6854  0.1338
 9132TIP3    H148887   1.096   1.766   7.127  2.4752 -0.3944  0.3548
 9132TIP3    H248888   1.131   1.869   7.022 -3.3536  1.7342  0.1467
 9133TIP3   OH248889   3.787   1.044  40.457  0.0025  0.3559  0.3115
 9133TIP3    H148890   3.776   1.075  40.547 -0.4464  0.4889  0.2128
 9133TIP3    H248891   3.778   1.122  40.403  0.9792  0.3900  0.1883
 9134TIP3   OH248892   0.919   0.664  34.537 -0.5901  0.3031  0.6144
 9134TIP3    H148893   0.890   0.734  34.596 -2.4242 -0.0136  0.1420
 9134TIP3    H248894   0.840   0.615  34.517  0.6761 -2.0700  1.0713
 9135TIP3   OH248895   0.022   0.614   2.128  0.1676  0.0585 -0.1287
 9135TIP3    H148896   0.040   0.625   2.221 -0.6086 -1.2902  0.2089
 9135TIP3    H248897   0.103   0.579   2.092  0.3631  0.2664  0.1052
 9136TIP3   OH248898   3.674   0.366  32.044  0.6216 -0.7751  0.1470
 9136TIP3    H148899   3.676   0.346  32.137 -1.5303 -1.1695  0.1567
 9136TIP3    H248900   3.582   0.353  32.018  0.7856  1.0791 -1.6296
 9137TIP3   OH248901   3.583   1.000  31.258  0.0177  0.3829  0.1578
 9137TIP3    H148902   3.648   0.936  31.286 -1.4321 -1.7413 -1.0515
 9137TIP3    H248903   3.626   1.046  31.186  0.4719 -0.4864 -0.1514
 9138TIP3   OH248904   1.540   2.217   0.128  0.1018 -0.3915  1.0112
 9138TIP3    H148905   1.635   2.222   0.140  0.0497  0.5921  1.0888
 9138TIP3    H248906   1.511   2.151   0.192  0.8139 -1.3209  0.4024
 9139TIP3   OH248907   0.731   1.522   2.313  0.0922 -0.5197  0.1897
 9139TIP3    H148908   0.822   1.516   2.344  0.1359 -0.8521 -0.0006
 9139TIP3    H248909   0.738   1.542   2.220 -0.0456  1.7564  0.6227
 9140TIP3   OH248910   3.674   1.029  38.980  0.5083 -0.3257  0.5960
 9140TIP3    H148911   3.681   0.941  38.943  0.5241 -0.0655 -0.0366
 9140TIP3    H248912   3.598   1.067  38.935  0.9006  0.2122  0.3789
 9141TIP3   OH248913   0.577   0.309  31.008 -0.3702  0.2288 -0.4841
 9141TIP3    H148914   0.573   0.341  31.098 -1.6992 -1.0104 -0.0604
 9141TIP3    H248915   0.491   0.329  30.972 -1.0882 -2.2931 -0.3527
 9142TIP3   OH248916   3.939   3.553  10.223 -0.2857 -0.0634  0.4475
 9142TIP3    H148917   3.871   3.566  10.156 -0.4005 -1.2733  0.3189
 9142TIP3    H248918   3.891   3.554  10.306 -0.2175  0.8621  0.4853
 9143TIP3   OH248919   4.060   1.827  10.234  0.3520  0.7914  0.2646
 9143TIP3    H148920   3.972   1.791  10.232  0.6747 -0.0633 -2.3140
 9143TIP3    H248921   4.049   1.919  10.211  0.2004  0.3768 -1.4359
 9144TIP3   OH248922   0.589   0.082  36.041 -0.0011  0.0497 -0.1026
 9144TIP3    H148923   0.576   0.177  36.036  2.1338  0.3391 -1.7498
 9144TIP3    H248924   0.511   0.049  36.086 -1.7630  2.3626 -1.2472
 9145TIP3   OH248925   0.907   4.029  10.624 -0.9166  0.0867  0.2671
 9145TIP3    H148926   0.841   4.006  10.690 -0.2574 -0.6765  0.6683
 9145TIP3    H248927   0.907   3.955  10.564 -0.5173  0.1414  0.1993
 9146TIP3   OH248928   3.294   0.840  31.258 -0.2314  0.2005 -0.3354
 9146TIP3    H148929   3.251   0.806  31.336 -0.5871 -0.7624 -0.9342
 9146TIP3    H248930   3.353   0.770  31.230  1.9888  1.5743  0.6065
 9147TIP3   OH248931   3.501   1.879  38.946 -0.3423  0.1209 -0.1257
 9147TIP3    H148932   3.450   1.799  38.932 -0.4081  0.3243 -1.1196
 9147TIP3    H248933   3.584   1.862  38.902  0.5906 -0.3197  1.7304
 9148TIP3   OH248934   1.798   1.362   8.181  0.1180  0.3142  0.3342
 9148TIP3    H148935   1.773   1.273   8.205  1.5353 -0.0716  0.4637
 9148TIP3    H248936   1.892   1.357   8.164 -0.1492  1.3398 -1.7670
 9149TIP3   OH248937   2.876   3.313  27.421 -0.1385 -0.7149 -0.2313
 9149TIP3    H148938   2.951   3.368  27.444 -0.9193  0.5333 -0.5539
 9149TIP3    H248939   2.880   3.241  27.484 -0.2944  0.8293  1.6720
 9150TIP3   OH248940   1.988   2.093   2.428  0.8307 -0.5570 -0.3321
 9150TIP3    H148941   1.972   2.113   2.521 -1.0017  0.1052 -0.7351
 9150TIP3    H248942   1.939   2.161   2.381  0.7728 -1.5684 -1.7827
 9151TIP3   OH248943   1.056   3.980   6.345  0.1573  0.3040 -0.4967
 9151TIP3    H148944   1.099   3.961   6.428  3.2508  0.6462 -1.8685
 9151TIP3    H248945   1.060   3.897   6.296 -0.1351  0.5229 -0.8991
 9152TIP3   OH248946   4.006   3.500  26.790  0.2100 -0.5608  0.1318
 9152TIP3    H148947   4.023   3.515  26.882 -0.5793  1.1744  0.0182
 9152TIP3    H248948   3.915   3.526  26.777  0.8372  1.0492 -1.4915
 9153TIP3   OH248949   1.741   2.151  43.265 -0.0341  0.3669 -0.6774
 9153TIP3    H148950   1.692   2.202  43.201  0.5966 -0.4568 -1.8379
 9153TIP3    H248951   1.735   2.203  43.346 -0.9300  1.3617 -1.3547
 9154TIP3   OH248952   0.757   2.014   9.320 -0.1207  0.6859 -0.4032
 9154TIP3    H148953   0.759   2.065   9.401  1.2836 -1.8682  1.3378
 9154TIP3    H248954   0.667   2.022   9.288 -0.0880  3.6754  0.0424
 9155TIP3   OH248955   0.374   2.475  41.611 -0.7632 -0.1577  0.4520
 9155TIP3    H148956   0.378   2.400  41.552 -2.0448  1.0490 -1.2851
 9155TIP3    H248957   0.292   2.463  41.659  0.4938 -1.3748  2.4368
 9156TIP3   OH248958   3.000   1.339  38.785  0.2696 -0.4451  0.0425
 9156TIP3    H148959   2.930   1.389  38.826  0.5316  0.0930 -0.1526
 9156TIP3    H248960   2.955   1.281  38.724  0.0271  0.3668 -0.5726
 9157TIP3   OH248961   3.263   0.413  42.402 -0.2930  0.2860  0.2027
 9157TIP3    H148962   3.267   0.370  42.488  0.1242  0.1536  0.1191
 9157TIP3    H248963   3.178   0.457  42.401 -0.4408  0.0125  0.5540
 9158TIP3   OH248964   1.853   0.572  14.595  1.1244 -0.4602  0.3319
 9158TIP3    H148965   1.945   0.585  14.617  1.6025 -0.8460 -1.2489
 9158TIP3    H248966   1.842   0.477  14.596  1.4019 -0.5733 -1.6812
 9159TIP3   OH248967   1.271   0.139   8.583 -0.1252 -0.3934  0.3162
 9159TIP3    H148968   1.287   0.213   8.642  1.4404  1.0893 -1.8169
 9159TIP3    H248969   1.176   0.130   8.582 -0.3119  1.0410  1.3019
 9160TIP3   OH248970   2.393   1.510  19.643 -0.1210  0.3747 -0.8765
 9160TIP3    H148971   2.474   1.497  19.595  0.5335 -1.5588  0.6120
 9160TIP3    H248972   2.416   1.569  19.715  0.5584 -1.7470  0.7366
 9161TIP3   OH248973   3.532   2.373   9.344  0.5043  0.1208 -0.3370
 9161TIP3    H148974   3.566   2.348   9.430  0.4386 -0.4508 -0.4725
 9161TIP3    H248975   3.499   2.462   9.356 -0.9531 -0.5175  0.6451
 9162TIP3   OH248976   3.247   2.408   9.206  0.2030  0.4138 -0.4527
 9162TIP3    H148977   3.324   2.444   9.160  0.5933 -0.8742 -0.8647
 9162TIP3    H248978   3.275   2.402   9.297 -0.0945  1.7204 -0.2586
 9163TIP3   OH248979   2.667   2.768  33.648  0.0323  0.5326 -0.0508
 9163TIP3    H148980   2.650   2.730  33.734 -0.0208 -1.9192 -1.0502
 9163TIP3    H248981   2.756   2.802  33.654  0.7563 -1.3333  0.4683
 9164TIP3   OH248982   2.647   0.647   9.609  0.2529 -0.0139  0.2607
 9164TIP3    H148983   2.732   0.624   9.645  0.5203  0.3549 -0.1204
 9164TIP3    H248984   2.609   0.564   9.581  0.8899 -0.0799 -0.4326
 9165TIP3   OH248985   0.018   1.049  12.475 -0.4311  0.1604 -0.2917
 9165TIP3    H148986   0.109   1.033  12.502 -1.0167  0.0012  1.7606
 9165TIP3    H248987   0.001   1.139  12.504 -1.6161 -0.5983  1.5269
 9166TIP3   OH248988   1.424   1.329   8.880  0.3032 -0.0813  0.8297
 9166TIP3    H148989   1.390   1.323   8.791  0.2760 -0.3691  0.8574
 9166TIP3    H248990   1.516   1.306   8.872  1.0001  2.5111  0.4635
 9167TIP3   OH248991   0.591   4.014  30.576  0.4602 -0.3246  0.3273
 9167TIP3    H148992   0.571   4.034  30.484 -0.0737  1.3947  0.7964
 9167TIP3    H248993   0.596   4.099  30.619  1.5847 -1.0660  1.7394
 9168TIP3   OH248994   3.758   3.168  12.257  0.0303 -0.4479  0.5097
 9168TIP3    H148995   3.786   3.077  12.260 -1.4393 -0.9065  0.8579
 9168TIP3    H248996   3.685   3.173  12.318 -1.1519  0.5142 -0.9129
 9169TIP3   OH248997   1.712   2.663  42.354 -0.0338 -0.1573 -0.2601
 9169TIP3    H148998   1.719   2.704  42.268  0.0762  0.8882  0.2334
 9169TIP3    H248999   1.787   2.697  42.403 -0.3789 -0.3457  0.4053
 9170TIP3   OH249000   0.269   2.257  13.011  0.2143  0.7738  0.0546
 9170TIP3    H149001   0.333   2.273  13.080 -0.5351 -1.9588  1.5311
 9170TIP3    H249002   0.311   2.196  12.951 -0.4695  0.1174  0.2239
 9171TIP3   OH249003   2.114   4.094  42.752 -0.7143  0.7483 -0.1195
 9171TIP3    H149004   2.126   4.059  42.840 -0.0475  0.5827 -0.2742
 9171TIP3    H249005   2.133   4.021  42.694 -0.6394  0.9991 -0.4147
 9172TIP3   OH249006   0.128   2.291  46.753  0.2623 -0.1424 -0.0787
 9172TIP3    H149007   0.123   2.385  46.773 -0.5079 -0.0257 -0.7744
 9172TIP3    H249008   0.083   2.282  46.669  1.0506 -1.0183 -0.4201
 9173TIP3   OH249009   3.093   0.256  15.335 -0.3616  0.3115 -0.2219
 9173TIP3    H149010   3.038   0.311  15.390 -1.3571 -0.4397 -0.4426
 9173TIP3    H249011   3.051   0.259  15.249 -0.8339 -1.3133 -0.0805
 9174TIP3   OH249012   3.852   2.924  36.378  0.0243 -0.1161 -0.4350
 9174TIP3    H149013   3.882   2.889  36.462 -0.4375 -0.9013 -0.5926
 9174TIP3    H249014   3.781   2.984  36.401  0.7479  0.6662 -0.1741
 9175TIP3   OH249015   3.375   2.093  46.602 -0.5513 -0.7634 -0.1883
 9175TIP3    H149016   3.446   2.152  46.624 -0.5900 -0.6572 -0.3440
 9175TIP3    H249017   3.405   2.007  46.629 -0.8992 -0.5380  0.9796
 9176TIP3   OH249018   1.938   2.213  11.838 -0.2316  0.2035 -0.3576
 9176TIP3    H149019   2.033   2.206  11.831 -0.1367  0.2796  0.6351
 9176TIP3    H249020   1.905   2.133  11.796  0.3293 -0.3949  0.3107
 9177TIP3   OH249021   4.103   3.011   6.355 -0.3355 -0.1696 -0.5933
 9177TIP3    H149022   4.174   3.075   6.350  0.0696 -0.6604 -1.5402
 9177TIP3    H249023   4.026   3.062   6.381  0.1499  0.5486 -0.5300
 9178TIP3   OH249024   0.992   0.186   9.466  0.7571 -0.7610 -0.2764
 9178TIP3    H149025   0.919   0.124   9.466  1.8018 -2.2707  2.9914
 9178TIP3    H249026   0.957   0.264   9.508  0.2862 -0.3078 -1.4683
 9179TIP3   OH249027   0.369   1.345  41.383 -0.3003 -0.3454 -0.0148
 9179TIP3    H149028   0.422   1.365  41.461 -1.1487  1.0119  0.2598
 9179TIP3    H249029   0.432   1.330  41.313  0.5709  3.4619 -0.2499
 9180TIP3   OH249030   1.174   1.725  41.862 -0.0098 -0.3062  0.7308
 9180TIP3    H149031   1.197   1.715  41.955  0.1520  1.0985  0.8561
 9180TIP3    H249032   1.135   1.812  41.856  2.8621  1.0102 -1.0330
 9181TIP3   OH249033   2.465   1.970  39.682 -0.5207  0.0167  0.0292
 9181TIP3    H149034   2.520   2.038  39.643  0.2627 -0.9011 -0.5067
 9181TIP3    H249035   2.453   1.998  39.773  2.7253 -0.8106  0.8426
 9182TIP3   OH249036   2.187   0.702  36.399 -0.0175 -0.2831 -0.0395
 9182TIP3    H149037   2.138   0.631  36.441 -0.5534 -0.1755 -0.4736
 9182TIP3    H249038   2.248   0.657  36.340  0.6936 -0.4317  0.8001
 9183TIP3   OH249039   1.760   3.916  38.998 -0.2877  0.1676  0.7619
 9183TIP3    H149040   1.695   3.923  38.927 -0.0356 -0.8061  0.4292
 9183TIP3    H249041   1.789   4.006  39.011 -0.4589  0.3910 -0.2599
 9184TIP3   OH249042   3.596   1.761   8.303 -0.3549  0.2126 -0.1399
 9184TIP3    H149043   3.545   1.686   8.332 -2.0358  0.6437 -1.8385
 9184TIP3    H249044   3.674   1.723   8.263 -0.2544 -0.5285  0.7225
 9185TIP3   OH249045   1.367   3.052  44.410 -0.8715 -0.1774 -0.3966
 9185TIP3    H149046   1.330   2.986  44.352  1.3912 -1.4192 -0.5604
 9185TIP3    H249047   1.314   3.048  44.489 -0.6813 -2.3977 -0.3231
 9186TIP3   OH249048   3.284   2.260   6.956  0.3265 -0.0843  0.3902
 9186TIP3    H149049   3.315   2.336   7.005 -0.1463  1.0002 -0.9588
 9186TIP3    H249050   3.204   2.234   7.001 -0.5606  1.4176 -0.2786
 9187TIP3   OH249051   0.492   0.186  41.004 -0.4954 -0.1227  0.0774
 9187TIP3    H149052   0.518   0.098  41.030 -0.1511 -0.5009 -1.4519
 9187TIP3    H249053   0.397   0.185  41.008 -0.4683  0.2605  2.5299
 9188TIP3   OH249054   3.762   1.997  15.489 -0.2542 -0.1788 -0.7739
 9188TIP3    H149055   3.778   2.091  15.492 -0.9825 -0.0621  0.7882
 9188TIP3    H249056   3.776   1.972  15.398 -3.1600  1.9965 -1.9363
 9189TIP3   OH249057   0.611   0.550  15.188  0.1692  0.4876  0.1686
 9189TIP3    H149058   0.691   0.592  15.154  0.6788  0.7569  1.6169
 9189TIP3    H249059   0.540   0.604  15.154  0.6205  0.5321 -0.7455
 9190TIP3   OH249060   3.040   3.859  31.180  0.0267 -0.5590  0.5085
 9190TIP3    H149061   2.994   3.887  31.259 -1.8700  0.3128 -0.8120
 9190TIP3    H249062   2.995   3.904  31.109  1.2612 -1.7842 -1.1443
 9191TIP3   OH249063   0.985   2.648   6.914  0.0259 -0.0527 -0.6644
 9191TIP3    H149064   1.019   2.737   6.920 -0.0356 -0.0926  0.8945
 9191TIP3    H249065   1.013   2.617   6.828  3.0160  0.3082  0.0629
 9192TIP3   OH249066   0.717   4.046  31.845  0.1846 -0.6967 -0.4374
 9192TIP3    H149067   0.666   4.126  31.855  1.9008  0.1967  2.3146
 9192TIP3    H249068   0.788   4.069  31.785 -0.7738 -1.0032 -1.7337
 9193TIP3   OH249069   2.908   3.641  45.522 -0.7546 -0.1448 -0.1927
 9193TIP3    H149070   2.894   3.697  45.598  0.0176  1.5561 -1.2463
 9193TIP3    H249071   2.904   3.700  45.447 -1.3196 -1.7411 -1.4872
 9194TIP3   OH249072   0.187   0.599  10.776 -0.1726  0.3786  0.0827
 9194TIP3    H149073   0.265   0.547  10.758 -0.2744 -0.2530  1.3385
 9194TIP3    H249074   0.214   0.662  10.843 -0.8389 -0.1884  0.9135
 9195TIP3   OH249075   2.754   1.511  31.841 -0.4453  0.1416  0.7437
 9195TIP3    H149076   2.709   1.437  31.799 -0.0158 -0.3524  1.1459
 9195TIP3    H249077   2.699   1.587  31.820 -0.4747 -0.1563 -0.3337
 9196TIP3   OH249078   1.124   1.898   2.625 -0.0959 -0.1066 -0.1830
 9196TIP3    H149079   1.210   1.863   2.605 -1.1204 -2.0573 -1.4693
 9196TIP3    H249080   1.069   1.821   2.637 -2.0970  1.0405 -1.3932
 9197TIP3   OH249081   0.006   0.054  33.213  0.6513  0.0277 -0.0684
 9197TIP3    H149082  -0.073   0.094  33.176  1.0810  1.7651  0.7967
 9197TIP3    H249083   0.009  -0.033  33.173  0.1909  1.1573 -2.7984
 9198TIP3   OH249084   0.886   2.543  43.976  0.6397 -0.0249 -0.1132
 9198TIP3    H149085   0.823   2.523  43.907  1.4877  1.2109 -1.3100
 9198TIP3    H249086   0.847   2.616  44.024  0.3554 -0.4568  0.3364
 9199TIP3   OH249087   0.374   2.006  43.264  0.2423  0.5289  0.1783
 9199TIP3    H149088   0.448   1.972  43.313  0.3966 -0.4384 -0.7070
 9199TIP3    H249089   0.312   1.933  43.258 -0.1766  0.9050 -0.2755
 9200TIP3   OH249090   2.552   1.808  13.276  0.7366  0.0361  0.3754
 9200TIP3    H149091   2.530   1.802  13.369  2.2056  0.4375  0.7751
 9200TIP3    H249092   2.642   1.839  13.275 -0.0325  2.5328 -1.2172
 9201TIP3   OH249093   0.923   0.131  43.462 -0.4461  0.4012 -0.4041
 9201TIP3    H149094   0.951   0.041  43.479  1.0736  0.5418 -1.9095
 9201TIP3    H249095   0.907   0.167  43.549  0.1304 -0.9590  0.3020
 9202TIP3   OH249096   3.204   3.985   3.244 -0.0771 -0.0423  0.0691
 9202TIP3    H149097   3.240   4.001   3.331 -0.5582 -0.5623  0.3759
 9202TIP3    H249098   3.115   4.022   3.248  0.4965  1.4957 -0.7679
 9203TIP3   OH249099   2.420   1.003   1.969 -0.1114  0.1835 -0.3773
 9203TIP3    H149100   2.513   1.010   1.948 -0.2556 -1.3175 -1.6605
 9203TIP3    H249101   2.377   1.059   1.904 -0.2040 -0.5136 -0.9330
 9204TIP3   OH249102   0.314   0.083  13.835  0.1350  0.3166  0.4880
 9204TIP3    H149103   0.352  -0.005  13.843 -0.3894 -0.0436 -0.6976
 9204TIP3    H249104   0.388   0.138  13.810  0.4952  0.2495  1.3720
 9205TIP3   OH249105   3.930   2.582  33.387 -0.5210 -0.1551  0.3772
 9205TIP3    H149106   3.887   2.551  33.466 -0.3346 -0.1351  0.4875
 9205TIP3    H249107   3.886   2.535  33.316 -1.5580  0.7776  0.3759
 9206TIP3   OH249108   3.617   1.056   4.092  0.3130 -0.1635  0.3443
 9206TIP3    H149109   3.570   1.126   4.047  0.5974  0.3075  0.7700
 9206TIP3    H249110   3.674   1.019   4.025 -0.3783 -0.4814 -0.0740
 9207TIP3   OH249111   3.942   2.735   4.189 -0.1622  0.0394 -0.2259
 9207TIP3    H149112   3.860   2.751   4.142  0.4375  1.3012 -0.8690
 9207TIP3    H249113   4.001   2.699   4.123  0.2788  0.5996 -0.1442
 9208TIP3   OH249114   1.731   1.857  43.294  0.3339 -0.2265 -0.1991
 9208TIP3    H149115   1.685   1.862  43.378 -0.0516  0.6862 -0.4552
 9208TIP3    H249116   1.730   1.947  43.261  1.3217 -0.4042 -0.7400
 9209TIP3   OH249117   2.808   3.811   7.166 -0.0155 -0.2802  0.2852
 9209TIP3    H149118   2.888   3.805   7.114  0.0994  0.8006  0.3166
 9209TIP3    H249119   2.777   3.900   7.152 -1.1644 -0.6530  0.3565
 9210TIP3   OH249120   0.691   3.900  43.732 -0.1858 -0.0361  0.3883
 9210TIP3    H149121   0.683   3.883  43.639 -0.6543 -0.6342  0.5317
 9210TIP3    H249122   0.612   3.861  43.771  0.7681 -1.2337  1.2148
 9211TIP3   OH249123   2.338   2.053  42.538 -0.1249 -0.4598  0.5133
 9211TIP3    H149124   2.401   2.062  42.467  2.2895  0.2856  2.5982
 9211TIP3    H249125   2.386   2.009  42.608 -1.3847  1.4847  2.7534
 9212TIP3   OH249126   2.760   1.142  10.050 -0.0174  0.1638 -0.7813
 9212TIP3    H149127   2.810   1.170   9.973 -0.5726  0.1637 -1.1456
 9212TIP3    H249128   2.754   1.047  10.043  1.7371 -0.0847  0.3786
 9213TIP3   OH249129   0.476   4.036  13.065 -0.6913 -0.0927  0.1314
 9213TIP3    H149130   0.525   4.083  13.133 -0.5256 -2.4975  1.8268
 9213TIP3    H249131   0.541   4.018  12.997  0.1972 -1.0797  1.2024
 9214TIP3   OH249132   2.572   2.955  40.819  0.7566  0.2683  0.8185
 9214TIP3    H149133   2.508   2.970  40.749  0.3553  0.5164  1.2322
 9214TIP3    H249134   2.528   2.893  40.878  0.5069  1.1725  1.6034
 9215TIP3   OH249135   1.729   2.311  47.374  0.3767 -0.2365  0.0420
 9215TIP3    H149136   1.747   2.226  47.333  0.6774 -0.1838  0.0611
 9215TIP3    H249137   1.747   2.296  47.467 -2.8692 -1.1251  0.6834
 9216TIP3   OH249138   3.230   3.676   3.258  0.0778  0.4146  0.0145
 9216TIP3    H149139   3.230   3.771   3.270  0.0779  0.3748  0.3395
 9216TIP3    H249140   3.204   3.641   3.343  0.5058  0.1104  0.0237
 9217TIP3   OH249141   0.822   1.825  38.737 -0.3722 -0.1541 -0.0014
 9217TIP3    H149142   0.892   1.869  38.690 -0.4604 -0.0634 -0.0472
 9217TIP3    H249143   0.756   1.894  38.750 -0.9821 -0.5319 -1.0094
 9218TIP3   OH249144   0.616   1.443  43.575  0.2705 -0.2236  0.1470
 9218TIP3    H149145   0.527   1.473  43.594  0.2652 -1.3106  2.0170
 9218TIP3    H249146   0.603   1.362  43.525  0.2497  0.3244 -0.7614
 9219TIP3   OH249147   2.044   3.971  11.177 -0.7225 -0.5816 -0.4612
 9219TIP3    H149148   2.038   3.942  11.268 -2.7027 -1.7905 -0.9245
 9219TIP3    H249149   2.114   3.916  11.140 -0.9652 -1.1905 -0.0425
 9220TIP3   OH249150   3.214   2.764  45.464  0.1681 -0.5119 -0.0379
 9220TIP3    H149151   3.279   2.802  45.523 -0.1038  1.6724 -1.0119
 9220TIP3    H249152   3.177   2.690  45.512  0.7362  0.4950  2.0646
 9221TIP3   OH249153   2.123   2.003   9.588  0.3736  0.1242  0.5057
 9221TIP3    H149154   2.113   1.908   9.577  3.1892 -0.1592 -0.2720
 9221TIP3    H249155   2.109   2.039   9.500  4.4412 -0.2173 -0.4553
 9222TIP3   OH249156   0.487   0.349  26.842 -0.0580 -0.6400  0.5209
 9222TIP3    H149157   0.561   0.408  26.849 -1.2493  0.9058  0.7308
 9222TIP3    H249158   0.480   0.308  26.928  0.1470 -0.2634  0.7176
 9223TIP3   OH249159   3.669   0.006  13.607  0.4603 -0.0044  0.1578
 9223TIP3    H149160   3.598   0.025  13.667  0.6841 -2.0287  1.1121
 9223TIP3    H249161   3.660   0.073  13.538 -2.5186 -0.3583  0.0754
 9224TIP3   OH249162   2.221   2.425   2.497 -0.1488  0.6485 -0.4772
 9224TIP3    H149163   2.144   2.437   2.552  0.4530 -0.7091  0.7364
 9224TIP3    H249164   2.186   2.421   2.408 -1.3695  0.9730 -0.0374
 9225TIP3   OH249165   2.956   0.035  36.492 -0.0898  0.1726 -0.0057
 9225TIP3    H149166   2.939  -0.027  36.563  0.1204  1.1959  0.9708
 9225TIP3    H249167   3.034   0.002  36.448  0.5559  0.2369  1.0791
 9226TIP3   OH249168   1.276   3.852  45.446  0.3558 -0.6338  0.0162
 9226TIP3    H149169   1.261   3.827  45.355 -0.3763 -0.6986  0.1536
 9226TIP3    H249170   1.312   3.940  45.440 -0.8999 -0.1199 -0.2882
 9227TIP3   OH249171   1.613   3.213  10.050  0.4402 -0.3052 -0.2603
 9227TIP3    H149172   1.607   3.168  10.134  2.1080  0.4994  0.3469
 9227TIP3    H249173   1.668   3.157   9.995  1.5541  0.3717  0.1119
 9228TIP3   OH249174   0.456   3.322  32.866  0.0821 -0.4879 -0.1538
 9228TIP3    H149175   0.373   3.365  32.845  1.8194  2.0275 -2.5920
 9228TIP3    H249176   0.435   3.229  32.866 -2.3880 -0.0606 -2.6517
 9229TIP3   OH249177   2.327   2.419   4.389  0.0932  0.2404 -0.1095
 9229TIP3    H149178   2.304   2.449   4.301  3.3494 -0.7706 -1.4475
 9229TIP3    H249179   2.397   2.478   4.417 -0.3871  0.0793  1.5187
 9230TIP3   OH249180   3.934   0.238   4.430 -0.1198  0.0446  0.1027
 9230TIP3    H149181   3.911   0.279   4.346 -1.8079  0.2121  0.6225
 9230TIP3    H249182   3.922   0.307   4.495  1.9393  0.1457  0.4453
 9231TIP3   OH249183   4.060   1.873  43.750 -0.6671  0.0491 -0.3027
 9231TIP3    H149184   4.059   1.917  43.835  0.2498  0.6225 -0.5760
 9231TIP3    H249185   3.969   1.875  43.721 -1.1821 -1.0779  1.1165
 9232TIP3   OH249186   3.250   1.235  44.389 -0.2929 -0.1564  0.4927
 9232TIP3    H149187   3.302   1.155  44.401 -0.2498 -0.0553  1.0069
 9232TIP3    H249188   3.205   1.221  44.306  2.2920  0.7327 -1.1790
 9233TIP3   OH249189   1.924   3.574   3.753 -0.0121  0.2562 -0.0286
 9233TIP3    H149190   1.858   3.531   3.700 -0.9189  0.9391  0.5079
 9233TIP3    H249191   1.909   3.668   3.739  1.3579  0.4307 -0.5080
 9234TIP3   OH249192   1.316   2.023  40.284  0.1021 -0.1141 -0.0470
 9234TIP3    H149193   1.320   2.032  40.379 -0.2981 -2.4331  0.2460
 9234TIP3    H249194   1.227   2.051  40.262  0.7148  2.0564 -0.0163
 9235TIP3   OH249195   1.850   0.104  33.892 -0.0009  0.4514  0.0179
 9235TIP3    H149196   1.764   0.133  33.863  0.5329  1.8252 -0.2669
 9235TIP3    H249197   1.901   0.093  33.812 -0.0701 -0.9906  0.1359
 9236TIP3   OH249198   0.870   1.998   7.271  0.3842 -0.1349 -0.0531
 9236TIP3    H149199   0.795   1.950   7.306 -1.4011  1.5282 -1.3278
 9236TIP3    H249200   0.861   1.990   7.176 -0.1664  2.7571 -0.3545
 9237TIP3   OH249201   0.669   3.051  33.719  0.1379  0.4279 -0.2055
 9237TIP3    H149202   0.638   2.998  33.645  0.0048  0.2831 -0.0453
 9237TIP3    H249203   0.689   2.988  33.788 -1.6265  0.6902  0.5909
 9238TIP3   OH249204   0.687   2.956  36.311 -0.1409  0.3917 -0.2704
 9238TIP3    H149205   0.740   2.881  36.334 -0.2894  0.0830 -0.9100
 9238TIP3    H249206   0.733   3.031  36.349 -0.4164 -0.0921  1.0654
 9239TIP3   OH249207   3.956   1.252  16.148  0.1944  0.4229 -0.1260
 9239TIP3    H149208   3.874   1.297  16.167  0.5802  0.6450  1.1003
 9239TIP3    H249209   3.991   1.227  16.234  0.7843 -0.8007 -0.6793
 9240TIP3   OH249210   3.954   1.240   8.996 -0.2466  0.3183 -0.2510
 9240TIP3    H149211   3.866   1.264   8.970  0.1552  1.2081 -0.8355
 9240TIP3    H249212   3.957   1.255   9.090 -0.1459  2.1544 -0.5274
 9241TIP3   OH249213   3.148   0.563  30.322 -0.7362 -0.0188  0.0569
 9241TIP3    H149214   3.243   0.570  30.313 -0.7320 -2.0277 -2.9023
 9241TIP3    H249215   3.130   0.469  30.316 -2.9925  0.3936 -0.6521
 9242TIP3   OH249216   2.522   1.924  17.915 -0.3104 -0.5333  0.0531
 9242TIP3    H149217   2.429   1.948  17.913  0.0201  1.2235  2.1262
 9242TIP3    H249218   2.568   2.005  17.894  0.7803 -1.4151 -1.0766
 9243TIP3   OH249219   0.708   3.853  14.076 -0.3610 -0.3813 -0.6793
 9243TIP3    H149220   0.663   3.871  14.158 -0.5909 -4.6665  0.3470
 9243TIP3    H249221   0.800   3.841  14.101 -0.4055 -1.5458 -0.9962
 9244TIP3   OH249222   0.951   4.057  13.212 -0.0420 -0.0697 -0.1348
 9244TIP3    H149223   1.044   4.076  13.224 -0.2863  0.2363  1.3562
 9244TIP3    H249224   0.906   4.118  13.269 -1.0076 -2.6633  2.0670
 9245TIP3   OH249225   2.976   3.235  12.460  0.3715  0.1424 -0.4146
 9245TIP3    H149226   2.919   3.237  12.383 -0.1741 -1.0248 -0.0547
 9245TIP3    H249227   3.054   3.283  12.433 -0.8491  1.9685 -0.8401
 9246TIP3   OH249228   3.189   0.800  15.490  0.0212  0.1322  0.3758
 9246TIP3    H149229   3.166   0.817  15.581 -0.8876 -0.0330  0.1797
 9246TIP3    H249230   3.111   0.823  15.440  0.2483 -0.4938 -0.2920
 9247TIP3   OH249231   1.037   0.653   6.504 -0.0926 -0.1970  0.0970
 9247TIP3    H149232   1.076   0.663   6.418 -0.9430 -1.2888 -0.4457
 9247TIP3    H249233   1.044   0.739   6.544  1.1727  0.0856 -0.6800
 9248TIP3   OH249234   2.702   1.616   3.686 -0.3939  0.3167  0.2497
 9248TIP3    H149235   2.695   1.522   3.675 -1.4839  0.5080 -0.8473
 9248TIP3    H249236   2.749   1.627   3.769  0.6394 -1.1707 -0.1104
 9249TIP3   OH249237   3.156   0.009  13.687 -0.5164  0.1373  0.1552
 9249TIP3    H149238   3.202  -0.001  13.604  0.4464 -0.1775  0.7110
 9249TIP3    H249239   3.069  -0.029  13.672 -1.0478  1.7854 -1.2663
 9250TIP3   OH249240   1.304   1.714  42.907  0.2195 -0.0781 -0.3493
 9250TIP3    H149241   1.240   1.717  42.978 -0.9509  0.5805 -1.4008
 9250TIP3    H249242   1.373   1.655  42.939 -1.1618 -1.2420  0.5996
 9251TIP3   OH249243   2.455   3.545  45.749  0.5137  0.2515  0.1627
 9251TIP3    H149244   2.509   3.602  45.805 -0.7619  1.6570  0.0247
 9251TIP3    H249245   2.493   3.557  45.661 -0.1177  1.4051  0.0277
 9252TIP3   OH249246   1.513   1.454  20.179 -0.1565  0.2419  0.4272
 9252TIP3    H149247   1.547   1.434  20.091 -1.0610 -2.0157  0.5281
 9252TIP3    H249248   1.444   1.519  20.164 -0.6093 -0.4562 -0.5947
 9253TIP3   OH249249   3.670   3.662   1.547  0.2247 -0.5733  0.2731
 9253TIP3    H149250   3.711   3.728   1.603 -0.4043 -0.6645  0.8505
 9253TIP3    H249251   3.629   3.712   1.477 -1.4498 -0.2107  1.4591
 9254TIP3   OH249252   2.110   1.420  40.015 -0.5346 -0.6345 -0.5562
 9254TIP3    H149253   2.048   1.406  39.943 -0.4905 -0.2508 -0.6718
 9254TIP3    H249254   2.178   1.477  39.977 -0.4415 -0.5420 -0.2509
 9255TIP3   OH249255   0.227   0.013   5.276 -0.1198 -0.5143 -0.5201
 9255TIP3    H149256   0.261   0.097   5.244  1.1298 -1.0266 -0.6084
 9255TIP3    H249257   0.202  -0.035   5.198 -0.6179 -0.3285 -0.4819
 9256TIP3   OH249258   3.317   2.867  41.185 -0.2003  0.3804 -0.2346
 9256TIP3    H149259   3.300   2.891  41.094  3.1816 -0.3772 -1.2183
 9256TIP3    H249260   3.285   2.777  41.192  1.7042 -0.4796 -1.5495
 9257TIP3   OH249261   3.438   3.482   3.146  0.6428  0.0536  0.3349
 9257TIP3    H149262   3.459   3.422   3.218 -0.2127 -0.1044  0.4653
 9257TIP3    H249263   3.357   3.525   3.174  0.2541 -0.0743 -0.5724
 9258TIP3   OH249264   0.336   2.665  16.263  0.0719 -0.1513 -0.9330
 9258TIP3    H149265   0.376   2.699  16.344  1.4117 -2.3889 -0.5569
 9258TIP3    H249266   0.257   2.718  16.251 -1.1590 -0.8141  2.8278
 9259TIP3   OH249267   0.452   0.260   3.846 -0.1979  0.0274 -0.0156
 9259TIP3    H149268   0.398   0.210   3.907  1.1103 -0.5896  0.6727
 9259TIP3    H249269   0.524   0.201   3.824 -0.0604  0.6421 -1.3262
 9260TIP3   OH249270   1.393   1.628  43.770 -0.3612  0.1829  0.1537
 9260TIP3    H149271   1.301   1.599  43.766  0.1883 -2.3733  2.6723
 9260TIP3    H249272   1.439   1.567  43.712  0.0926 -0.5933  1.2913
 9261TIP3   OH249273   4.040   2.279   3.656 -0.7406 -0.3533 -0.2268
 9261TIP3    H149274   4.123   2.266   3.702 -0.3359 -0.1472 -0.8883
 9261TIP3    H249275   3.981   2.315   3.722 -0.1900 -0.1315  0.1474
 9262TIP3   OH249276   3.254   1.800   5.380  0.3608 -0.4668 -0.1640
 9262TIP3    H149277   3.193   1.731   5.406 -1.1693 -0.1010 -2.5087
 9262TIP3    H249278   3.236   1.872   5.440  0.2351 -1.2112  0.7198
 9263TIP3   OH249279   0.297   0.808  36.310 -0.2253  0.3642  0.0711
 9263TIP3    H149280   0.278   0.852  36.227  0.5110  1.1939  0.3289
 9263TIP3    H249281   0.215   0.765  36.333 -0.7241  0.9143 -0.6081
 9264TIP3   OH249282   1.498   2.713  10.600  0.0386  0.2823  0.2328
 9264TIP3    H149283   1.483   2.744  10.511 -2.5877  0.6983  0.7235
 9264TIP3    H249284   1.489   2.791  10.655 -1.7217 -0.4456  1.0706
 9265TIP3   OH249285   1.263   0.620   7.389 -0.9602 -0.8414 -0.0398
 9265TIP3    H149286   1.338   0.679   7.374 -2.3533  1.2442  0.6682
 9265TIP3    H249287   1.302   0.534   7.399  1.5089  0.3544  1.6215
 9266TIP3   OH249288   0.421   0.758   1.644 -0.4160  0.0913 -0.0550
 9266TIP3    H149289   0.462   0.836   1.607 -0.1227 -0.6989 -1.4497
 9266TIP3    H249290   0.354   0.733   1.581 -0.2792 -0.9768  0.1987
 9267TIP3   OH249291   0.855   1.500  32.496 -0.0244  0.2336 -0.4885
 9267TIP3    H149292   0.766   1.501  32.461 -0.5302  2.1506  0.6852
 9267TIP3    H249293   0.904   1.558  32.439  0.2207 -0.0178 -0.5326
 9268TIP3   OH249294   3.195   0.951  41.604  0.2891 -0.3896 -0.2248
 9268TIP3    H149295   3.190   0.877  41.665 -0.2422  1.4297  2.0812
 9268TIP3    H249296   3.236   1.021  41.655 -0.2240  1.2509 -1.9638
 9269TIP3   OH249297   3.253   3.378  39.303  0.2576 -0.1258 -0.6546
 9269TIP3    H149298   3.239   3.374  39.398  0.7802  0.7883 -0.5255
 9269TIP3    H249299   3.180   3.330  39.266  1.4839 -2.9862  0.3031
 9270TIP3   OH249300   3.800   2.492  38.965 -0.1803  0.4795  0.7308
 9270TIP3    H149301   3.783   2.528  39.052 -0.4712  0.1734  0.8019
 9270TIP3    H249302   3.758   2.406  38.966 -2.8523  1.6657 -0.7447
 9271TIP3   OH249303   3.811   0.842  43.153 -0.0106  0.1664 -0.6427
 9271TIP3    H149304   3.903   0.857  43.132  0.2680  0.8297  0.8984
 9271TIP3    H249305   3.806   0.748  43.174  0.5568  0.3349  0.3003
 9272TIP3   OH249306   1.253   2.459  39.070 -0.1121 -0.0423  0.3660
 9272TIP3    H149307   1.275   2.489  39.158  0.4514  1.3016 -0.2092
 9272TIP3    H249308   1.329   2.482  39.017 -0.8961  0.1795 -0.6859
 9273TIP3   OH249309   1.829   3.363  42.231  0.4775 -0.6836  0.4910
 9273TIP3    H149310   1.795   3.368  42.142 -0.3007  2.6683  0.8175
 9273TIP3    H249311   1.754   3.334  42.283  0.0167  0.2011  0.3554
 9274TIP3   OH249312   3.386   1.544  46.352 -0.3986  0.5734  0.2790
 9274TIP3    H149313   3.369   1.623  46.301 -1.0864 -0.5894 -1.3987
 9274TIP3    H249314   3.476   1.519  46.330 -0.0807  1.0243  1.0331
 9275TIP3   OH249315   0.100   1.399  21.075 -0.5208  0.5612 -0.0359
 9275TIP3    H149316   0.079   1.387  21.168  1.0609  0.1359  0.2881
 9275TIP3    H249317   0.123   1.492  21.068 -2.8716  1.1741 -0.5071
 9276TIP3   OH249318   2.763   3.398   3.520  0.3348  0.4362  0.0767
 9276TIP3    H149319   2.675   3.419   3.552  0.4723  0.5023  0.4164
 9276TIP3    H249320   2.760   3.420   3.427 -0.3566 -0.6348 -0.1878
 9277TIP3   OH249321   3.328   3.469   9.574 -0.2143 -0.4187 -0.3137
 9277TIP3    H149322   3.283   3.507   9.498 -0.2576  2.4465  1.0094
 9277TIP3    H249323   3.311   3.375   9.568 -1.8665 -0.0442 -2.7535
 9278TIP3   OH249324   4.094   1.199  34.377  0.2255  0.2075 -0.6755
 9278TIP3    H149325   4.139   1.282  34.394 -0.1261  0.5549 -1.4108
 9278TIP3    H249326   4.064   1.170  34.463  0.6216  0.6822 -0.3727
 9279TIP3   OH249327   1.859   2.008  36.154 -0.1151 -0.4333  0.0292
 9279TIP3    H149328   1.842   1.977  36.243 -0.5096  0.2178  0.1749
 9279TIP3    H249329   1.849   1.930  36.099  0.4575 -0.9107  0.5862
 9280TIP3   OH249330   0.715   1.255   5.327  0.4067  0.0898 -0.2945
 9280TIP3    H149331   0.673   1.169   5.318  0.7166 -0.0106 -0.8544
 9280TIP3    H249332   0.692   1.284   5.415 -0.4009 -0.1930 -0.4058
 9281TIP3   OH249333   2.488   1.867   6.579 -0.5790 -0.2106 -0.3396
 9281TIP3    H149334   2.493   1.959   6.554 -1.3180  0.4591  1.6991
 9281TIP3    H249335   2.400   1.858   6.617 -0.2445 -1.5580  0.1769
 9282TIP3   OH249336   2.587   2.362  15.749  0.0373  0.3656 -0.3210
 9282TIP3    H149337   2.562   2.309  15.825  0.2020  1.8185  0.7866
 9282TIP3    H249338   2.539   2.322  15.676 -3.8370  1.5621  1.2772
 9283TIP3   OH249339   3.926   3.084   8.033 -0.0973  0.0550 -0.0786
 9283TIP3    H149340   3.966   3.126   8.109  0.8331  0.4950 -0.7943
 9283TIP3    H249341   3.845   3.132   8.019 -1.0798 -1.0064  1.5444
 9284TIP3   OH249342   3.382   3.979  39.500 -0.0332 -0.1626 -0.6233
 9284TIP3    H149343   3.338   3.907  39.454  0.0365 -1.1494  0.7824
 9284TIP3    H249344   3.470   3.981  39.464 -0.3778 -0.0017 -1.4864
 9285TIP3   OH249345   2.623   2.394  10.280  0.4482 -0.3870 -0.0717
 9285TIP3    H149346   2.645   2.301  10.279 -0.5480 -0.6384  0.3830
 9285TIP3    H249347   2.532   2.398  10.251  1.0892  0.6449 -2.1051
 9286TIP3   OH249348   3.152   0.940  35.914 -0.2507 -0.0289 -0.1099
 9286TIP3    H149349   3.201   0.869  35.874 -2.1118 -0.8046 -1.1231
 9286TIP3    H249350   3.137   0.912  36.004  1.6839  0.5385  0.4387
 9287TIP3   OH249351   0.049   2.660  33.151 -0.7136 -0.0827 -0.5789
 9287TIP3    H149352   0.125   2.613  33.118 -0.7440  0.1684 -1.0261
 9287TIP3    H249353   0.001   2.595  33.203  1.3479  0.4873  2.3256
 9288TIP3   OH249354   3.924   2.563  45.180 -0.2962  0.2453 -0.0303
 9288TIP3    H149355   3.921   2.652  45.216  0.7313 -0.0494  0.8566
 9288TIP3    H249356   4.017   2.540  45.181 -0.4613 -0.5378 -1.0364
 9289TIP3   OH249357   1.219   3.204   8.902  0.1097 -0.1508 -0.4333
 9289TIP3    H149358   1.154   3.267   8.932  0.1841 -0.8636  1.3987
 9289TIP3    H249359   1.303   3.244   8.923  0.1549 -1.4324  2.2956
 9290TIP3   OH249360   0.036   0.293  26.339  0.1678 -0.6302  0.2316
 9290TIP3    H149361   0.069   0.357  26.402 -0.7772 -1.4248  1.5908
 9290TIP3    H249362   0.114   0.252  26.302  0.8044 -1.6894  2.5437
 9291TIP3   OH249363   2.889   0.532  11.546  0.6973  0.2758  0.0841
 9291TIP3    H149364   2.840   0.498  11.621  0.1625  0.1082 -0.3418
 9291TIP3    H249365   2.948   0.598  11.585 -1.0753  1.7661  0.3981
 9292TIP3   OH249366   1.981   1.338   7.692  0.0402 -0.6901 -0.0720
 9292TIP3    H149367   2.022   1.425   7.691  0.0221 -0.6844 -0.6858
 9292TIP3    H249368   2.039   1.285   7.747 -0.6033  0.0206  1.3286
 9293TIP3   OH249369   0.302   0.934  41.262  0.1878  0.2101 -0.3257
 9293TIP3    H149370   0.324   0.986  41.185 -0.3463 -1.6825 -1.8175
 9293TIP3    H249371   0.240   0.869  41.231 -0.5708 -0.2124  1.8684
 9294TIP3   OH249372   1.773   2.791  35.434  0.3462 -0.2439  0.1489
 9294TIP3    H149373   1.864   2.766  35.415  1.0228  1.5983  0.7803
 9294TIP3    H249374   1.752   2.743  35.514  0.3860 -1.4435 -0.5237
 9295TIP3   OH249375   0.545   0.637  44.716  0.1285  0.2003  0.3467
 9295TIP3    H149376   0.540   0.722  44.673 -2.6393  0.1048  0.3091
 9295TIP3    H249377   0.454   0.610  44.728  0.8823 -1.9244  2.0479
 9296TIP3   OH249378   2.554   4.107  37.937 -0.3255  0.2052  0.0957
 9296TIP3    H149379   2.589   4.116  38.026 -0.8825  1.0626  0.2435
 9296TIP3    H249380   2.579   4.189  37.894 -1.0210  0.2722 -0.1904
 9297TIP3   OH249381   0.705   1.342  47.556  0.1684 -0.8083 -0.7202
 9297TIP3    H149382   0.615   1.315  47.541 -0.1640 -0.1038 -0.0423
 9297TIP3    H249383   0.742   1.354  47.468 -0.7901  0.1778 -1.0003
 9298TIP3   OH249384   0.571   2.652  12.275 -0.5805  0.2045  0.6422
 9298TIP3    H149385   0.647   2.632  12.221 -1.3594  2.3571 -1.3820
 9298TIP3    H249386   0.501   2.596  12.241 -0.9400  1.2001 -0.3014
 9299TIP3   OH249387   2.200   3.442   3.383  0.3642  0.3259  0.1924
 9299TIP3    H149388   2.174   3.363   3.430  0.7689 -0.5173 -0.9631
 9299TIP3    H249389   2.137   3.449   3.311  0.5777  0.8284  0.0538
 9300TIP3   OH249390   3.086   0.931  10.063 -0.6680 -0.2360  0.3709
 9300TIP3    H149391   3.156   0.888  10.013 -0.7710  0.0185  0.0016
 9300TIP3    H249392   3.064   0.868  10.132 -1.7069 -1.3582 -0.9279
 9301TIP3   OH249393   3.589   1.618  43.957 -0.0169  0.0323 -0.5711
 9301TIP3    H149394   3.502   1.640  43.990  0.0053 -0.3357 -0.2658
 9301TIP3    H249395   3.591   1.523  43.954  0.1995  0.0496 -1.0599
 9302TIP3   OH249396   0.869   2.183  45.592 -0.3163 -0.6388 -0.3472
 9302TIP3    H149397   0.856   2.138  45.509  0.8343 -2.0364  0.1688
 9302TIP3    H249398   0.959   2.215  45.588 -0.1657 -0.9435  0.4466
 9303TIP3   OH249399   0.228   2.970  12.682  0.3739  0.1997  0.3025
 9303TIP3    H149400   0.195   3.054  12.651 -2.0930 -1.8291 -3.3619
 9303TIP3    H249401   0.174   2.949  12.758 -0.4018  1.0226  0.0021
 9304TIP3   OH249402   2.457   3.139   2.550  0.2036  0.2204  0.2607
 9304TIP3    H149403   2.541   3.147   2.595  0.3280 -0.8005  0.2321
 9304TIP3    H249404   2.453   3.216   2.494  2.4012 -1.0057 -1.8040
 9305TIP3   OH249405   2.930   2.739  43.057  0.6370  0.2543 -0.3548
 9305TIP3    H149406   2.932   2.726  42.963 -0.1063  0.3160 -0.3832
 9305TIP3    H249407   3.018   2.771  43.079  0.8379  0.1527 -1.0074
 9306TIP3   OH249408   1.475   0.632  39.634 -0.0312 -0.5494 -0.0499
 9306TIP3    H149409   1.469   0.540  39.607  0.1134  0.0938 -2.4716
 9306TIP3    H249410   1.385   0.656  39.656 -0.3312 -0.8628 -0.8956
 9307TIP3   OH249411   2.637   2.970   0.589  0.0198  0.0692 -0.4118
 9307TIP3    H149412   2.620   3.064   0.584 -2.6249 -0.3371 -0.1700
 9307TIP3    H249413   2.624   2.948   0.682  1.5033 -0.4273 -0.2922
 9308TIP3   OH249414   1.939   2.892  38.105  0.4156  0.4105  0.1553
 9308TIP3    H149415   1.881   2.952  38.152  0.8614 -0.2505  1.6382
 9308TIP3    H249416   1.892   2.809  38.103  1.9236 -0.6670  3.0420
 9309TIP3   OH249417   2.808   0.129  41.997  0.0929 -0.1244  0.5524
 9309TIP3    H149418   2.793   0.037  41.979  0.0600 -0.2529  1.2331
 9309TIP3    H249419   2.889   0.131  42.049 -0.1395  0.1965  0.9074
 9310TIP3   OH249420   1.153   3.570   7.633 -0.3597 -0.0123  0.6013
 9310TIP3    H149421   1.181   3.583   7.723  1.3608 -0.9891  0.2460
 9310TIP3    H249422   1.126   3.478   7.629 -1.2192  0.2350  0.2937
 9311TIP3   OH249423   2.421   0.404  10.246  0.1030 -0.2165  0.2835
 9311TIP3    H149424   2.417   0.465  10.319  3.8796 -0.0559  0.5262
 9311TIP3    H249425   2.475   0.447  10.180 -0.2234 -1.8127 -1.1209
 9312TIP3   OH249426   0.964   3.685  10.852  0.1178 -0.4367  0.1838
 9312TIP3    H149427   0.902   3.698  10.781  0.5376  0.9294  0.0312
 9312TIP3    H249428   1.023   3.616  10.821 -0.3454 -0.5979 -0.3373
 9313TIP3   OH249429   1.558   2.438  40.182  0.0453  0.2505 -0.0421
 9313TIP3    H149430   1.645   2.406  40.208 -0.1816 -1.7167 -1.4337
 9313TIP3    H249431   1.504   2.424  40.260  0.7670  0.6852  0.5572
 9314TIP3   OH249432   3.186   1.241   2.235 -0.2163  0.3627 -0.3369
 9314TIP3    H149433   3.156   1.265   2.148  0.7110  1.7850 -0.2976
 9314TIP3    H249434   3.155   1.151   2.247 -0.2452  0.0916 -2.1665
 9315TIP3   OH249435   3.475   1.441  34.138 -0.5973  0.1715  0.7529
 9315TIP3    H149436   3.435   1.479  34.216 -0.0694  0.9909  0.6395
 9315TIP3    H249437   3.416   1.369  34.113 -1.2424  0.4696  1.3839
 9316TIP3   OH249438   2.339   0.041  27.081  0.0818 -0.8281 -0.0037
 9316TIP3    H149439   2.280   0.116  27.088 -0.0113 -1.0014  1.3422
 9316TIP3    H249440   2.357   0.033  26.987 -1.8581 -0.6341 -0.4347
 9317TIP3   OH249441   4.057   2.014  14.112  0.2608  0.3584 -0.1597
 9317TIP3    H149442   4.116   2.067  14.166  2.6067 -1.2423 -1.0098
 9317TIP3    H249443   4.020   1.950  14.173 -0.9896  1.6218  0.4594
 9318TIP3   OH249444   3.435   2.948   0.171 -0.1263  0.5457  0.1216
 9318TIP3    H149445   3.381   3.017   0.211  1.7030  1.4838  1.1185
 9318TIP3    H249446   3.459   2.891   0.243  0.7025  0.4923 -0.1840
 9319TIP3   OH249447   1.196   2.308   7.318  0.4509 -0.8259  0.1776
 9319TIP3    H149448   1.213   2.387   7.370  0.1975 -0.6553  0.0058
 9319TIP3    H249449   1.208   2.337   7.227 -4.4366  0.3947 -0.3448
 9320TIP3   OH249450   1.887   1.604  10.715  0.0563  0.4778 -0.1683
 9320TIP3    H149451   1.941   1.531  10.685  1.2105  0.9596  0.6775
 9320TIP3    H249452   1.862   1.650  10.634 -0.7310 -0.8435 -0.7192
 9321TIP3   OH249453   4.056   2.509  37.755  0.2879 -0.1480 -0.1275
 9321TIP3    H149454   3.992   2.578  37.738  1.7741  1.5414  0.7996
 9321TIP3    H249455   4.117   2.515  37.682  0.8113  0.0141  0.3171
 9322TIP3   OH249456   2.441   0.184  43.806  0.7840  0.5095 -0.0383
 9322TIP3    H149457   2.351   0.156  43.823 -0.0480  1.5570 -2.2952
 9322TIP3    H249458   2.481   0.189  43.893 -1.0794 -0.7301  0.9726
 9323TIP3   OH249459   3.031   3.792  26.260 -0.1969  0.5219  0.1031
 9323TIP3    H149460   3.055   3.884  26.269 -0.6029  0.6065  0.3605
 9323TIP3    H249461   3.110   3.749  26.227  0.2412  0.8276  0.7434
 9324TIP3   OH249462   3.507   4.067  30.950  0.2469  0.4705  0.0502
 9324TIP3    H149463   3.588   4.110  30.977 -0.2351 -0.3129  3.0752
 9324TIP3    H249464   3.442   4.094  31.015 -1.1106 -1.4906 -0.3888
 9325TIP3   OH249465   3.346   2.689  38.757 -0.2877 -0.3517  0.0639
 9325TIP3    H149466   3.360   2.722  38.845 -2.5308 -1.2309  0.8132
 9325TIP3    H249467   3.308   2.763  38.710 -0.0155 -0.1770  0.1168
 9326TIP3   OH249468   0.682   2.999   2.755  0.0410  0.4346 -0.1941
 9326TIP3    H149469   0.588   3.011   2.744  0.2607  0.5186 -2.3670
 9326TIP3    H249470   0.695   2.904   2.755 -0.0626  0.4189  0.3657
 9327TIP3   OH249471   1.058   2.800  10.527 -0.3883  0.3548  0.0860
 9327TIP3    H149472   1.007   2.746  10.467 -0.4563 -2.1043  2.1847
 9327TIP3    H249473   0.995   2.825  10.595  0.8862 -2.1906  2.3806
 9328TIP3   OH249474   0.230   0.268  30.204 -0.5060  0.5443  0.3159
 9328TIP3    H149475   0.171   0.196  30.225  1.3092 -0.9394  0.5449
 9328TIP3    H249476   0.204   0.339  30.263 -0.7850 -0.7533  1.7984
 9329TIP3   OH249477   2.229   0.773  11.962 -0.1998 -0.0986  0.7009
 9329TIP3    H149478   2.236   0.830  11.885 -3.2658 -1.3776 -0.6926
 9329TIP3    H249479   2.182   0.826  12.026 -0.9647 -0.2548  0.2789
 9330TIP3   OH249480   2.735   3.086  10.873  1.2320  0.0177  0.0540
 9330TIP3    H149481   2.712   3.050  10.788 -1.3513 -0.8157  1.0221
 9330TIP3    H249482   2.729   3.181  10.862  1.3375 -0.0702 -0.7778
 9331TIP3   OH249483   2.296   3.901  34.264 -0.2093  0.2638 -0.0594
 9331TIP3    H149484   2.350   3.882  34.187  0.1960  1.7730 -0.1711
 9331TIP3    H249485   2.297   3.996  34.272 -1.5880  0.2322  0.8675
 9332TIP3   OH249486   2.533   2.684  13.831  0.0732  0.2973  0.1394
 9332TIP3    H149487   2.588   2.665  13.754  1.0021 -0.0039  0.8595
 9332TIP3    H249488   2.480   2.759  13.805 -0.5518 -0.5820 -1.2523
 9333TIP3   OH249489   1.649   1.882  19.669 -0.4477 -0.0511  0.0123
 9333TIP3    H149490   1.736   1.908  19.701 -0.7831 -0.3105  1.1725
 9333TIP3    H249491   1.589   1.910  19.738 -1.1390 -1.1698 -0.1176
 9334TIP3   OH249492   2.264   1.831   4.655  0.1978 -0.3274  0.5669
 9334TIP3    H149493   2.170   1.813   4.656 -0.1230  0.9679 -1.5553
 9334TIP3    H249494   2.271   1.925   4.668  1.1759 -0.3087 -0.0132
 9335TIP3   OH249495   0.133   2.724   2.305 -0.1663 -0.0363 -0.1075
 9335TIP3    H149496   0.060   2.780   2.277 -0.2364  1.3436  2.5160
 9335TIP3    H249497   0.186   2.711   2.226 -1.4609  1.7078 -1.3273
 9336TIP3   OH249498   1.391   0.717  35.473  0.1399  0.5385 -0.1413
 9336TIP3    H149499   1.456   0.647  35.472 -0.0149  0.3984 -0.5928
 9336TIP3    H249500   1.397   0.756  35.386 -0.7592  0.1740 -0.3697
 9337TIP3   OH249501   2.399   2.661   6.515 -0.5701  0.4199  0.3925
 9337TIP3    H149502   2.485   2.624   6.533 -0.3676  0.2586 -0.8271
 9337TIP3    H249503   2.378   2.712   6.593  0.2574 -0.2093  1.0446
 9338TIP3   OH249504   2.229   1.916   2.627 -0.4598 -0.5141 -0.7887
 9338TIP3    H149505   2.251   1.827   2.653 -3.3231 -1.1023 -0.0305
 9338TIP3    H249506   2.209   1.960   2.710 -0.4046  0.4387 -1.2698
 9339TIP3   OH249507   3.917   1.012  16.000 -0.1606  0.0256 -0.5035
 9339TIP3    H149508   3.934   1.099  16.037  0.5242  0.5284 -1.9164
 9339TIP3    H249509   3.897   1.029  15.908  0.7371 -1.3668 -0.9824
 9340TIP3   OH249510   1.201   2.108  16.112 -0.2039  0.1505 -0.2752
 9340TIP3    H149511   1.278   2.051  16.114 -1.2979 -1.3668  1.4960
 9340TIP3    H249512   1.218   2.174  16.179 -0.3760 -0.0874  0.0027
 9341TIP3   OH249513   1.215   1.358   9.083 -0.1628  0.3999  0.1125
 9341TIP3    H149514   1.300   1.346   9.040  0.7571  3.5357  0.8293
 9341TIP3    H249515   1.151   1.325   9.020  1.4483 -0.2639 -1.2530
 9342TIP3   OH249516   1.570   0.767  13.319  0.3972  0.4443 -0.1887
 9342TIP3    H149517   1.555   0.835  13.252  1.9372  0.6997 -0.3192
 9342TIP3    H249518   1.550   0.685  13.275 -1.1298  0.7690 -0.1470
 9343TIP3   OH249519   3.768   0.425  40.364  0.1249  0.1971  0.0314
 9343TIP3    H149520   3.713   0.435  40.442 -0.6151  3.2460 -0.7289
 9343TIP3    H249521   3.710   0.391  40.297 -0.7133  2.4599 -0.4941
 9344TIP3   OH249522   3.993   0.481   1.609 -0.0188  0.2414  0.3779
 9344TIP3    H149523   4.035   0.490   1.695  0.6632 -2.1320  0.3487
 9344TIP3    H249524   3.899   0.478   1.628  0.1316 -0.3531  1.0671
 9345TIP3   OH249525   3.971   2.728  31.485  0.5174  0.0120  0.1559
 9345TIP3    H149526   3.931   2.642  31.500  0.2443  0.3628  1.6152
 9345TIP3    H249527   3.993   2.759  31.573  0.2160  1.6217 -0.3077
 9346TIP3   OH249528   3.498   1.229  31.840  0.4648  0.2654 -0.2083
 9346TIP3    H149529   3.472   1.277  31.918 -3.0110  0.5773 -1.3815
 9346TIP3    H249530   3.499   1.294  31.770  1.1256 -0.4187 -0.8599
 9347TIP3   OH249531   3.418   3.044  37.788  0.0219  0.0701  0.0685
 9347TIP3    H149532   3.480   2.972  37.792  0.1502  0.1321 -0.7603
 9347TIP3    H249533   3.448   3.105  37.856  0.5153 -0.1755  0.0727
 9348TIP3   OH249534   3.615   0.650  41.703  0.3824  0.6927  0.2196
 9348TIP3    H149535   3.533   0.633  41.749  2.4529 -1.6143  3.4565
 9348TIP3    H249536   3.617   0.586  41.632 -0.0834 -0.0194  0.8451
 9349TIP3   OH249537   0.891   3.590  38.822 -0.4557 -0.4356 -0.1307
 9349TIP3    H149538   0.808   3.541  38.819 -0.7858  0.0926  0.2482
 9349TIP3    H249539   0.958   3.522  38.826 -0.9649 -0.8857  1.8655
 9350TIP3   OH249540   3.024   0.379  31.463  0.1301 -0.7965  0.2209
 9350TIP3    H149541   2.987   0.291  31.462 -1.9745  0.0267  0.5017
 9350TIP3    H249542   2.977   0.425  31.394  0.7793  0.2842  0.4815
 9351TIP3   OH249543   2.356   0.078  47.619  0.1278  0.2990  0.2404
 9351TIP3    H149544   2.412   0.044  47.689  0.8791  2.4631  0.7439
 9351TIP3    H249545   2.275   0.105  47.664 -0.1844 -0.1291 -0.0500
 9352TIP3   OH249546   1.817   0.460  30.657 -0.4167  0.3365 -0.2443
 9352TIP3    H149547   1.887   0.492  30.713  0.6204 -2.3576  0.1401
 9352TIP3    H249548   1.756   0.418  30.717  0.1809 -1.6633 -0.9737
 9353TIP3   OH249549   3.697   0.917  14.644  0.1320  0.2364  0.0207
 9353TIP3    H149550   3.709   0.822  14.641 -1.6330 -0.1632  2.2284
 9353TIP3    H249551   3.675   0.941  14.554 -1.5533 -1.8338 -0.2203
 9354TIP3   OH249552   3.281   0.045  44.453 -0.1418  0.5853  0.1964
 9354TIP3    H149553   3.266   0.037  44.548 -0.0856 -3.0549  0.0534
 9354TIP3    H249554   3.268  -0.044  44.420  3.4029  0.9275 -2.7108
 9355TIP3   OH249555   0.244   3.224  33.862  0.1715 -0.1572  0.3859
 9355TIP3    H149556   0.299   3.221  33.783  0.8744  2.1775  0.6998
 9355TIP3    H249557   0.171   3.281  33.837  0.6251  0.9575  1.5056
 9356TIP3   OH249558   3.460   2.804  39.815  0.3105 -0.0701 -0.0394
 9356TIP3    H149559   3.418   2.885  39.787  1.0519  0.2891 -0.1269
 9356TIP3    H249560   3.552   2.826  39.825  0.6728 -1.1032 -0.8625
 9357TIP3   OH249561   3.059   1.260  42.118 -0.1229  0.5280  0.4295
 9357TIP3    H149562   3.132   1.277  42.178 -0.5788 -0.3482  1.2683
 9357TIP3    H249563   3.011   1.343  42.114  0.4949  0.8917  0.4635
 9358TIP3   OH249564   0.611   3.029  37.401 -0.3308 -0.1794 -0.9428
 9358TIP3    H149565   0.687   3.002  37.452 -1.5882 -0.2653  0.9682
 9358TIP3    H249566   0.563   3.089  37.458 -1.4721  0.2498 -2.2836
 9359TIP3   OH249567   1.142   1.548  19.502  0.1488  0.1852 -0.0079
 9359TIP3    H149568   1.137   1.604  19.579 -0.3244 -0.5032  0.4741
 9359TIP3    H249569   1.229   1.563  19.466  0.5707  0.1242  0.9633
 9360TIP3   OH249570   1.509   2.589  34.104 -0.1971  0.0478  0.2199
 9360TIP3    H149571   1.588   2.549  34.140 -1.2610 -1.3141  1.0975
 9360TIP3    H249572   1.460   2.516  34.066 -1.8016  0.6230  1.1271
 9361TIP3   OH249573   1.751   0.824  38.444 -0.1022 -0.6572  0.0963
 9361TIP3    H149574   1.806   0.755  38.481 -0.3503  0.1022  1.9487
 9361TIP3    H249575   1.721   0.788  38.360 -0.3447 -2.8475  1.0637
 9362TIP3   OH249576   3.147   3.476  32.902 -0.7257  0.7725  0.7267
 9362TIP3    H149577   3.073   3.417  32.919 -2.4484  2.4903 -0.3470
 9362TIP3    H249578   3.195   3.433  32.831 -0.1672 -0.7625  1.9731
 9363TIP3   OH249579   2.953   3.987   5.179 -0.0670 -0.3571  0.3384
 9363TIP3    H149580   2.980   4.009   5.269 -0.4368 -0.5304  0.4947
 9363TIP3    H249581   2.997   4.052   5.124 -0.2332  0.0570  0.6913
 9364TIP3   OH249582   3.628   1.466  12.186  0.2091  0.8078  0.3159
 9364TIP3    H149583   3.715   1.467  12.145 -0.4624  3.1730 -1.2868
 9364TIP3    H249584   3.569   1.441  12.115 -0.6275  1.4524  0.7715
 9365TIP3   OH249585   3.482   2.068  13.718  0.1090 -0.0197 -0.3751
 9365TIP3    H149586   3.462   2.150  13.762 -1.0953 -0.1391 -0.6530
 9365TIP3    H249587   3.518   2.094  13.633  1.2200  0.2087  0.1567
 9366TIP3   OH249588   0.348   1.631  31.837 -0.1446 -0.2602  0.3993
 9366TIP3    H149589   0.338   1.635  31.742 -0.8939 -2.4357  0.3215
 9366TIP3    H249590   0.439   1.654  31.852 -0.2176  0.9059 -0.7578
 9367TIP3   OH249591   0.277   0.820  13.871  0.2953  0.2881  0.4041
 9367TIP3    H149592   0.364   0.854  13.892  1.2537 -0.8864 -1.3449
 9367TIP3    H249593   0.240   0.793  13.955  0.4165  3.3597  1.5611
 9368TIP3   OH249594   3.691   1.677  44.222  0.0324  0.1861 -0.2129
 9368TIP3    H149595   3.667   1.754  44.274  0.9751 -0.0950  0.6597
 9368TIP3    H249596   3.657   1.696  44.135  0.4416  1.6886 -0.0695
 9369TIP3   OH249597   0.330   2.957  46.215 -0.2344 -0.1322  0.0719
 9369TIP3    H149598   0.365   2.911  46.139  0.2900 -0.5910  0.5829
 9369TIP3    H249599   0.399   3.018  46.240 -0.2366 -0.2711  0.4231
 9370TIP3   OH249600   1.487   2.941  44.077  0.4228 -0.3060 -0.2229
 9370TIP3    H149601   1.457   2.877  44.142 -0.4331  0.5928  0.2807
 9370TIP3    H249602   1.478   2.895  43.993 -0.3099 -0.8053  0.1169
 9371TIP3   OH249603   2.363   0.140  29.773  0.0269  0.0755 -0.0757
 9371TIP3    H149604   2.324   0.210  29.826 -1.1451 -1.6627  1.4867
 9371TIP3    H249605   2.304   0.130  29.699 -0.3896  0.0671  0.2506
 9372TIP3   OH249606   1.255   0.752  14.971 -0.0583 -0.5111  0.3659
 9372TIP3    H149607   1.282   0.691  15.039 -0.8453 -0.1996  0.9743
 9372TIP3    H249608   1.205   0.819  15.017 -0.1170  0.0179 -0.4390
 9373TIP3   OH249609   3.927   3.663  14.675  0.3827 -0.3410  0.5447
 9373TIP3    H149610   3.907   3.756  14.664 -0.2884 -0.3956  1.2477
 9373TIP3    H249611   3.904   3.644  14.766  0.8832 -1.1082  0.5224
 9374TIP3   OH249612   0.531   3.339  36.573  0.4194  1.0135 -0.3903
 9374TIP3    H149613   0.441   3.316  36.550  0.3001  1.5882 -0.5235
 9374TIP3    H249614   0.544   3.426  36.536  0.0776  2.1982  2.0635
 9375TIP3   OH249615   3.693   2.817   0.919 -0.3574 -0.0647  0.4986
 9375TIP3    H149616   3.765   2.769   0.877 -0.8505 -0.2730 -0.1230
 9375TIP3    H249617   3.615   2.791   0.870 -1.0205 -0.6340  1.8137
 9376TIP3   OH249618   3.509   3.303   0.616 -0.3597  0.3114  0.6505
 9376TIP3    H149619   3.492   3.233   0.552 -0.0817  0.1478  0.7538
 9376TIP3    H249620   3.602   3.323   0.605 -0.2648  0.1588  1.1216
 9377TIP3   OH249621   0.200   2.084  35.438 -0.7622  0.0966 -0.0241
 9377TIP3    H149622   0.205   2.074  35.343  0.2716 -0.4302  0.0645
 9377TIP3    H249623   0.291   2.095  35.465 -1.1896  2.2989  0.7090
 9378TIP3   OH249624   0.606   2.228  46.338  0.7018 -0.2688 -0.5474
 9378TIP3    H149625   0.622   2.321  46.355 -0.1670  0.3604 -2.7908
 9378TIP3    H249626   0.628   2.184  46.420  1.0838  1.9133  0.5828
 9379TIP3   OH249627   3.449   3.397  42.541  0.2079  0.4934 -0.4050
 9379TIP3    H149628   3.482   3.344  42.614 -1.5262  0.1197  0.1706
 9379TIP3    H249629   3.486   3.484  42.555  0.8058  0.1360  0.2796
 9380TIP3   OH249630   1.790   1.218  45.595  0.2397  0.3986 -0.3595
 9380TIP3    H149631   1.870   1.168  45.577 -0.4661 -0.8023 -0.2847
 9380TIP3    H249632   1.760   1.245  45.508 -0.3090 -0.8546 -0.5936
 9381TIP3   OH249633   0.710   0.538   2.267 -0.4202 -0.7511 -0.6159
 9381TIP3    H149634   0.656   0.544   2.189 -0.1078  0.0043 -0.7839
 9381TIP3    H249635   0.741   0.628   2.282 -0.0054 -0.9925  0.0328
 9382TIP3   OH249636   1.490   3.431   7.628 -0.3046 -0.0235 -0.0456
 9382TIP3    H149637   1.438   3.434   7.709  2.0574 -0.9373  1.6298
 9382TIP3    H249638   1.471   3.514   7.584 -0.7121  1.1105  2.1126
 9383TIP3   OH249639   0.655   2.027   2.079  0.5704  0.4470 -0.0958
 9383TIP3    H149640   0.707   2.103   2.106  1.1374 -0.0984  0.3926
 9383TIP3    H249641   0.609   2.001   2.159  1.5740 -0.6476  0.1557
 9384TIP3   OH249642   1.558   2.832  43.086 -0.2278  0.3272  0.4104
 9384TIP3    H149643   1.472   2.820  43.047 -0.2297 -0.5622  0.6563
 9384TIP3    H249644   1.560   2.770  43.159  0.3305  0.9000  0.8953
 9385TIP3   OH249645   2.519   2.126  36.741 -0.6164 -0.5610  0.2848
 9385TIP3    H149646   2.585   2.183  36.700 -0.0196 -0.9381  0.6913
 9385TIP3    H249647   2.522   2.045  36.690 -0.3821 -0.7704  0.6230
 9386TIP3   OH249648   4.032   1.562  10.930 -0.0347 -0.3827  0.4670
 9386TIP3    H149649   4.074   1.645  10.908 -0.8729  0.0936  0.6043
 9386TIP3    H249650   3.966   1.586  10.995  0.2021 -1.2738  1.0395
 9387TIP3   OH249651   1.778   3.524  10.590  0.1780  0.1637  0.6012
 9387TIP3    H149652   1.821   3.574  10.659 -0.3264 -1.3120  2.0618
 9387TIP3    H249653   1.691   3.505  10.625  0.7782 -2.8392  0.7676
 9388TIP3   OH249654   3.496   0.162   8.465 -0.2209 -0.1933  0.0681
 9388TIP3    H149655   3.578   0.114   8.459  0.0624  0.3667 -0.5842
 9388TIP3    H249656   3.433   0.109   8.415  0.0702  0.0596 -0.5749
 9389TIP3   OH249657   0.575   3.830   4.801 -0.6880  0.4235 -0.2926
 9389TIP3    H149658   0.654   3.842   4.748  1.2066 -1.1937  1.9535
 9389TIP3    H249659   0.576   3.903   4.863 -0.6749  0.1533  0.0299
 9390TIP3   OH249660   2.746   2.704  39.313  0.1149 -0.6811  0.3765
 9390TIP3    H149661   2.816   2.720  39.377  0.9645 -0.8438 -0.4968
 9390TIP3    H249662   2.674   2.761  39.341  0.3606 -0.9534  1.6349
 9391TIP3   OH249663   2.439   2.145   9.557 -0.2795  0.3781  0.4330
 9391TIP3    H149664   2.489   2.134   9.638 -0.3497 -3.4443  0.1346
 9391TIP3    H249665   2.503   2.131   9.488 -1.2026 -2.0176 -0.0003
 9392TIP3   OH249666   3.955   3.802  34.134  0.3394  0.1432 -0.3355
 9392TIP3    H149667   4.041   3.816  34.173 -0.1156 -0.1241  0.8046
 9392TIP3    H249668   3.956   3.711  34.104 -0.1551 -0.4555  1.3468
 9393TIP3   OH249669   3.414   2.261  33.855 -0.3397 -0.0785  0.1176
 9393TIP3    H149670   3.407   2.351  33.887  0.0293  0.1339 -0.3789
 9393TIP3    H249671   3.328   2.222  33.871 -0.7461  0.6077 -0.3858
 9394TIP3   OH249672   2.920   1.318  19.280 -0.0754 -0.0827  0.2742
 9394TIP3    H149673   2.922   1.285  19.370 -2.0889 -2.6305 -0.5036
 9394TIP3    H249674   2.829   1.343  19.266 -0.0052 -0.6997 -1.3908
 9395TIP3   OH249675   2.947   3.470  26.524  0.6359  0.0790  0.3058
 9395TIP3    H149676   2.939   3.413  26.601  0.3506  0.0498  0.2523
 9395TIP3    H249677   2.858   3.480  26.491  0.8889 -0.8719 -0.7307
 9396TIP3   OH249678   3.553   2.156   9.135  0.0526 -0.3728 -0.4865
 9396TIP3    H149679   3.631   2.115   9.172  1.3693  1.5657 -0.9565
 9396TIP3    H249680   3.544   2.239   9.183  0.4709  1.1286 -2.8376
 9397TIP3   OH249681   1.446   3.633   7.455  0.1870 -0.3649  0.1450
 9397TIP3    H149682   1.401   3.661   7.375 -0.4997 -1.8100  0.0092
 9397TIP3    H249683   1.515   3.699   7.467 -0.0802  0.2181 -1.2907
 9398TIP3   OH249684   0.178   3.890  42.809 -0.4397  0.4326  0.3829
 9398TIP3    H149685   0.206   3.960  42.750 -0.5289  0.0618 -0.1131
 9398TIP3    H249686   0.117   3.838  42.756  3.1971 -2.8782 -1.0479
 9399TIP3   OH249687   1.784   1.076  39.680  0.2917 -0.5101  0.0516
 9399TIP3    H149688   1.829   1.086  39.597 -0.0742  2.4769  0.1038
 9399TIP3    H249689   1.741   1.160  39.694 -1.2139 -1.5712  2.3681
 9400TIP3   OH249690   3.061   0.719   4.852  0.1085 -0.7782  0.6630
 9400TIP3    H149691   3.156   0.708   4.858  0.3543  0.3711 -0.7545
 9400TIP3    H249692   3.042   0.715   4.758 -1.2472 -0.9317  0.9229
 9401TIP3   OH249693   1.509   2.595   5.987 -0.4287 -0.0296 -0.1789
 9401TIP3    H149694   1.422   2.573   6.021  0.6825 -1.3244  2.0781
 9401TIP3    H249695   1.541   2.515   5.947  0.7755 -0.4883  1.5526
 9402TIP3   OH249696   1.332   2.059  45.305  0.3231  0.2679  0.2639
 9402TIP3    H149697   1.292   1.973  45.293  0.5211  0.2197 -0.0859
 9402TIP3    H249698   1.408   2.059  45.246 -0.2779  1.0587 -0.5541
 9403TIP3   OH249699   3.755   2.688  14.606 -0.7677  0.1978  0.3304
 9403TIP3    H149700   3.733   2.597  14.629  0.4487  0.2114  1.7019
 9403TIP3    H249701   3.847   2.684  14.579  0.3586  1.4380  3.5502
 9404TIP3   OH249702   0.187   0.975  38.034  0.4231 -0.0969 -0.0203
 9404TIP3    H149703   0.155   1.026  37.960  1.1420  1.1046  0.4779
 9404TIP3    H249704   0.271   0.940  38.004 -0.7496 -2.3751 -0.9395
 9405TIP3   OH249705   2.146   3.511  14.291  0.9605 -0.4064  0.1386
 9405TIP3    H149706   2.203   3.572  14.337 -0.6630  0.3743  1.2126
 9405TIP3    H249707   2.183   3.425  14.309  0.2904 -0.1666  3.1813
 9406TIP3   OH249708   3.835   0.601  44.649 -0.3685 -0.7027 -0.2580
 9406TIP3    H149709   3.910   0.560  44.690 -1.3598 -1.3200  1.0075
 9406TIP3    H249710   3.841   0.575  44.557  0.8649 -0.8550 -0.1506
 9407TIP3   OH249711   0.709   0.680  45.934 -0.4640 -0.5360 -0.0030
 9407TIP3    H149712   0.754   0.645  46.011  0.0432 -1.9097 -0.8778
 9407TIP3    H249713   0.747   0.767  45.922  2.2513 -1.7316 -0.8546
 9408TIP3   OH249714   1.582   1.415   0.104 -0.2837 -0.0487 -0.4667
 9408TIP3    H149715   1.565   1.343   0.165 -1.0558  0.6731  0.1994
 9408TIP3    H249716   1.570   1.376   0.018  1.7850 -1.3398 -0.2488
 9409TIP3   OH249717   0.142   3.298  46.096  0.3792  0.6412 -0.5199
 9409TIP3    H149718   0.101   3.262  46.174 -0.1721 -0.0819 -1.1252
 9409TIP3    H249719   0.197   3.370  46.128 -1.1832  1.5047  0.3548
 9410TIP3   OH249720   3.387   4.070  34.290  0.1103  0.0901  0.6202
 9410TIP3    H149721   3.372   4.102  34.201 -0.6301  0.5336  0.8933
 9410TIP3    H249722   3.482   4.064  34.298  0.1802  0.0590 -0.1944
 9411TIP3   OH249723   2.941   3.988  43.111  0.0193 -0.7052 -0.4874
 9411TIP3    H149724   2.853   4.025  43.108  0.6811  0.9307 -1.4183
 9411TIP3    H249725   2.998   4.064  43.122  1.2598 -1.8486  1.5441
 9412TIP3   OH249726   3.048   3.660   9.984 -0.5469  0.6614  0.1271
 9412TIP3    H149727   3.014   3.570   9.983 -0.2754  0.5284 -2.4776
 9412TIP3    H249728   2.978   3.713   9.947  0.3792  1.0535 -1.1055
 9413TIP3   OH249729   3.116   0.774  36.432  0.3414 -0.1797 -0.4454
 9413TIP3    H149730   3.179   0.727  36.377  0.7323 -1.6179  1.1194
 9413TIP3    H249731   3.049   0.709  36.453 -0.3278  0.6190 -0.0462
 9414TIP3   OH249732   0.689   3.682  32.874 -0.5088  0.4603  0.3032
 9414TIP3    H149733   0.599   3.650  32.863 -0.6777  0.4743  1.5411
 9414TIP3    H249734   0.680   3.759  32.930  0.0667  1.7596 -1.3262
 9415TIP3   OH249735   3.294   2.027  12.063 -0.0235 -0.4009 -0.1341
 9415TIP3    H149736   3.244   1.950  12.036  0.9663 -1.5258  1.1453
 9415TIP3    H249737   3.335   2.002  12.145 -0.3904  1.8264  0.7846
 9416TIP3   OH249738   0.846   2.157  38.845  0.3399  0.4985 -0.2377
 9416TIP3    H149739   0.877   2.157  38.936 -0.8443 -2.9264  0.3177
 9416TIP3    H249740   0.759   2.117  38.850 -0.1768  1.1670 -2.7894
 9417TIP3   OH249741   4.057   1.574  38.797  0.1501  0.3255  0.1054
 9417TIP3    H149742   3.973   1.590  38.840  0.3483  1.3273  0.1498
 9417TIP3    H249743   4.114   1.643  38.831  0.5051  0.7291 -1.2630
 9418TIP3   OH249744   3.585   1.231   9.949 -0.0282 -0.0532  0.2821
 9418TIP3    H149745   3.530   1.160   9.981 -0.5150  0.1790 -0.0358
 9418TIP3    H249746   3.675   1.202   9.967 -0.2669 -0.2215  1.2412
 9419TIP3   OH249747   3.660   1.463  10.044 -0.7399 -0.0032 -0.5169
 9419TIP3    H149748   3.746   1.486  10.008  1.2062 -1.4692  2.7599
 9419TIP3    H249749   3.640   1.378  10.004 -0.5291  0.1916 -1.0505
 9420TIP3   OH249750   1.668   2.897   4.013 -0.9232 -0.1572  0.4766
 9420TIP3    H149751   1.602   2.835   4.045 -0.6615 -0.3056  0.7266
 9420TIP3    H249752   1.616   2.968   3.975 -1.2204 -0.9361 -0.6131
 9421TIP3   OH249753   0.990   2.581  38.985  0.4489 -0.2650 -0.6104
 9421TIP3    H149754   1.076   2.543  38.972  0.9453  0.8719 -0.7957
 9421TIP3    H249755   0.998   2.670  38.951 -0.6741 -0.0051 -0.2388
 9422TIP3   OH249756   1.455   0.556  44.591 -0.2582  0.0385  0.7551
 9422TIP3    H149757   1.536   0.506  44.600  0.0909  0.4560 -0.0495
 9422TIP3    H249758   1.387   0.489  44.580  0.3584 -0.2705 -1.6127
 9423TIP3   OH249759   2.404   3.706   4.791  0.0864 -0.4244  0.0798
 9423TIP3    H149760   2.411   3.800   4.773  0.1710 -0.4055  0.2130
 9423TIP3    H249761   2.317   3.682   4.757 -0.2448 -0.1500  0.7163
 9424TIP3   OH249762   3.825   2.187  12.324  0.0689  0.1654  0.3060
 9424TIP3    H149763   3.858   2.266  12.368  1.1109  0.6676 -1.2782
 9424TIP3    H249764   3.901   2.130  12.316  0.0484  0.2841 -1.1799
 9425TIP3   OH249765   3.229   0.701  36.747  0.0129 -0.4538 -0.0048
 9425TIP3    H149766   3.135   0.713  36.737 -0.1223 -0.4282  1.2018
 9425TIP3    H249767   3.256   0.656  36.666 -1.0469 -0.5915 -0.2965
 9426TIP3   OH249768   2.214   1.786  47.317 -0.0787  0.2824  0.0990
 9426TIP3    H149769   2.291   1.749  47.358 -0.3626  0.2158  0.5847
 9426TIP3    H249770   2.148   1.717  47.323  0.2902 -0.2997 -1.8232
 9427TIP3   OH249771   3.192   3.751  46.955 -0.7453 -0.2601 -0.4785
 9427TIP3    H149772   3.188   3.662  46.921 -0.2515  0.2261 -1.8675
 9427TIP3    H249773   3.111   3.792  46.925 -0.7632 -0.1082 -0.2256
 9428TIP3   OH249774   3.168   2.281  12.220 -0.1025 -0.3615 -0.3447
 9428TIP3    H149775   3.171   2.219  12.147 -0.5982 -0.0371 -0.6448
 9428TIP3    H249776   3.228   2.245  12.285  0.6695 -0.4303 -1.0908
 9429TIP3   OH249777   0.110   0.577   2.386  0.2309  0.2260 -0.5080
 9429TIP3    H149778   0.075   0.633   2.454  0.2820  1.5451 -1.5241
 9429TIP3    H249779   0.196   0.549   2.419 -0.5824 -0.8116  0.8091
 9430TIP3   OH249780   2.055   3.922  12.658 -0.9417 -0.0607 -0.0828
 9430TIP3    H149781   2.067   3.841  12.609  1.5185  1.0377 -1.4795
 9430TIP3    H249782   2.096   3.905  12.743  2.3730  0.5093 -1.4032
 9431TIP3   OH249783   3.051   3.602  39.933  0.3662 -0.1702 -0.0434
 9431TIP3    H149784   3.141   3.601  39.967  0.7595 -1.8815 -1.0167
 9431TIP3    H249785   2.996   3.611  40.011  1.3364  3.8865  0.4004
 9432TIP3   OH249786   3.484   4.043  46.179 -0.3354  0.0402 -0.1647
 9432TIP3    H149787   3.567   4.079  46.211 -0.6866  0.9538 -0.2412
 9432TIP3    H249788   3.489   4.053  46.084  0.2576 -1.6819 -0.3472
 9433TIP3   OH249789   3.348   2.764  16.630 -0.3534  0.0533 -0.4594
 9433TIP3    H149790   3.287   2.728  16.695  0.6759 -1.6259 -0.3528
 9433TIP3    H249791   3.299   2.760  16.547 -0.5418 -0.9102 -0.3167
 9434TIP3   OH249792   4.103   1.403  10.283  0.6077  0.7143 -0.5275
 9434TIP3    H149793   4.066   1.481  10.324  1.4327  1.3741 -1.0158
 9434TIP3    H249794   4.075   1.407  10.192 -0.5764 -0.3459 -0.2384
 9435TIP3   OH249795   3.109   1.089  35.553  0.4650 -0.2348 -0.4518
 9435TIP3    H149796   3.051   1.156  35.516 -0.5078 -0.6906  0.2230
 9435TIP3    H249797   3.051   1.027  35.597  1.4794 -0.4467  0.6652
 9436TIP3   OH249798   3.839   2.744  45.587  0.2269  0.1558  0.3824
 9436TIP3    H149799   3.825   2.698  45.670  2.3897 -2.2089 -0.4184
 9436TIP3    H249800   3.861   2.833  45.613 -1.8552  0.2690  2.1432
 9437TIP3   OH249801   0.394   2.629   1.399 -0.3933 -0.2302 -0.6018
 9437TIP3    H149802   0.318   2.615   1.342 -1.4598 -0.5086  0.8187
 9437TIP3    H249803   0.392   2.554   1.459  0.3546  0.3393  0.1539
 9438TIP3   OH249804   3.631   3.781  30.562  0.0081  0.2235  0.8898
 9438TIP3    H149805   3.699   3.793  30.495  0.3861 -0.3051  1.1690
 9438TIP3    H249806   3.661   3.705  30.612 -0.6877  0.1197  1.1511
 9439TIP3   OH249807   4.057   1.270  11.532  0.2979  0.5697  0.5505
 9439TIP3    H149808   4.044   1.266  11.438 -0.8314 -0.9849  0.7268
 9439TIP3    H249809   3.985   1.323  11.564 -0.0654  0.0223  0.6485
 9440TIP3   OH249810   1.118   0.335  30.687  0.8180  0.5274  0.3406
 9440TIP3    H149811   1.196   0.386  30.665  1.5010 -0.5380  0.2194
 9440TIP3    H249812   1.113   0.337  30.782 -0.8991  3.3162  0.3035
 9441TIP3   OH249813   3.944   2.222  36.367 -0.2768 -0.2221  0.0046
 9441TIP3    H149814   3.873   2.166  36.400 -2.1466  0.4204 -2.6011
 9441TIP3    H249815   3.916   2.311  36.388  0.2105 -0.0087 -0.2370
 9442TIP3   OH249816   2.969   0.320  15.089  0.9106 -0.1993 -0.5029
 9442TIP3    H149817   2.934   0.408  15.098  1.9588  0.0104  4.0097
 9442TIP3    H249818   3.062   0.333  15.066  0.7870 -0.2268 -1.0386
 9443TIP3   OH249819   4.043   2.331  17.709  0.3659 -0.0585  0.5080
 9443TIP3    H149820   4.007   2.272  17.775  1.1779 -0.6480  0.4357
 9443TIP3    H249821   4.098   2.276  17.654  0.0970  0.5222 -0.3665
 9444TIP3   OH249822   2.073   0.921   4.667  0.5296 -0.1766  0.2288
 9444TIP3    H149823   2.139   0.973   4.621 -1.0817 -0.6739 -2.9819
 9444TIP3    H249824   2.112   0.833   4.672  1.3201  0.2152  1.2352
 9445TIP3   OH249825   1.740   3.222  12.132 -0.0271  0.1864 -0.1139
 9445TIP3    H149826   1.825   3.236  12.174  0.8442 -3.3363 -0.3657
 9445TIP3    H249827   1.761   3.194  12.043 -1.3363 -1.5132  0.0545
 9446TIP3   OH249828   0.073   2.544  46.647 -0.5103  0.5883  0.1807
 9446TIP3    H149829  -0.021   2.524  46.640 -0.6036  1.1437 -0.1925
 9446TIP3    H249830   0.095   2.587  46.565 -0.2380  1.6866  0.7987
 9447TIP3   OH249831   1.415   1.835  12.544  0.0214 -0.5151  1.1321
 9447TIP3    H149832   1.490   1.814  12.488  0.7636 -1.1643  2.3294
 9447TIP3    H249833   1.408   1.930  12.540  1.3519 -0.3767  1.5377
 9448TIP3   OH249834   1.823   0.405  13.987  0.3386  0.2543 -0.0978
 9448TIP3    H149835   1.779   0.488  13.968 -0.3119  0.7022  2.8118
 9448TIP3    H249836   1.878   0.424  14.063 -0.1595 -2.0555  0.9258
 9449TIP3   OH249837   2.050   3.328  26.486  0.3156 -0.6825 -0.0799
 9449TIP3    H149838   2.079   3.334  26.577 -0.0904  0.4277  0.0001
 9449TIP3    H249839   2.006   3.243  26.480 -1.7102  0.1672  1.4112
 9450TIP3   OH249840   3.682   1.350  16.141 -0.0881  0.5063  0.4149
 9450TIP3    H149841   3.695   1.321  16.231  1.5478  0.9156  0.3306
 9450TIP3    H249842   3.586   1.352  16.130 -0.2901 -0.7342  1.7291
 9451TIP3   OH249843   0.461   2.888   4.467 -0.4316 -0.5291  0.3356
 9451TIP3    H149844   0.489   2.798   4.452 -0.5908 -0.8337  1.7343
 9451TIP3    H249845   0.531   2.926   4.521  0.8234  0.9421 -2.1603
 9452TIP3   OH249846   3.110   1.959  14.801  0.2773  0.1280  0.6574
 9452TIP3    H149847   3.098   2.046  14.839  0.9749  1.2290 -1.4671
 9452TIP3    H249848   3.041   1.906  14.839 -0.1579  1.5982  2.0219
 9453TIP3   OH249849   1.602   0.170  35.390  0.6312 -0.5465  0.4652
 9453TIP3    H149850   1.550   0.133  35.319 -1.0151  2.7257 -0.2002
 9453TIP3    H249851   1.681   0.115  35.392  0.5608 -1.1210 -3.5862
 9454TIP3   OH249852   0.339   0.282  40.038  0.6743 -0.1226  0.1777
 9454TIP3    H149853   0.318   0.374  40.021 -0.1268  0.0222  1.7239
 9454TIP3    H249854   0.264   0.250  40.088  0.6937 -1.7860 -0.8247
 9455TIP3   OH249855   2.358   1.281  37.758  0.2525  0.2712  0.2918
 9455TIP3    H149856   2.380   1.335  37.682  1.5611 -2.0315 -1.0955
 9455TIP3    H249857   2.263   1.280  37.761  0.1778  0.2158 -1.4941
 9456TIP3   OH249858   2.975   0.478  32.319  0.4897  0.0327  0.2492
 9456TIP3    H149859   2.994   0.467  32.412  0.3308  1.4904  0.4672
 9456TIP3    H249860   3.060   0.471  32.277  0.6332 -0.0840  0.5517
 9457TIP3   OH249861   1.995   3.673  14.089  0.2249  0.3999 -0.4540
 9457TIP3    H149862   2.008   3.621  14.009  0.6671  0.3813 -0.3756
 9457TIP3    H249863   2.023   3.614  14.160 -0.4196  0.3212 -0.2629
 9458TIP3   OH249864   3.082   1.939   8.288 -0.0977 -0.2461 -0.4432
 9458TIP3    H149865   3.113   2.026   8.264  0.6639 -0.4775 -0.3237
 9458TIP3    H249866   3.114   1.882   8.218  0.5204 -0.6275  0.1384
 9459TIP3   OH249867   1.222   4.054  42.233 -0.1261  0.0158  0.3965
 9459TIP3    H149868   1.132   4.029  42.252 -0.1066  0.3826  1.0259
 9459TIP3    H249869   1.215   4.124  42.169 -0.1763 -1.6354 -1.4868
 9460TIP3   OH249870   2.340   0.623  32.103 -0.4372  0.4063 -0.5579
 9460TIP3    H149871   2.257   0.616  32.150  0.0639 -0.8063  0.1881
 9460TIP3    H249872   2.340   0.712  32.068 -0.9019  1.3101  1.6039
 9461TIP3   OH249873   3.077   0.007  12.390  0.3146 -0.0491  0.0097
 9461TIP3    H149874   3.046   0.001  12.480 -0.8432  0.8395 -0.3076
 9461TIP3    H249875   3.050  -0.075  12.350  1.5677 -0.8182  0.6551
 9462TIP3   OH249876   0.867   2.072   8.489  0.2675 -0.1700  0.4690
 9462TIP3    H149877   0.901   1.984   8.474  0.9684  0.0706  0.6081
 9462TIP3    H249878   0.794   2.059   8.550 -1.1366 -0.9011 -1.2583
 9463TIP3   OH249879   1.462   2.290  43.302  0.3445  0.6170 -1.0076
 9463TIP3    H149880   1.495   2.343  43.375 -0.9176 -1.3157  1.1039
 9463TIP3    H249881   1.424   2.353  43.241 -1.5341  2.2180  1.6005
 9464TIP3   OH249882   3.176   2.948  33.965  0.2822  0.2498 -0.4706
 9464TIP3    H149883   3.262   2.915  33.939  0.5855  0.2975  0.4310
 9464TIP3    H249884   3.194   3.006  34.039 -0.4193  1.1466 -0.9856
 9465TIP3   OH249885   2.975   0.796   3.023 -0.1395 -0.2240 -0.3495
 9465TIP3    H149886   2.895   0.843   3.045  0.3117  0.7820 -0.7610
 9465TIP3    H249887   2.991   0.819   2.931  0.7517 -0.2036 -0.1952
 9466TIP3   OH249888   0.154   1.999  32.235 -0.1368  0.0829  0.3578
 9466TIP3    H149889   0.112   1.919  32.204 -1.5477  1.0173 -0.2533
 9466TIP3    H249890   0.132   2.065  32.169  1.8852  0.7677  0.2893
 9467TIP3   OH249891   3.136   3.948  31.895 -0.5773 -0.3920 -0.1402
 9467TIP3    H149892   3.127   4.027  31.842 -0.5732 -0.8753 -0.8876
 9467TIP3    H249893   3.157   3.879  31.831 -1.9621 -1.2639  0.2975
 9468TIP3   OH249894   2.785   3.375  46.323  0.3111 -0.4061 -0.0138
 9468TIP3    H149895   2.763   3.461  46.287 -2.2667 -1.1741 -0.4893
 9468TIP3    H249896   2.738   3.371  46.406  1.4374 -0.8835  0.6165
 9469TIP3   OH249897   2.137   2.458  10.045 -0.4284  0.5736  0.2376
 9469TIP3    H149898   2.069   2.520  10.072 -1.4240 -0.4613  0.1537
 9469TIP3    H249899   2.093   2.399   9.985  0.0973 -1.1592  1.4846
 9470TIP3   OH249900   1.850   3.629   8.034 -0.0665  1.1279 -0.6690
 9470TIP3    H149901   1.791   3.605   7.962 -0.8342  0.8117  0.0594
 9470TIP3    H249902   1.935   3.597   8.006 -0.1024  2.0699 -1.9881
 9471TIP3   OH249903   1.779   0.309   9.334  0.1284  0.0566 -0.7466
 9471TIP3    H149904   1.697   0.272   9.301  0.1061  0.0522 -0.6884
 9471TIP3    H249905   1.839   0.305   9.260  0.0183  0.2412 -0.8457
 9472TIP3   OH249906   2.080   2.364  21.035 -0.0836 -0.1651  0.1542
 9472TIP3    H149907   2.030   2.445  21.045 -0.8972 -0.2514 -2.3659
 9472TIP3    H249908   2.171   2.391  21.039 -0.3224  1.1031 -1.5048
 9473TIP3   OH249909   0.252   0.353  45.661  0.5039 -0.0247  0.7435
 9473TIP3    H149910   0.212   0.268  45.682 -1.4235  0.6041 -0.1288
 9473TIP3    H249911   0.227   0.370  45.570  0.3973  1.6873  1.0537
 9474TIP3   OH249912   1.948   1.607  31.538 -0.0525 -0.4946  0.4539
 9474TIP3    H149913   2.003   1.546  31.490 -1.8327 -1.9465  0.1478
 9474TIP3    H249914   1.921   1.559  31.616 -0.2271  0.4803  1.0099
 9475TIP3   OH249915   2.634   2.824  31.901  0.1466  0.1458  0.3268
 9475TIP3    H149916   2.645   2.755  31.837 -1.5465  0.0863  0.0588
 9475TIP3    H249917   2.547   2.810  31.937 -0.2798  2.1815  0.2051
 9476TIP3   OH249918   2.513   1.109   6.508 -0.0106 -0.1146 -0.0243
 9476TIP3    H149919   2.520   1.198   6.474 -0.2458 -0.0492  0.0939
 9476TIP3    H249920   2.567   1.056   6.450 -0.8140 -0.0939 -0.8135
 9477TIP3   OH249921   2.998   4.058  27.038 -0.1649 -0.6987 -0.3987
 9477TIP3    H149922   3.026   4.102  27.118  0.1948 -0.8155 -0.4596
 9477TIP3    H249923   2.913   4.020  27.060 -1.3130  1.4571 -0.8625
 9478TIP3   OH249924   2.757   0.992  41.070  0.4581  0.4655 -0.2020
 9478TIP3    H149925   2.833   0.934  41.082 -0.1616 -0.4216 -0.4231
 9478TIP3    H249926   2.684   0.932  41.053 -0.3437  1.2957  0.2473
 9479TIP3   OH249927   3.616   2.971  33.764 -0.0599  0.3746 -0.2926
 9479TIP3    H149928   3.553   2.910  33.803 -0.0347  0.1671 -0.5802
 9479TIP3    H249929   3.697   2.956  33.813 -0.0646  0.2081 -0.3336
 9480TIP3   OH249930   1.450   1.177  33.643 -0.0190  0.0797 -0.5225
 9480TIP3    H149931   1.398   1.097  33.638 -2.3595  1.5137 -0.4536
 9480TIP3    H249932   1.484   1.177  33.733  0.5082 -1.0934 -0.6963
 9481TIP3   OH249933   1.991   0.444  15.821  0.2251 -0.2165  0.3918
 9481TIP3    H149934   1.918   0.392  15.788  1.4363  0.3802 -3.8581
 9481TIP3    H249935   2.068   0.388  15.805  1.1814  1.3584 -0.8307
 9482TIP3   OH249936   0.437   3.837   7.394 -0.1127 -0.4093  0.4696
 9482TIP3    H149937   0.474   3.757   7.431  0.1671  0.0574  1.2022
 9482TIP3    H249938   0.347   3.839   7.426 -0.1279 -0.4418  0.4295
 9483TIP3   OH249939   2.733   1.631  37.600 -0.2609 -0.3936  0.0504
 9483TIP3    H149940   2.779   1.586  37.670 -1.7257 -0.8952  0.7200
 9483TIP3    H249941   2.699   1.710  37.641 -0.5979 -0.3766 -0.2586
 9484TIP3   OH249942   0.520   2.590  45.355  0.8047 -0.4129 -0.1118
 9484TIP3    H149943   0.496   2.678  45.387  0.6192 -0.2108 -0.7928
 9484TIP3    H249944   0.444   2.535  45.377 -0.0660  0.0874 -1.6849
 9485TIP3   OH249945   0.804   2.512  39.914 -0.1659  0.4443  0.5396
 9485TIP3    H149946   0.794   2.500  39.819 -2.0276 -0.9962  0.8646
 9485TIP3    H249947   0.873   2.452  39.938 -0.0185  0.4608  0.1682
 9486TIP3   OH249948   1.736   2.567  46.466  0.5907  0.0838  0.3675
 9486TIP3    H149949   1.651   2.526  46.448  1.5537 -1.6152 -0.6647
 9486TIP3    H249950   1.745   2.633  46.397 -0.0144  0.4865  0.6652
 9487TIP3   OH249951   2.312   3.777   2.952  0.4809 -0.4327  0.1448
 9487TIP3    H149952   2.308   3.869   2.924  0.1536 -0.3089  0.5804
 9487TIP3    H249953   2.341   3.781   3.043 -2.0198 -0.5783  1.0160
 9488TIP3   OH249954   2.695   2.098   5.719 -0.4846  0.4546 -0.1840
 9488TIP3    H149955   2.667   2.140   5.800 -0.7775  0.1833 -0.1382
 9488TIP3    H249956   2.633   2.025   5.708 -0.5006  0.5410 -0.6941
 9489TIP3   OH249957   0.011   0.352  38.025 -0.2254 -0.9320 -0.5728
 9489TIP3    H149958   0.043   0.442  38.024 -2.5445 -0.0536 -0.9836
 9489TIP3    H249959   0.005   0.330  38.118 -3.7041  1.0011 -0.1492
 9490TIP3   OH249960   3.199   3.656  41.903 -0.0126 -0.0181 -0.6105
 9490TIP3    H149961   3.192   3.722  41.972 -0.0403  0.4012 -1.0093
 9490TIP3    H249962   3.292   3.631  41.902 -0.0612 -0.2269 -0.2434
 9491TIP3   OH249963   2.840   2.045   8.890  0.2417 -0.0811 -0.1290
 9491TIP3    H149964   2.801   2.113   8.835  0.0238 -0.0225  0.0991
 9491TIP3    H249965   2.935   2.060   8.883  0.3168 -1.1002 -1.8226
 9492TIP3   OH249966   1.258   1.343  15.951  0.7964 -0.0271  0.0677
 9492TIP3    H149967   1.219   1.391  15.878 -0.0497  0.5408  0.8669
 9492TIP3    H249968   1.234   1.252  15.935  1.0160  0.0312 -0.6090
 9493TIP3   OH249969   1.878   2.932  26.736  0.2220  0.0785  0.8792
 9493TIP3    H149970   1.879   2.982  26.818  1.4759 -0.9245  1.5088
 9493TIP3    H249971   1.786   2.932  26.709 -0.1885  0.5782  2.1988
 9494TIP3   OH249972   2.650   3.541  38.539  0.1080  0.4691  0.8454
 9494TIP3    H149973   2.595   3.501  38.607 -1.3035  1.5988  0.4378
 9494TIP3    H249974   2.633   3.489  38.461  0.6791 -0.0142  1.0434
 9495TIP3   OH249975   1.474   2.184  42.804  0.3329  0.1180  0.3548
 9495TIP3    H149976   1.450   2.258  42.748  2.0631  0.3349 -0.1429
 9495TIP3    H249977   1.471   2.107  42.747  2.5134  0.3942 -0.2370
 9496TIP3   OH249978   0.873   3.086  30.827 -0.1716  0.4643 -0.6119
 9496TIP3    H149979   0.844   3.158  30.771 -1.5773  1.4818  1.3127
 9496TIP3    H249980   0.967   3.082  30.812 -0.2932  1.6042 -2.0026
 9497TIP3   OH249981   0.219   0.182  35.670 -0.2944 -0.0244 -0.1471
 9497TIP3    H149982   0.193   0.270  35.642 -0.8400 -0.0266  0.3316
 9497TIP3    H249983   0.260   0.195  35.756  1.9133  0.0579 -1.1378
 9498TIP3   OH249984   0.356   1.813  19.515 -0.1215 -0.1780  0.4145
 9498TIP3    H149985   0.343   1.899  19.476  0.9006  1.0374  2.5800
 9498TIP3    H249986   0.272   1.792  19.556  0.1484  0.6541  1.4276
 9499TIP3   OH249987   1.959   3.569  34.044 -0.0218 -0.5488  0.4756
 9499TIP3    H149988   1.897   3.634  34.012  1.1536 -0.1073 -1.0493
 9499TIP3    H249989   1.978   3.597  34.134 -0.5722  0.4184  0.3125
 9500TIP3   OH249990   0.667   0.506   3.949 -0.3856  0.0860 -0.0673
 9500TIP3    H149991   0.717   0.453   4.011  0.0181  0.8289  0.2469
 9500TIP3    H249992   0.671   0.457   3.867 -2.0821 -1.6267  0.7912
 9501TIP3   OH249993   3.754   0.771  40.549 -0.3818  0.3167 -0.0119
 9501TIP3    H149994   3.775   0.852  40.503 -1.2884  0.9331  0.6207
 9501TIP3    H249995   3.702   0.720  40.486 -1.0027  0.8405  0.0718
 9502TIP3   OH249996   3.284   3.616  15.364 -0.0337  0.4315  0.2106
 9502TIP3    H149997   3.343   3.542  15.380  2.6631  2.0896 -1.3791
 9502TIP3    H249998   3.250   3.639  15.451  0.5471 -1.4556  0.9782
 9503TIP3   OH249999   3.120   2.993  39.145 -0.0122 -0.3369 -0.6853
 9503TIP3    H150000   3.046   2.936  39.125 -0.6812  0.3912 -0.3430
 9503TIP3    H250001   3.081   3.067  39.193  0.9493  0.0001 -0.4021
 9504TIP3   OH250002   3.641   1.002   8.946  0.0786 -0.3532 -0.8607
 9504TIP3    H150003   3.652   1.025   8.853  2.2072 -1.8180 -1.0444
 9504TIP3    H250004   3.726   0.968   8.972 -0.8012 -1.0138  1.3633
 9505TIP3   OH250005   2.056   2.162  42.386 -0.2536 -0.4368 -0.0250
 9505TIP3    H150006   2.110   2.157  42.307  1.3626  1.1668  0.8877
 9505TIP3    H250007   2.116   2.141  42.457 -1.4977 -1.1303  0.8664
 9506TIP3   OH250008   1.546   2.942  38.741  0.0110  0.0330 -0.3659
 9506TIP3    H150009   1.610   2.982  38.800  0.8901 -1.0155 -0.5867
 9506TIP3    H250010   1.481   3.011  38.728  0.7801  0.9336  0.3232
 9507TIP3   OH250011   3.067   0.944  44.618  0.2253  0.0703 -0.1138
 9507TIP3    H150012   3.160   0.964  44.621 -0.0279  1.1810  1.0980
 9507TIP3    H250013   3.034   0.995  44.544  0.4009  0.4835  0.0895
 9508TIP3   OH250014   0.298   2.355  40.719 -1.0103  0.0577  0.1715
 9508TIP3    H150015   0.344   2.395  40.645 -0.4710  1.2834  1.1525
 9508TIP3    H250016   0.205   2.369  40.699 -0.9378 -0.9119 -0.9679
 9509TIP3   OH250017   2.959   1.369  33.577 -0.0306 -0.0961 -0.0706
 9509TIP3    H150018   2.970   1.295  33.517 -0.7157  0.2709 -0.6472
 9509TIP3    H250019   2.958   1.446  33.521  0.5485  0.3527  0.5183
 9510TIP3   OH250020   3.271   1.808  45.390  0.2249 -0.2792  0.6400
 9510TIP3    H150021   3.271   1.794  45.295 -1.8638 -1.6012  0.7719
 9510TIP3    H250022   3.256   1.721  45.427 -0.6252  0.4551  2.0974
 9511TIP3   OH250023   1.499   0.097   2.131 -0.0941 -0.3765  0.0919
 9511TIP3    H150024   1.476   0.057   2.215  0.2087  1.3011  1.0038
 9511TIP3    H250025   1.415   0.111   2.087 -0.3441 -0.2379  0.6047
 9512TIP3   OH250026   2.100   1.974  16.601  0.4870  0.0192 -1.0475
 9512TIP3    H150027   2.138   1.968  16.688 -0.9246 -0.3332 -0.4211
 9512TIP3    H250028   2.111   2.065  16.575 -0.6517  0.5638  0.2779
 9513TIP3   OH250029   2.675   2.779  14.938  0.3964  0.3467 -0.9231
 9513TIP3    H150030   2.644   2.692  14.910 -0.2138  0.9717 -2.2830
 9513TIP3    H250031   2.761   2.787  14.896  0.5959  0.2737 -0.5299
 9514TIP3   OH250032   0.844   0.972  35.838  0.0926  0.1999  0.4959
 9514TIP3    H150033   0.787   0.946  35.765  0.6677 -0.8641  0.4146
 9514TIP3    H250034   0.838   0.900  35.900  2.2324 -0.4738 -0.0244
 9515TIP3   OH250035   3.520   2.455   8.316 -0.3103 -0.0994 -0.0207
 9515TIP3    H150036   3.612   2.444   8.293  0.1699  1.9510  0.7088
 9515TIP3    H250037   3.496   2.373   8.359  1.8568  0.0978  1.7850
 9516TIP3   OH250038   2.868   0.478   7.727 -0.3963 -0.0474 -0.0341
 9516TIP3    H150039   2.776   0.475   7.754 -0.9775 -0.4727 -1.9103
 9516TIP3    H250040   2.899   0.387   7.737 -0.1198  0.1303  0.7617
 9517TIP3   OH250041   4.035   0.115  46.356 -0.1148  0.3724  0.5505
 9517TIP3    H150042   3.959   0.112  46.414  0.2822 -1.7875  1.0332
 9517TIP3    H250043   4.110   0.111  46.414  0.2981 -1.3475 -0.0635
 9518TIP3   OH250044   0.792   3.730  28.651 -0.4199  0.2787  1.0340
 9518TIP3    H150045   0.831   3.802  28.702 -1.0362  0.7284  0.8850
 9518TIP3    H250046   0.704   3.721  28.686 -0.8690  0.6245  0.0258
 9519TIP3   OH250047   2.343   2.757  15.808 -0.0845  0.0172 -0.2808
 9519TIP3    H150048   2.354   2.669  15.844 -2.9748 -1.0175 -1.5737
 9519TIP3    H250049   2.282   2.800  15.869 -0.1712  0.4499 -0.6666
 9520TIP3   OH250050   2.154   3.698  44.939 -0.1479  0.1815 -0.2284
 9520TIP3    H150051   2.130   3.606  44.952  0.3695 -0.0610 -0.9931
 9520TIP3    H250052   2.119   3.743  45.017 -0.0415 -0.7199  0.3458
 9521TIP3   OH250053   2.497   0.410  36.017 -0.0278 -0.4710 -0.2080
 9521TIP3    H150054   2.405   0.385  36.023  0.1630 -1.2848 -0.5301
 9521TIP3    H250055   2.498   0.504  36.033 -0.8296 -0.5895  0.5954
 9522TIP3   OH250056   0.747   2.664  39.426  0.3407  0.2623 -0.3319
 9522TIP3    H150057   0.792   2.601  39.370 -1.1329 -2.1584  1.0426
 9522TIP3    H250058   0.683   2.706  39.368 -0.2375 -1.2253 -0.8218
 9523TIP3   OH250059   3.307   0.137   1.354 -0.1023  0.3575 -0.1869
 9523TIP3    H150060   3.324   0.189   1.434  0.2181 -0.6613  0.4253
 9523TIP3    H250061   3.341   0.191   1.283  2.7629 -0.1567  0.6900
 9524TIP3   OH250062   2.144   2.120  41.120 -0.5495 -0.6330 -0.2823
 9524TIP3    H150063   2.101   2.184  41.064  1.2946 -0.5985 -1.7176
 9524TIP3    H250064   2.080   2.048  41.127 -1.4252  0.0417 -1.1413
 9525TIP3   OH250065   2.187   0.290  27.107 -0.2048 -0.2265 -0.1944
 9525TIP3    H150066   2.123   0.315  27.041 -2.4186  0.5304  2.0524
 9525TIP3    H250067   2.205   0.371  27.156  2.4063 -0.4570 -0.6216
 9526TIP3   OH250068   2.411   3.541   9.081  0.1229  0.1740  0.7443
 9526TIP3    H150069   2.458   3.624   9.070 -0.2514  0.3642  0.5631
 9526TIP3    H250070   2.382   3.541   9.172 -1.0088  0.8513  0.4034
 9527TIP3   OH250071   3.662   1.075   7.494  0.3318 -0.1151  0.2030
 9527TIP3    H150072   3.682   1.158   7.537  0.2755 -0.2139  0.4243
 9527TIP3    H250073   3.722   1.071   7.419  0.4064  0.0762  0.2523
 9528TIP3   OH250074   1.533   0.199  30.614  0.3367  0.3478 -0.3603
 9528TIP3    H150075   1.507   0.229  30.527  0.4663  0.9218 -0.2010
 9528TIP3    H250076   1.518   0.104  30.611  0.7536  0.2906 -1.1559
 9529TIP3   OH250077   2.069   3.227   6.042 -0.5070  0.1346  0.5207
 9529TIP3    H150078   2.067   3.306   6.095  2.0312  0.0227  0.8835
 9529TIP3    H250079   2.012   3.247   5.968 -0.3543  2.0883  0.8695
 9530TIP3   OH250080   0.954   1.429  14.913 -0.4844 -0.0859 -0.2954
 9530TIP3    H150081   0.926   1.516  14.884 -1.9359 -0.0262  1.1481
 9530TIP3    H250082   0.935   1.428  15.006  1.1829 -1.3453  0.0687
 9531TIP3   OH250083   0.582   0.873  47.065  0.4086  0.3878  0.4970
 9531TIP3    H150084   0.580   0.900  47.157 -0.0029 -0.9237  0.8951
 9531TIP3    H250085   0.494   0.891  47.032  0.3651  0.2573  0.5408
 9532TIP3   OH250086   1.703   0.339  43.138 -0.4428 -0.1583 -0.3524
 9532TIP3    H150087   1.661   0.380  43.062  1.5545  0.5972 -1.1239
 9532TIP3    H250088   1.660   0.254  43.146 -3.0519  1.0551 -0.1946
 9533TIP3   OH250089   1.006   4.043  27.166 -0.6492 -0.4629 -0.0678
 9533TIP3    H150090   1.082   4.096  27.190  0.0103 -0.5706 -1.8293
 9533TIP3    H250091   0.968   4.017  27.251  0.2953  0.9492  0.8333
 9534TIP3   OH250092   3.843   0.650  46.720 -0.1121  0.2251  0.4664
 9534TIP3    H150093   3.773   0.590  46.748 -0.4677  0.7309  0.6749
 9534TIP3    H250094   3.847   0.639  46.625  0.9424 -1.3296  0.6490
 9535TIP3   OH250095   2.998   1.748  10.031  0.1950  0.3554  0.7538
 9535TIP3    H150096   3.071   1.808  10.017  0.0153  0.5859  0.7978
 9535TIP3    H250097   3.002   1.728  10.125  0.4041  0.0994  0.6943
 9536TIP3   OH250098   3.645   3.891  27.733 -0.2597  0.7894  0.2109
 9536TIP3    H150099   3.651   3.798  27.714  3.7599  0.7391  0.7926
 9536TIP3    H250100   3.578   3.898  27.801 -0.1169 -1.7716  0.7141
 9537TIP3   OH250101   1.077   2.582  11.190  0.6250 -0.0955  0.2506
 9537TIP3    H150102   1.031   2.649  11.240 -0.5380  0.3756 -1.3679
 9537TIP3    H250103   1.170   2.598  11.208  0.2593  0.1790  2.0401
 9538TIP3   OH250104   1.955   3.223  42.759  0.2595  0.2303  0.4424
 9538TIP3    H150105   1.916   3.170  42.690  1.0559 -2.0700  1.6637
 9538TIP3    H250106   2.049   3.218  42.743  0.3307  3.3449 -0.7876
 9539TIP3   OH250107   0.474   3.096  15.059  0.4573  0.8981  0.2601
 9539TIP3    H150108   0.424   3.017  15.079  0.8946  0.2506 -1.1005
 9539TIP3    H250109   0.408   3.163  15.042  0.0876  0.8183  1.2759
 9540TIP3   OH250110   2.149   3.569   7.281  0.2778  0.1682  0.1306
 9540TIP3    H150111   2.208   3.638   7.248  1.5825 -1.4749 -1.1592
 9540TIP3    H250112   2.073   3.617   7.314  0.0701  2.1585 -2.8462
 9541TIP3   OH250113   1.201   2.341  20.822  0.0999  0.0437 -0.0264
 9541TIP3    H150114   1.281   2.302  20.854  0.1881  0.3555  0.1367
 9541TIP3    H250115   1.221   2.367  20.732  0.1269 -0.0429 -0.0447
 9542TIP3   OH250116   2.961   3.376   1.666 -0.5473  0.1331 -0.1307
 9542TIP3    H150117   2.871   3.368   1.633 -1.0008  0.0496  1.0775
 9542TIP3    H250118   3.014   3.335   1.598 -1.4294  0.0848 -0.8202
 9543TIP3   OH250119   2.913   1.444  12.254  0.4171  0.8212 -0.1671
 9543TIP3    H150120   2.886   1.362  12.212  2.1917  0.5543 -0.8608
 9543TIP3    H250121   3.001   1.426  12.287  0.0090  1.7960  1.5727
 9544TIP3   OH250122   2.557   1.868   5.642 -0.4390 -0.0251 -0.2617
 9544TIP3    H150123   2.465   1.878   5.617 -0.7372 -2.5835 -0.3908
 9544TIP3    H250124   2.606   1.886   5.562 -0.7762  1.5477 -0.1462
 9545TIP3   OH250125   2.886   0.868   4.555  0.5133  0.2564 -0.6319
 9545TIP3    H150126   2.797   0.903   4.562  1.0878  1.7240 -0.2156
 9545TIP3    H250127   2.932   0.930   4.500  1.4773 -0.0821 -0.2288
 9546TIP3   OH250128   2.849   3.346  46.722 -0.2415 -0.0993 -0.0729
 9546TIP3    H150129   2.925   3.307  46.679 -0.4453 -0.2469 -0.3020
 9546TIP3    H250130   2.858   3.440  46.706  0.1049 -0.0771  0.2451
 9547TIP3   OH250131   3.719   3.435  31.532  0.0983 -0.6621  0.4176
 9547TIP3    H150132   3.714   3.414  31.626  1.3033  0.0526  0.6512
 9547TIP3    H250133   3.632   3.470  31.512  0.0598 -0.1092  1.4525
 9548TIP3   OH250134   3.332   3.935  47.339  0.3631 -0.1591  0.4495
 9548TIP3    H150135   3.411   3.890  47.370  1.8194  2.8551  1.4514
 9548TIP3    H250136   3.345   3.941  47.244  0.1072 -1.7991  0.2807
 9549TIP3   OH250137   0.446   0.039  38.255 -0.3350  0.1759  0.3915
 9549TIP3    H150138   0.359   0.059  38.221 -0.1004  0.5237 -0.0161
 9549TIP3    H250139   0.498   0.117  38.236 -0.2990  0.5845  1.9639
 9550TIP3   OH250140   2.981   0.752  42.731 -0.5724 -0.2034 -0.1089
 9550TIP3    H150141   3.053   0.748  42.793  0.7396 -0.1292 -1.5744
 9550TIP3    H250142   2.921   0.817  42.767  0.7643  0.7430  0.4519
 9551TIP3   OH250143   2.366   1.403  45.951 -0.2149  0.1617  0.2894
 9551TIP3    H150144   2.324   1.368  46.030 -1.6127  1.7316  0.3001
 9551TIP3    H250145   2.425   1.472  45.984 -0.5797  0.6213 -0.0151
 9552TIP3   OH250146   1.363   1.522   7.394  0.5273  0.3888 -0.4805
 9552TIP3    H150147   1.407   1.454   7.444  0.3851  0.6712  0.0358
 9552TIP3    H250148   1.292   1.552   7.451 -0.5543 -0.2869 -1.4261
 9553TIP3   OH250149   2.311   1.258   7.718 -0.2602  0.4484  0.4887
 9553TIP3    H150150   2.390   1.299   7.753 -0.0592  0.7527 -0.3059
 9553TIP3    H250151   2.312   1.280   7.625 -0.7713 -0.3754  0.2840
 9554TIP3   OH250152   0.662   1.779  18.350  0.2963  0.1095  0.2202
 9554TIP3    H150153   0.584   1.811  18.305 -1.2437 -3.4942 -0.0549
 9554TIP3    H250154   0.631   1.754  18.437  0.7192 -2.4080 -0.2518
 9555TIP3   OH250155   3.924   3.467   9.790 -0.8398  0.2680 -0.5279
 9555TIP3    H150156   3.961   3.381   9.767  0.2728  0.1379  1.5143
 9555TIP3    H250157   3.865   3.487   9.717 -0.2353 -1.6714 -1.6533
 9556TIP3   OH250158   0.465   0.945   5.587 -0.4376 -0.0228 -0.6684
 9556TIP3    H150159   0.543   0.984   5.624 -0.6966 -0.6846  0.6231
 9556TIP3    H250160   0.398   1.013   5.594 -0.4412 -0.0836 -0.0596
 9557TIP3   OH250161   1.023   4.007  30.954 -0.3075 -0.5086  0.1372
 9557TIP3    H150162   0.947   4.051  30.990  0.0974 -0.2662  0.6972
 9557TIP3    H250163   1.067   3.968  31.029  0.8498  0.4679  0.0024
 9558TIP3   OH250164   3.085   1.884  15.873  0.3102 -0.3521  0.0058
 9558TIP3    H150165   3.101   1.877  15.967 -0.9411  0.3392  0.2958
 9558TIP3    H250166   3.005   1.833  15.859  1.9102 -2.7249 -1.1703
 9559TIP3   OH250167   0.456   4.058  41.765  0.0878 -0.0024 -0.4885
 9559TIP3    H150168   0.418   4.089  41.847 -0.9290 -1.0227 -0.5547
 9559TIP3    H250169   0.533   4.113  41.752 -0.9604  1.6476  0.0190
 9560TIP3   OH250170   2.078   3.003  11.233 -0.7007 -0.6131  1.2546
 9560TIP3    H150171   2.146   2.969  11.175 -1.5023 -1.4314  0.7736
 9560TIP3    H250172   2.125   3.028  11.313  0.1291 -1.4574  1.0501
 9561TIP3   OH250173   3.259   2.246  11.891 -0.1369 -0.1643 -0.6271
 9561TIP3    H150174   3.292   2.182  11.954 -0.8518 -0.9102 -0.9798
 9561TIP3    H250175   3.264   2.200  11.807 -0.1617  0.4365 -0.9602
 9562TIP3   OH250176   3.798   3.040   9.862 -0.6522  0.0673  0.9349
 9562TIP3    H150177   3.825   2.952   9.885 -0.2181 -0.0083  0.1708
 9562TIP3    H250178   3.873   3.076   9.814 -0.8249  0.8488  1.2383
 9563TIP3   OH250179   1.578   1.287  14.835  0.5880 -0.5071  0.2136
 9563TIP3    H150180   1.487   1.275  14.862  0.0849  2.5279  0.1511
 9563TIP3    H250181   1.630   1.265  14.912 -0.2986 -0.5338  0.8082
 9564TIP3   OH250182   3.873   3.831  13.155 -0.1185  0.0848  0.0017
 9564TIP3    H150183   3.948   3.773  13.163 -0.3499 -0.3004 -0.5913
 9564TIP3    H250184   3.898   3.910  13.205 -0.2322 -0.9290  1.7451
 9565TIP3   OH250185   1.917   1.487  34.072 -0.7094 -0.1460 -0.2367
 9565TIP3    H150186   1.838   1.459  34.025  0.0884 -3.2006 -0.0350
 9565TIP3    H250187   1.891   1.490  34.164 -1.3487  2.1496 -0.4487
 9566TIP3   OH250188   0.264   3.712   7.680  0.0176 -0.1242  0.1668
 9566TIP3    H150189   0.231   3.701   7.590 -0.3587 -0.8380  0.3858
 9566TIP3    H250190   0.188   3.698   7.736  0.3636 -0.2076  0.6225
 9567TIP3   OH250191   1.260   3.002   7.273 -0.2657  0.3326  0.3049
 9567TIP3    H150192   1.233   3.000   7.365 -0.0786  0.3000  0.3595
 9567TIP3    H250193   1.307   2.920   7.261 -0.3852  0.2880  0.1507
 9568TIP3   OH250194   2.386   1.740  11.819 -0.0127 -0.3099  0.5190
 9568TIP3    H150195   2.305   1.749  11.869 -0.1580  1.7169  0.0206
 9568TIP3    H250196   2.427   1.660  11.853 -1.9926 -1.1520  1.0759
 9569TIP3   OH250197   3.045   3.164  30.522 -0.7210  0.1558  0.1792
 9569TIP3    H150198   3.001   3.201  30.445  1.1345  1.2543 -0.4230
 9569TIP3    H250199   2.994   3.196  30.596 -0.9732  1.3833 -0.4861
 9570TIP3   OH250200   3.612   0.154  33.076  0.1795  0.7197  0.0819
 9570TIP3    H150201   3.591   0.087  33.011  0.6049 -0.7941  1.4272
 9570TIP3    H250202   3.528   0.196  33.095  0.2296  1.9998 -2.2272
 9571TIP3   OH250203   2.325   1.087  40.426  0.2648 -0.1981 -0.2714
 9571TIP3    H150204   2.301   0.995  40.443 -2.1313  0.4566  0.3603
 9571TIP3    H250205   2.244   1.126  40.392  0.1184  2.4726  2.6780
 9572TIP3   OH250206   1.194   3.875  37.174 -0.3584  0.1901  0.3497
 9572TIP3    H150207   1.271   3.853  37.122 -1.3808 -1.4323 -0.5746
 9572TIP3    H250208   1.218   3.850  37.263  0.1034 -0.5271  0.0351
 9573TIP3   OH250209   0.101   1.831   6.380 -0.1172  0.4334  0.2163
 9573TIP3    H150210   0.024   1.775   6.373  2.1582 -2.9853 -0.2411
 9573TIP3    H250211   0.101   1.882   6.298  0.9817 -3.8781 -2.8455
 9574TIP3   OH250212   1.533   1.150   0.164 -0.0682  0.3199 -0.1567
 9574TIP3    H150213   1.478   1.079   0.197  0.4400  0.1633  0.3788
 9574TIP3    H250214   1.531   1.140   0.069 -2.6506  1.5873 -0.3233
 9575TIP3   OH250215   0.069   1.180   2.822 -0.1010 -0.8577 -0.0408
 9575TIP3    H150216  -0.010   1.158   2.774 -1.4107 -0.2056  1.6841
 9575TIP3    H250217   0.044   1.172   2.914  1.4976  0.4480  0.5661
 9576TIP3   OH250218   0.773   2.086  40.863 -0.1281  0.6570  0.3712
 9576TIP3    H150219   0.728   2.019  40.813 -1.8814  1.6055  0.6045
 9576TIP3    H250220   0.731   2.084  40.949  0.1436  1.6885  0.5450
 9577TIP3   OH250221   1.403   3.405   1.227  0.3669  1.2872  0.4302
 9577TIP3    H150222   1.314   3.403   1.192 -1.9654 -0.4600  5.5145
 9577TIP3    H250223   1.409   3.487   1.275  1.3659  1.2204  0.4467
 9578TIP3   OH250224   3.943   3.777  26.084 -0.1190  0.0951  0.1340
 9578TIP3    H150225   3.905   3.769  26.171 -0.4491 -1.5291 -0.1298
 9578TIP3    H250226   3.870   3.760  26.025  0.5265 -0.8602 -0.4145
 9579TIP3   OH250227   0.648   2.729   6.294 -0.0081 -0.2475 -0.3371
 9579TIP3    H150228   0.725   2.782   6.274  1.2022 -2.7750 -3.1928
 9579TIP3    H250229   0.651   2.715   6.388  1.7632  1.5228 -0.0704
 9580TIP3   OH250230   0.367   2.136  47.452  0.4494  0.1184  0.5874
 9580TIP3    H150231   0.430   2.182  47.507  0.4477 -0.8754  1.4504
 9580TIP3    H250232   0.294   2.116  47.511 -0.1630  0.2243 -0.1130
 9581TIP3   OH250233   2.826   3.642  33.665  0.5015 -0.0181  0.0360
 9581TIP3    H150234   2.812   3.691  33.583 -1.7228  0.5254  0.6836
 9581TIP3    H250235   2.877   3.701  33.719  0.4294  0.3618 -0.3019
 9582TIP3   OH250236   3.110   0.716   5.492 -0.1773  0.1130 -0.2455
 9582TIP3    H150237   3.179   0.738   5.429  0.6520  0.9041  0.8958
 9582TIP3    H250238   3.050   0.791   5.488 -0.5771 -0.2271 -0.6940
 9583TIP3   OH250239   1.008   3.164   1.947  0.5451  0.2381  0.3411
 9583TIP3    H150240   0.963   3.248   1.960  0.4667 -0.0651  2.4813
 9583TIP3    H250241   0.956   3.102   1.998 -0.3567 -1.5168 -2.5205
 9584TIP3   OH250242   1.402   0.427  40.133 -0.2326 -0.0651 -0.4523
 9584TIP3    H150243   1.334   0.457  40.194  0.6727 -0.6112  0.8727
 9584TIP3    H250244   1.416   0.501  40.074 -0.3483  0.9155  0.7085
 9585TIP3   OH250245   0.186   2.572   2.024 -0.5068  0.0439  0.2091
 9585TIP3    H150246   0.143   2.613   1.948 -1.7763 -0.2400  0.7486
 9585TIP3    H250247   0.276   2.605   2.021 -0.2929 -0.5417 -1.8455
 9586TIP3   OH250248   1.693   0.405  37.174  0.1708 -0.0445  0.1854
 9586TIP3    H150249   1.750   0.440  37.243 -0.0400  0.6846  0.0010
 9586TIP3    H250250   1.740   0.328  37.141  0.5648 -0.0389  0.7229
 9587TIP3   OH250251   3.727   2.920  32.670 -0.0883  0.1115  0.3953
 9587TIP3    H150252   3.691   2.832  32.658  0.4821 -0.2913  1.4437
 9587TIP3    H250253   3.671   2.959  32.737 -0.6642  0.7527 -0.4449
 9588TIP3   OH250254   0.343   2.589  15.134  0.1184  0.1414  0.4256
 9588TIP3    H150255   0.324   2.527  15.064 -0.8894  3.0335 -2.0809
 9588TIP3    H250256   0.260   2.599  15.180  0.4529 -0.8110  1.2609
 9589TIP3   OH250257   1.099   3.291   7.623 -0.1694  0.1764  0.2473
 9589TIP3    H150258   1.106   3.292   7.719 -0.6943  2.3166  0.3133
 9589TIP3    H250259   1.028   3.229   7.605 -0.2368 -0.0628  1.2668
 9590TIP3   OH250260   3.229   3.499  12.531 -0.3070 -1.1437  0.0625
 9590TIP3    H150261   3.227   3.544  12.447  0.1571 -0.5850  0.3509
 9590TIP3    H250262   3.212   3.567  12.595  0.1678 -1.4195  0.4849
 9591TIP3   OH250263   2.111   3.167  43.991 -0.2645  0.0882 -0.3593
 9591TIP3    H150264   2.152   3.238  44.041  0.5193 -0.2809 -0.4721
 9591TIP3    H250265   2.140   3.087  44.035 -2.2346 -0.1457  0.6076
 9592TIP3   OH250266   0.434   1.688  38.188  0.1664  0.0975 -0.1872
 9592TIP3    H150267   0.452   1.722  38.275  0.7880 -0.8594  0.0802
 9592TIP3    H250268   0.511   1.712  38.135 -0.2895  0.8350 -0.5284
 9593TIP3   OH250269   1.307   3.396  45.178 -0.1336 -0.1359  0.1736
 9593TIP3    H150270   1.394   3.357  45.189 -0.1247 -0.3622 -0.6502
 9593TIP3    H250271   1.283   3.375  45.088 -0.5336  0.9551  0.0217
 9594TIP3   OH250272   1.513   2.226  40.001 -0.7066  0.2421  0.3132
 9594TIP3    H150273   1.487   2.315  39.978  1.2928  0.4745 -1.3398
 9594TIP3    H250274   1.558   2.235  40.085 -2.9236  0.3015  1.5642
 9595TIP3   OH250275   4.002   0.371  32.729  0.5179  0.1577  0.1127
 9595TIP3    H150276   4.042   0.381  32.816  0.6319  0.9076 -0.0138
 9595TIP3    H250277   3.942   0.445  32.723  1.2812  0.7159 -0.8580
 9596TIP3   OH250278   2.721   3.095  35.883 -0.1978  0.3561  0.4553
 9596TIP3    H150279   2.680   3.009  35.891  2.0417 -1.1711 -2.4691
 9596TIP3    H250280   2.673   3.151  35.944 -2.1209 -2.7969  2.0609
 9597TIP3   OH250281   0.186   0.102  30.517 -0.3763  0.2362 -0.4908
 9597TIP3    H150282   0.149   0.054  30.443 -0.8446 -0.8730  0.4380
 9597TIP3    H250283   0.201   0.190  30.483 -2.3918  0.2921 -1.3655
 9598TIP3   OH250284   2.256   1.092  36.287 -0.0792  0.1379  0.4665
 9598TIP3    H150285   2.301   1.088  36.372  0.8163 -0.7178 -0.0238
 9598TIP3    H250286   2.281   1.010  36.243 -1.2883  0.1306 -0.2578
 9599TIP3   OH250287   0.714   1.202  11.608 -0.4755 -0.4582  0.2009
 9599TIP3    H150288   0.671   1.286  11.590  0.4347  0.0728  0.4208
 9599TIP3    H250289   0.737   1.167  11.522  0.8988  0.4771  0.1586
 9600TIP3   OH250290   1.894   1.917  11.440  0.1513 -0.2289  0.4329
 9600TIP3    H150291   1.914   1.846  11.501  0.9908 -0.4043 -0.0265
 9600TIP3    H250292   1.801   1.934  11.453  0.5422  0.6113  2.6689
 9601TIP3   OH250293   0.060   2.257  37.467  0.0811  0.4549  0.0231
 9601TIP3    H150294  -0.019   2.301  37.436  0.2899  2.3165  1.8966
 9601TIP3    H250295   0.131   2.297  37.416 -0.0382 -0.3602 -0.8148
 9602TIP3   OH250296   1.380   2.477   3.331 -0.2104  0.0153  0.5648
 9602TIP3    H150297   1.442   2.548   3.347 -0.1863  0.2649 -0.5361
 9602TIP3    H250298   1.433   2.406   3.295 -0.0234 -1.0663  2.7762
 9603TIP3   OH250299   0.874   3.045   5.753  0.1154  0.2795 -0.1970
 9603TIP3    H150300   0.900   3.008   5.669  0.1896 -0.8743  0.3158
 9603TIP3    H250301   0.793   3.093   5.734  0.6600  0.8717 -1.0974
 9604TIP3   OH250302   3.227   0.023  40.415 -0.3588  0.6060 -0.0635
 9604TIP3    H150303   3.166   0.072  40.359  0.5051 -0.0743 -1.6462
 9604TIP3    H250304   3.195  -0.067  40.413 -0.1757  0.5280  0.3702
 9605TIP3   OH250305   1.842   3.805  26.702 -0.1392  0.1658 -0.0947
 9605TIP3    H150306   1.792   3.733  26.739 -0.3842 -0.2912 -1.2918
 9605TIP3    H250307   1.850   3.785  26.609  0.3631  1.3460 -0.3339
 9606TIP3   OH250308   2.573   3.158   0.294 -0.1815  0.5076 -0.1412
 9606TIP3    H150309   2.662   3.160   0.258 -0.2627 -1.3814 -0.5501
 9606TIP3    H250310   2.519   3.201   0.229  0.1638 -0.0201 -0.7869
 9607TIP3   OH250311   0.343   3.977  35.836 -0.0686 -0.4514 -0.1251
 9607TIP3    H150312   0.369   3.980  35.744  0.8664  0.1709  0.1583
 9607TIP3    H250313   0.414   3.931  35.880  0.0421  0.2815  0.4769
 9608TIP3   OH250314   1.277   1.459  11.322 -0.0111 -0.3817  0.3625
 9608TIP3    H150315   1.224   1.485  11.397 -0.4771 -0.4420  0.0568
 9608TIP3    H250316   1.230   1.386  11.283  0.7795 -1.0550  0.6325
 9609TIP3   OH250317   2.421   2.090  34.581  0.4869  0.2465  0.2998
 9609TIP3    H150318   2.376   2.040  34.649  0.1215 -1.0557 -0.8532
 9609TIP3    H250319   2.512   2.094  34.610  0.2642  0.0683  1.0455
 9610TIP3   OH250320   0.578   3.117  44.290  0.9208  0.5638  0.7780
 9610TIP3    H150321   0.605   3.054  44.358  0.0342  2.0126  2.5757
 9610TIP3    H250322   0.495   3.082  44.257  1.3462 -0.1482  0.4427
 9611TIP3   OH250323   1.671   3.223  11.115  0.4055  0.0647  0.1785
 9611TIP3    H150324   1.766   3.214  11.116  0.4659 -0.1404 -1.8995
 9611TIP3    H250325   1.651   3.257  11.028 -1.4243  0.1903  0.5963
 9612TIP3   OH250326   0.575   2.193   8.378  0.2675 -0.6923  0.7514
 9612TIP3    H150327   0.482   2.172   8.387 -0.1024  0.1395 -0.8715
 9612TIP3    H250328   0.589   2.200   8.284  1.0854  2.8894  0.9973
 9613TIP3   OH250329   1.049   1.650  38.189 -0.5206 -0.4784  0.2545
 9613TIP3    H150330   1.109   1.657  38.115 -2.1623 -0.5365 -1.1535
 9613TIP3    H250331   1.047   1.556  38.209 -1.0567 -0.6491 -0.5275
 9614TIP3   OH250332   3.961   3.664  46.663  0.3544  0.0797 -0.5268
 9614TIP3    H150333   3.985   3.577  46.631  0.3259  0.3545 -1.2999
 9614TIP3    H250334   3.903   3.646  46.737  0.2280 -0.5572 -0.7701
 9615TIP3   OH250335   1.884   1.746  18.034 -0.0838  0.2556 -0.3066
 9615TIP3    H150336   1.906   1.734  18.126 -0.5324 -0.8671 -0.3358
 9615TIP3    H250337   1.848   1.662  18.006 -1.8081  1.1609 -0.9939
 9616TIP3   OH250338   3.840   3.286   3.183  0.1482  0.2739 -0.2566
 9616TIP3    H150339   3.795   3.355   3.134 -3.6354 -1.2254  0.7090
 9616TIP3    H250340   3.850   3.322   3.271  0.1592  0.3759 -0.3002
 9617TIP3   OH250341   0.377   3.377  42.392  0.8912  0.0218 -0.0866
 9617TIP3    H150342   0.441   3.447  42.379  0.0503  0.6320 -1.1735
 9617TIP3    H250343   0.357   3.380  42.486  2.2943 -0.0618  0.2289
 9618TIP3   OH250344   2.621   0.220   0.463  0.1354  0.4438 -0.3969
 9618TIP3    H150345   2.579   0.303   0.439  0.0223  0.6800  0.5634
 9618TIP3    H250346   2.566   0.185   0.533  0.6819 -0.0014 -0.1857
 9619TIP3   OH250347   0.418   3.801  31.703  0.3911  0.0744  0.3749
 9619TIP3    H150348   0.337   3.759  31.733 -0.4921  0.6112 -1.1294
 9619TIP3    H250349   0.459   3.736  31.646  0.5916  0.1030  0.4889
 9620TIP3   OH250350   1.600   1.248   1.205 -0.1913  0.5544 -0.9730
 9620TIP3    H150351   1.663   1.258   1.134 -0.1457 -0.9535 -1.1725
 9620TIP3    H250352   1.514   1.254   1.162 -0.1642 -0.2712 -1.1488
 9621TIP3   OH250353   0.761   1.204   4.043 -0.4670 -0.4063  0.9352
 9621TIP3    H150354   0.748   1.121   3.997 -3.3052  0.0707  0.6759
 9621TIP3    H250355   0.780   1.267   3.973  2.6409 -0.8957  1.2111
 9622TIP3   OH250356   2.391   2.828  44.523  0.0602 -0.6578 -0.1283
 9622TIP3    H150357   2.351   2.778  44.594  2.3218  2.2115  3.5753
 9622TIP3    H250358   2.471   2.780  44.501 -0.7679 -1.6841 -0.9884
 9623TIP3   OH250359   0.196   2.470  45.730 -0.0485 -0.2797  0.3378
 9623TIP3    H150360   0.264   2.536  45.716  1.0094 -1.1885  1.0595
 9623TIP3    H250361   0.142   2.474  45.651  0.2697  1.1100  0.1680
 9624TIP3   OH250362   3.440   0.555  40.771  0.1219 -0.0887 -0.2805
 9624TIP3    H150363   3.496   0.539  40.695  0.6165 -1.8351  0.4204
 9624TIP3    H250364   3.387   0.476  40.779  0.8239 -0.4024  1.8233
 9625TIP3   OH250365   1.190   3.911  31.199 -0.0907  0.9338  0.5123
 9625TIP3    H150366   1.228   3.909  31.287  2.7127 -1.0702 -0.5722
 9625TIP3    H250367   1.141   3.829  31.193  1.6516 -0.1055 -0.4367
 9626TIP3   OH250368   0.583   3.873   2.565 -0.0923 -0.2916 -0.1215
 9626TIP3    H150369   0.584   3.815   2.489  0.7519  1.1696 -1.2829
 9626TIP3    H250370   0.537   3.952   2.535 -0.3052  0.0643  1.0827
 9627TIP3   OH250371   3.503   0.879  42.103 -0.2411  0.4484 -0.5929
 9627TIP3    H150372   3.475   0.966  42.131  0.0931  0.2994  0.2262
 9627TIP3    H250373   3.449   0.818  42.155  0.8037  0.1677  0.1905
 9628TIP3   OH250374   1.810   3.976  15.072  0.3931 -0.1332  0.1961
 9628TIP3    H150375   1.899   4.008  15.086  0.3394  1.0069 -1.7197
 9628TIP3    H250376   1.755   4.052  15.086 -0.1169 -0.3801 -0.4391
 9629TIP3   OH250377   1.982   0.648  42.888 -0.2627 -0.0594  0.0077
 9629TIP3    H150378   1.963   0.703  42.812 -1.5260  0.6736  0.8033
 9629TIP3    H250379   1.915   0.674  42.952  0.7030 -0.7342  1.3168
 9630TIP3   OH250380   0.249   1.764  41.982 -0.3809 -0.4609  0.0397
 9630TIP3    H150381   0.167   1.813  41.995 -0.3647 -0.5869  0.6901
 9630TIP3    H250382   0.244   1.693  42.047  0.0360 -0.7376 -0.2297
 9631TIP3   OH250383   1.889   0.778  34.225 -0.4683  0.8624 -0.2693
 9631TIP3    H150384   1.945   0.796  34.150  0.1226 -0.8088 -0.2867
 9631TIP3    H250385   1.812   0.734  34.187  0.0694 -0.4640  0.0977
 9632TIP3   OH250386   2.623   2.361   6.262  0.5338 -0.2066  0.0074
 9632TIP3    H150387   2.571   2.427   6.215  0.6065  1.2915  1.8897
 9632TIP3    H250388   2.714   2.380   6.237  0.5294  0.2244  0.3106
 9633TIP3   OH250389   2.875   0.790   3.845  0.2169 -0.2563 -0.9295
 9633TIP3    H150390   2.903   0.767   3.756  2.4784 -1.9377  0.1139
 9633TIP3    H250391   2.788   0.754   3.854 -0.2608  0.3867 -2.6013
 9634TIP3   OH250392   2.314   1.432  15.358 -0.1366 -0.5752 -0.2440
 9634TIP3    H150393   2.278   1.343  15.363 -0.8143 -0.4301 -1.7674
 9634TIP3    H250394   2.409   1.420  15.357 -0.1707 -1.1570  1.0510
 9635TIP3   OH250395   3.222   2.945  42.704 -0.1525 -0.0116 -0.2239
 9635TIP3    H150396   3.298   2.901  42.665  0.9137  2.8628 -1.7442
 9635TIP3    H250397   3.260   3.019  42.752 -1.9439  1.6910 -1.2675
 9636TIP3   OH250398   0.010   3.299   4.883  0.1748 -0.0918 -0.4565
 9636TIP3    H150399  -0.039   3.377   4.856 -0.2641 -0.5181 -0.9067
 9636TIP3    H250400  -0.023   3.230   4.826  1.0292 -0.4666 -0.5004
 9637TIP3   OH250401   0.917   1.830   9.831 -0.4268  0.9555  0.1632
 9637TIP3    H150402   0.837   1.873   9.861 -1.5011 -0.1106 -1.0790
 9637TIP3    H250403   0.931   1.758   9.893  0.0699  1.6390  0.8702
 9638TIP3   OH250404   1.712   2.496  16.249  0.1675  0.2210  0.7671
 9638TIP3    H150405   1.802   2.527  16.248 -0.0612  1.1176 -2.4287
 9638TIP3    H250406   1.660   2.572  16.274 -0.0075  1.3651 -2.5603
 9639TIP3   OH250407   0.961   1.904  15.058  0.1358 -0.6171  0.5664
 9639TIP3    H150408   1.039   1.858  15.026  0.3407 -0.3092  0.6165
 9639TIP3    H250409   0.977   1.914  15.152 -0.2281 -1.0612  0.6799
 9640TIP3   OH250410   1.317   1.199  39.394 -0.7853  0.4413 -0.6186
 9640TIP3    H150411   1.374   1.277  39.395 -0.7404  0.4257 -1.4070
 9640TIP3    H250412   1.359   1.138  39.454 -0.1568  0.5691 -0.9148
 9641TIP3   OH250413   1.042   0.064  30.467 -0.0809 -0.6612  0.1912
 9641TIP3    H150414   1.125   0.018  30.465  0.9979  1.1777  0.3342
 9641TIP3    H250415   1.024   0.078  30.560 -0.5716 -1.0689  0.1614
 9642TIP3   OH250416   3.895   1.862  34.297 -0.5089 -0.5582  0.0752
 9642TIP3    H150417   3.906   1.957  34.302 -0.8451 -0.5009 -0.2430
 9642TIP3    H250418   3.929   1.839  34.210 -0.3235 -0.7467  0.1965
 9643TIP3   OH250419   4.086   1.004   5.948 -0.4926 -0.3738  0.3956
 9643TIP3    H150420   4.006   0.977   5.993 -1.0285 -0.7204 -0.7401
 9643TIP3    H250421   4.098   1.096   5.974 -0.6577 -0.6192  1.4079
 9644TIP3   OH250422   0.683   0.637   4.357 -0.0485  0.2852 -0.1847
 9644TIP3    H150423   0.623   0.596   4.293  1.9369 -1.1622 -1.2243
 9644TIP3    H250424   0.705   0.567   4.417  1.5574  0.4328 -0.5657
 9645TIP3   OH250425   2.477   2.129  45.425  0.1118 -0.3114  0.1845
 9645TIP3    H150426   2.520   2.214  45.409  0.5647 -0.3353  1.1734
 9645TIP3    H250427   2.415   2.147  45.495  0.0425 -0.7519  0.2382
 9646TIP3   OH250428   0.066   0.541  40.686 -0.9901  1.0998 -0.4460
 9646TIP3    H150429   0.036   0.511  40.601  0.2263 -0.4877 -0.3483
 9646TIP3    H250430   0.074   0.636  40.676 -3.9433  1.3577 -1.0715
 9647TIP3   OH250431   3.394   3.623   5.628  0.2929  0.5992  0.3341
 9647TIP3    H150432   3.312   3.601   5.671 -0.3822 -0.2752 -1.2883
 9647TIP3    H250433   3.447   3.544   5.635  0.1906  0.4577 -0.3451
 9648TIP3   OH250434   0.800   0.127   5.695  0.1318  0.8041  0.0202
 9648TIP3    H150435   0.862   0.121   5.623 -0.2641 -0.0636 -0.2661
 9648TIP3    H250436   0.714   0.122   5.653 -0.1114 -1.6099  0.6427
 9649TIP3   OH250437   2.724   1.325   3.702 -0.4454 -0.1723  0.5855
 9649TIP3    H150438   2.648   1.316   3.759 -0.6264  1.2901  0.6284
 9649TIP3    H250439   2.799   1.320   3.761 -0.5381 -0.7310  0.6624
 9650TIP3   OH250440   2.337   0.886   4.835 -0.1587 -0.4769  0.0880
 9650TIP3    H150441   2.312   0.940   4.760 -0.3758 -1.2844 -0.4316
 9650TIP3    H250442   2.284   0.807   4.827  0.7764 -1.1523  0.3416
 9651TIP3   OH250443   0.775   4.098  31.416  0.2396 -0.1689  0.1679
 9651TIP3    H150444   0.805   4.024  31.364  2.2179 -0.4782  1.6023
 9651TIP3    H250445   0.693   4.069  31.456  0.4367 -1.1823 -0.1433
 9652TIP3   OH250446   2.619   3.180  33.226  0.5421 -0.0311 -0.0811
 9652TIP3    H150447   2.627   3.218  33.314  0.4061 -0.3408  0.0654
 9652TIP3    H250448   2.565   3.102  33.238  0.9426 -0.3550 -0.3547
 9653TIP3   OH250449   3.437   0.939  14.136  0.2430 -0.4403 -0.5410
 9653TIP3    H150450   3.368   0.899  14.083 -0.1233  1.6264 -1.7316
 9653TIP3    H250451   3.513   0.943  14.078  0.6371 -0.5338 -0.0344
 9654TIP3   OH250452   1.038   3.322  46.048  0.0201 -0.1150  0.1724
 9654TIP3    H150453   1.055   3.279  45.964  0.9286  0.1481  0.2007
 9654TIP3    H250454   1.075   3.263  46.113 -0.0991 -0.0120  0.3344
 9655TIP3   OH250455   0.014   2.914  38.503 -0.1232  0.0289  0.1123
 9655TIP3    H150456   0.109   2.911  38.505 -0.0399  1.6007 -0.2777
 9655TIP3    H250457  -0.008   2.927  38.411 -0.6434  0.9086  0.3411
 9656TIP3   OH250458   0.243   2.349   7.392 -0.3369  0.3459  0.3018
 9656TIP3    H150459   0.243   2.330   7.486 -0.8033  1.0151  0.4415
 9656TIP3    H250460   0.264   2.442   7.386 -0.2569  0.2971 -0.2673
 9657TIP3   OH250461   1.564   3.597   3.759  0.2306  0.0872 -0.1679
 9657TIP3    H150462   1.560   3.691   3.741  0.8709  0.1191 -0.1790
 9657TIP3    H250463   1.549   3.591   3.854  0.3169  0.2148 -0.1450
 9658TIP3   OH250464   0.502   0.028  10.469  0.2833  0.2952 -0.0305
 9658TIP3    H150465   0.481  -0.061  10.496  0.2995  0.3544  0.1751
 9658TIP3    H250466   0.504   0.079  10.550  0.9789  0.3401 -0.0746
 9659TIP3   OH250467   0.798   3.210  31.068  0.3601  0.5051 -0.1963
 9659TIP3    H150468   0.819   3.157  30.990 -0.4875 -0.2399  0.0606
 9659TIP3    H250469   0.852   3.172  31.137  1.1346  1.1854 -0.4165
 9660TIP3   OH250470   2.440   0.099  45.000 -0.1338 -0.1596 -0.5875
 9660TIP3    H150471   2.386   0.178  45.011  1.1571  0.6508  0.1923
 9660TIP3    H250472   2.486   0.090  45.083 -1.9262 -3.0915  0.2233
 9661TIP3   OH250473   3.722   2.876  45.900  0.0173 -0.2010  0.3388
 9661TIP3    H150474   3.639   2.885  45.854 -0.2630  2.3059  1.1760
 9661TIP3    H250475   3.787   2.909  45.839  0.2684 -1.1115  0.1014
 9662TIP3   OH250476   3.174   3.210   3.593 -0.2561 -0.1507  0.0250
 9662TIP3    H150477   3.146   3.251   3.675 -0.6943 -0.1538 -0.1185
 9662TIP3    H250478   3.230   3.138   3.620  1.2072  1.0267  0.2639
 9663TIP3   OH250479   2.532   2.407   6.649  0.8198  0.9382 -0.0036
 9663TIP3    H150480   2.544   2.437   6.739 -1.5141 -1.2275  1.1671
 9663TIP3    H250481   2.618   2.376   6.622  1.4735  1.1892  1.6779
 9664TIP3   OH250482   2.098   1.301   5.433 -0.1882  0.4109  0.1772
 9664TIP3    H150483   2.054   1.367   5.380  1.1703  0.8335 -0.4762
 9664TIP3    H250484   2.096   1.336   5.522 -0.5621  0.7404  0.0419
 9665TIP3   OH250485   1.487   0.865  38.531  0.6419  1.1453  0.0152
 9665TIP3    H150486   1.572   0.885  38.492  0.5294  1.6118  0.0043
 9665TIP3    H250487   1.503   0.787  38.584  0.6953  0.2550 -1.2812
 9666TIP3   OH250488   2.171   0.313  36.847  0.1198  0.5978  0.7135
 9666TIP3    H150489   2.237   0.375  36.816 -1.9619  3.2459  1.2181
 9666TIP3    H250490   2.091   0.365  36.855 -2.2130 -2.5188 -0.2996
 9667TIP3   OH250491   1.314   0.743   6.494  0.2971  0.1118 -0.2215
 9667TIP3    H150492   1.387   0.680   6.502  0.0842  0.0294  1.5752
 9667TIP3    H250493   1.347   0.822   6.536 -0.5302  0.1578  0.3649
 9668TIP3   OH250494   1.494   4.067   0.012 -0.5141 -0.0656 -0.5076
 9668TIP3    H150495   1.459   4.141   0.062  0.9356  1.7720 -2.0477
 9668TIP3    H250496   1.448   4.072  -0.073  0.0917 -0.5213 -0.8691
 9669TIP3   OH250497   2.490   1.996  46.875  0.0037 -0.2930 -0.3511
 9669TIP3    H150498   2.549   1.978  46.949 -0.8902  0.1802  0.4946
 9669TIP3    H250499   2.519   2.081  46.843  0.4807 -0.5594 -0.6390
 9670TIP3   OH250500   2.023   0.432  46.220 -0.2572  0.3488 -0.0360
 9670TIP3    H150501   2.117   0.439  46.205 -0.4253  1.9453 -0.6159
 9670TIP3    H250502   1.993   0.523  46.226 -1.4822 -0.1339  2.0501
 9671TIP3   OH250503   4.068   1.483  41.467  0.0258  0.3145 -0.0046
 9671TIP3    H150504   4.045   1.526  41.550  0.1419  1.4357 -0.5372
 9671TIP3    H250505   4.153   1.521  41.444 -0.3035  0.4853 -0.9634
 9672TIP3   OH250506   0.226   3.312  13.248 -0.2375 -0.2645  0.3846
 9672TIP3    H150507   0.177   3.318  13.166  0.7326 -0.6794 -0.2514
 9672TIP3    H250508   0.295   3.248  13.230  0.2011 -0.1033  1.4194
 9673TIP3   OH250509   3.330   2.699   4.019 -0.2755  0.1718 -0.3601
 9673TIP3    H150510   3.336   2.777   3.962 -0.3601  0.0916 -0.4791
 9673TIP3    H250511   3.420   2.682   4.045 -0.4099  1.2661  0.9592
 9674TIP3   OH250512   3.884   1.691  14.956  0.1066  0.4696  0.6769
 9674TIP3    H150513   3.866   1.785  14.954  2.1488  0.8896 -1.6609
 9674TIP3    H250514   3.798   1.650  14.949 -0.7004  2.1785  0.0829
 9675TIP3   OH250515   3.137   1.699  36.065 -0.1888 -0.0008 -0.1269
 9675TIP3    H150516   3.205   1.697  36.132  0.5556  1.1289 -0.8036
 9675TIP3    H250517   3.112   1.792  36.059 -1.9691 -0.4135  0.2548
 9676TIP3   OH250518   2.194   0.088  31.835  0.3293  0.3414 -0.2201
 9676TIP3    H150519   2.116   0.051  31.793 -0.3113  1.6829 -0.2700
 9676TIP3    H250520   2.169   0.178  31.855  2.6156  1.5076 -2.2075
 9677TIP3   OH250521   2.613   0.884  35.483 -0.3804  0.0671 -0.0581
 9677TIP3    H150522   2.528   0.927  35.475  0.2263  1.5807  1.2992
 9677TIP3    H250523   2.612   0.846  35.571 -0.0510 -0.8741 -0.4453
 9678TIP3   OH250524   3.931   1.109  33.843  0.6012 -0.2015  0.0440
 9678TIP3    H150525   3.987   1.045  33.800 -1.4718 -1.7906 -0.4576
 9678TIP3    H250526   3.864   1.056  33.887  0.2059  1.5540  1.6866
 9679TIP3   OH250527   0.275   0.724  39.509  0.8181  0.2844  0.4119
 9679TIP3    H150528   0.350   0.741  39.453  0.5427  0.0595 -0.0252
 9679TIP3    H250529   0.295   0.642  39.553  1.3541  0.8131  1.1969
 9680TIP3   OH250530   2.212   0.284  43.972  0.0555  0.0223 -0.4752
 9680TIP3    H150531   2.206   0.329  43.888  1.3172 -2.9285 -2.2842
 9680TIP3    H250532   2.279   0.332  44.020  0.3498  0.9040 -1.7250
 9681TIP3   OH250533   2.407   1.031  35.342 -0.6761  0.2804 -0.1643
 9681TIP3    H150534   2.417   0.942  35.310 -1.4021  0.3179 -0.5265
 9681TIP3    H250535   2.407   1.085  35.263  0.9710  0.7335  0.1236
 9682TIP3   OH250536   2.263   0.554   4.403  0.0391 -0.3217  0.1558
 9682TIP3    H150537   2.317   0.600   4.467  1.3245 -2.2834  0.5845
 9682TIP3    H250538   2.314   0.556   4.322 -0.3042 -0.2206 -0.0596
 9683TIP3   OH250539   1.287   0.593  47.700 -0.3710 -0.3260  0.0169
 9683TIP3    H150540   1.307   0.624  47.611 -0.7054  1.5389  0.5441
 9683TIP3    H250541   1.192   0.608  47.708 -0.2129  0.2270  0.9322
 9684TIP3   OH250542   2.388   2.583   2.277  0.1818  0.4644  0.4487
 9684TIP3    H150543   2.303   2.539   2.264 -0.1209  0.7235  1.5194
 9684TIP3    H250544   2.419   2.551   2.361  1.0095  0.6270  0.2149
 9685TIP3   OH250545   0.059   0.141  44.010 -0.1020 -0.3382  0.0216
 9685TIP3    H150546   0.084   0.089  44.086 -0.3012 -0.5528 -0.0565
 9685TIP3    H250547   0.018   0.078  43.950 -1.0529  0.0446  0.2522
 9686TIP3   OH250548   3.577   2.653   4.615  0.2403  0.1251  0.0929
 9686TIP3    H150549   3.546   2.563   4.626 -1.0289  0.7409  2.2528
 9686TIP3    H250550   3.546   2.699   4.693  1.7571  2.2127 -0.4293
 9687TIP3   OH250551   2.463   4.009  42.597 -0.0973 -0.4040 -0.1825
 9687TIP3    H150552   2.473   3.993  42.690  0.3432  2.3106  0.3329
 9687TIP3    H250553   2.535   4.069  42.575 -0.1944 -0.9565 -2.2748
 9688TIP3   OH250554   0.074   1.508  35.988 -0.0836 -0.5019 -0.2465
 9688TIP3    H150555  -0.021   1.510  35.975 -0.2464 -4.2008 -0.7311
 9688TIP3    H250556   0.108   1.463  35.910  2.0079  0.0840  0.2527
 9689TIP3   OH250557   2.374   4.063  12.904  0.3976 -0.0583 -0.4801
 9689TIP3    H150558   2.350   4.031  12.991  1.0720 -1.1188 -0.6735
 9689TIP3    H250559   2.343   3.995  12.844  0.4383  0.4039 -1.0297
 9690TIP3   OH250560   2.252   0.583  35.888  0.0189 -0.4294  0.3068
 9690TIP3    H150561   2.190   0.619  35.825  0.5035  1.0335  0.6418
 9690TIP3    H250562   2.322   0.547  35.833  0.0461  0.1045 -0.0173
 9691TIP3   OH250563   2.678   1.294   3.428 -0.2785  0.4428 -0.2144
 9691TIP3    H150564   2.702   1.309   3.520 -0.0393  0.3207 -0.2555
 9691TIP3    H250565   2.607   1.356   3.412  1.1402  2.0486 -0.5714
 9692TIP3   OH250566   3.427   0.577  35.476 -0.0363 -0.2022 -0.2538
 9692TIP3    H150567   3.421   0.625  35.393  0.5647 -0.0591 -0.2161
 9692TIP3    H250568   3.336   0.558  35.498 -0.4575  2.3737  0.5747
 9693TIP3   OH250569   3.404   0.169  42.620 -0.7547 -0.3073  0.5680
 9693TIP3    H150570   3.376   0.260  42.630  0.9257  0.2421  0.4820
 9693TIP3    H250571   3.419   0.139  42.710 -1.8834 -0.7273  0.6430
 9694TIP3   OH250572   2.307   1.632   1.648 -0.0273 -0.4539  0.2254
 9694TIP3    H150573   2.326   1.540   1.670 -0.6232 -0.7398 -0.4057
 9694TIP3    H250574   2.240   1.626   1.579  0.6319  0.4357 -0.5030
 9695TIP3   OH250575   0.855   3.507  27.524 -0.5769  0.6342  0.3678
 9695TIP3    H150576   0.937   3.480  27.565 -0.3778 -1.1291 -1.0676
 9695TIP3    H250577   0.876   3.589  27.479 -0.0555  1.0570  1.3696
 9696TIP3   OH250578   2.858   0.998  45.070 -0.2082 -0.4181 -0.3761
 9696TIP3    H150579   2.778   1.051  45.067 -0.4966 -0.6731  1.4547
 9696TIP3    H250580   2.871   0.970  44.980 -0.8629  1.5402 -1.1509
 9697TIP3   OH250581   3.249   3.820   4.287  0.6505  0.2718 -0.3623
 9697TIP3    H150582   3.168   3.863   4.313 -1.4086 -2.1560 -2.2125
 9697TIP3    H250583   3.263   3.753   4.353  0.3923 -0.1367 -0.7129
 9698TIP3   OH250584   3.759   1.996  32.280 -0.1776  0.4760  0.1818
 9698TIP3    H150585   3.733   1.953  32.199  2.6088  2.0861 -1.7328
 9698TIP3    H250586   3.831   1.943  32.314 -0.8521  0.2125  1.2574
 9699TIP3   OH250587   0.969   2.398  16.889 -0.6099 -0.8743  0.1744
 9699TIP3    H150588   0.975   2.479  16.838 -1.2615  1.4269  3.4613
 9699TIP3    H250589   0.891   2.354  16.855 -1.7703  1.2182 -0.0258
 9700TIP3   OH250590   0.906   3.963  28.811  0.5952 -0.3559  0.2639
 9700TIP3    H150591   0.998   3.986  28.821  0.2167  0.9542  0.9512
 9700TIP3    H250592   0.865   4.042  28.776 -0.4610 -0.4926  1.1264
 9701TIP3   OH250593   3.020   0.012  15.490 -0.0386  0.1704  0.2637
 9701TIP3    H150594   3.106   0.052  15.495  1.4383 -2.8076  0.6225
 9701TIP3    H250595   3.011  -0.014  15.398  0.1422 -0.8999  0.5395
 9702TIP3   OH250596   1.247   2.199  45.811  0.5431  0.4265 -0.2571
 9702TIP3    H150597   1.221   2.110  45.786  0.8486 -0.3356  1.8811
 9702TIP3    H250598   1.218   2.254  45.738  2.2006 -1.6385 -2.6818
 9703TIP3   OH250599   3.835   1.979   4.214  0.2738  0.0762  0.6143
 9703TIP3    H150600   3.886   1.923   4.156  0.5703  0.6089  0.3539
 9703TIP3    H250601   3.745   1.972   4.181  0.3813  0.0922  0.3175
 9704TIP3   OH250602   2.237   2.198  32.800 -0.5887 -0.2430 -0.4669
 9704TIP3    H150603   2.238   2.286  32.837 -0.3427 -0.5127  0.1815
 9704TIP3    H250604   2.261   2.210  32.708 -0.6854  0.3809 -0.4138
 9705TIP3   OH250605   0.538   2.811  35.443  0.5007 -0.3597  0.0839
 9705TIP3    H150606   0.534   2.784  35.352 -0.8155  2.0166 -0.6272
 9705TIP3    H250607   0.631   2.825  35.460  0.5858  2.3338 -1.9754
 9706TIP3   OH250608   0.636   3.834  15.019 -0.3086 -0.2926 -0.1040
 9706TIP3    H150609   0.557   3.858  15.068  0.7827 -0.2327  1.7285
 9706TIP3    H250610   0.624   3.741  14.999 -0.8904 -0.2608  0.0567
 9707TIP3   OH250611   0.018   1.306  16.635  0.2402  0.1249  0.0619
 9707TIP3    H150612  -0.016   1.300  16.545  2.2142 -0.2668 -0.7135
 9707TIP3    H250613   0.019   1.216  16.667 -1.9353  0.4010  1.1441
 9708TIP3   OH250614   0.018   1.080   2.063 -0.3520 -0.3115 -0.1259
 9708TIP3    H150615   0.063   1.093   2.146 -1.8163 -0.9741  0.8254
 9708TIP3    H250616   0.006   1.168   2.027  2.1254 -0.1451 -0.7051
 9709TIP3   OH250617   1.577   0.025  42.785  0.0548 -0.2471 -0.9198
 9709TIP3    H150618   1.656   0.075  42.764  2.0029 -1.7649  1.9658
 9709TIP3    H250619   1.596  -0.063  42.752 -0.5405 -0.5503 -0.4638
 9710TIP3   OH250620   1.735   2.044  47.318 -0.0562 -0.1673 -0.1083
 9710TIP3    H150621   1.802   1.980  47.297 -0.7535 -1.3634  1.1682
 9710TIP3    H250622   1.677   2.000  47.380 -1.3334  1.2418 -0.2241
 9711TIP3   OH250623   0.321   1.364  20.121  0.1199 -0.2875  0.1053
 9711TIP3    H150624   0.345   1.323  20.039 -0.6133  1.0019 -0.7976
 9711TIP3    H250625   0.392   1.342  20.182  1.0674 -0.5964 -1.0882
 9712TIP3   OH250626   1.356   1.697  37.001  0.3008  0.2263 -0.4391
 9712TIP3    H150627   1.272   1.656  37.019  1.8478 -3.0150  0.3379
 9712TIP3    H250628   1.337   1.768  36.940 -2.9106 -0.5437 -0.4754
 9713TIP3   OH250629   2.528   3.359   8.585  0.0349  0.6557  0.2773
 9713TIP3    H150630   2.509   3.405   8.666 -0.0906 -3.3524  2.8180
 9713TIP3    H250631   2.442   3.342   8.546 -0.1498  0.1830  0.8660
 9714TIP3   OH250632   0.713   3.141  11.412 -0.5002 -0.0428  0.4033
 9714TIP3    H150633   0.660   3.062  11.400 -2.2675  1.2588 -0.9149
 9714TIP3    H250634   0.788   3.128  11.354 -1.7614  0.0103 -1.3253
 9715TIP3   OH250635   0.231   2.321   9.630 -0.6154 -0.3846  0.2131
 9715TIP3    H150636   0.307   2.290   9.679 -2.1092 -2.1851  1.5463
 9715TIP3    H250637   0.157   2.306   9.689 -2.2445 -0.5521 -1.7765
 9716TIP3   OH250638   0.417   0.247  13.511 -0.6375 -0.4554  0.4049
 9716TIP3    H150639   0.466   0.294  13.444 -0.9278  0.1400  0.6128
 9716TIP3    H250640   0.390   0.166  13.468 -1.4751  0.2495 -0.4396
 9717TIP3   OH250641   2.040   2.809  13.312 -0.0425  0.5142 -0.0855
 9717TIP3    H150642   1.997   2.750  13.374 -1.3263  0.7491 -0.7310
 9717TIP3    H250643   1.970   2.838  13.254  0.7940  1.7645 -0.4995
 9718TIP3   OH250644   1.305   3.756  10.961 -0.6703 -0.0674  0.2582
 9718TIP3    H150645   1.303   3.754  10.866  1.2228 -1.1876  0.1936
 9718TIP3    H250646   1.234   3.697  10.988  0.0450 -1.3111 -0.5120
 9719TIP3   OH250647   0.856   1.045  11.032 -0.0667 -0.0862  0.9609
 9719TIP3    H150648   0.949   1.062  11.050 -0.0168 -0.7378  1.3760
 9719TIP3    H250649   0.836   1.098  10.956  0.7391 -0.1882  0.6639
 9720TIP3   OH250650   3.393   3.391  43.949  0.4289 -0.1389  0.6235
 9720TIP3    H150651   3.425   3.380  44.039 -0.5937  0.6138  1.1053
 9720TIP3    H250652   3.304   3.425  43.960  1.0882  2.2270 -0.6586
 9721TIP3   OH250653   2.190   1.451  39.299  0.2342 -0.4185  0.4921
 9721TIP3    H150654   2.215   1.543  39.308 -0.0767 -0.0070 -2.1050
 9721TIP3    H250655   2.208   1.430  39.207 -1.0984 -2.5361  0.6475
 9722TIP3   OH250656   2.400   0.562   9.304  0.0374  0.6309  0.1966
 9722TIP3    H150657   2.365   0.643   9.269 -1.8739  0.2704  1.1292
 9722TIP3    H250658   2.328   0.499   9.297  1.3552 -0.9074 -0.1929
 9723TIP3   OH250659   2.808   2.899  37.964  0.0103  0.1282 -0.1813
 9723TIP3    H150660   2.855   2.960  38.021  1.9502  0.3584 -1.8847
 9723TIP3    H250661   2.783   2.827  38.022 -0.8620  1.7322  1.5423
 9724TIP3   OH250662   0.759   0.855  39.293  0.3895 -0.0878 -0.2457
 9724TIP3    H150663   0.739   0.855  39.199  0.9747 -1.5520 -0.4050
 9724TIP3    H250664   0.674   0.840  39.335 -0.0691  1.7634 -0.4539
 9725TIP3   OH250665   0.706   4.106   8.954 -0.1185  0.2409  0.2065
 9725TIP3    H150666   0.796   4.138   8.940 -0.5780  1.6436  0.3426
 9725TIP3    H250667   0.716   4.012   8.965  1.2811  0.2923 -0.3917
 9726TIP3   OH250668   4.105   1.878  41.992  0.3996 -0.0292  0.0551
 9726TIP3    H150669   4.020   1.916  42.015 -0.0797 -0.3310 -1.1389
 9726TIP3    H250670   4.091   1.783  41.999  1.0161 -0.0603  1.0796
 9727TIP3   OH250671   3.557   3.338  36.934 -0.0186 -0.0777 -0.2891
 9727TIP3    H150672   3.546   3.301  37.022  2.0937 -1.6810 -0.6116
 9727TIP3    H250673   3.636   3.295  36.900 -0.4897  0.8805 -2.7897
 9728TIP3   OH250674   3.179   2.970   0.547  0.6080  0.2379  0.1492
 9728TIP3    H150675   3.131   2.894   0.515 -0.1405  0.6928  0.1622
 9728TIP3    H250676   3.111   3.036   0.563  0.7420 -0.3156  3.7721
 9729TIP3   OH250677   0.666   2.410   0.953  0.0475 -0.6835  0.7022
 9729TIP3    H150678   0.608   2.337   0.930  1.8741 -1.9538 -0.1050
 9729TIP3    H250679   0.731   2.412   0.882  0.2973  1.4699  0.9347
 9730TIP3   OH250680   1.961   3.432   4.774 -0.1248 -0.2519  0.1252
 9730TIP3    H150681   2.045   3.437   4.820  1.7640 -1.3677 -2.9539
 9730TIP3    H250682   1.914   3.511   4.801  2.5811  1.2448  0.7171
 9731TIP3   OH250683   2.972   0.102  38.632  0.3008 -0.0976  0.2069
 9731TIP3    H150684   2.935   0.024  38.590 -1.0926  0.8001 -0.2748
 9731TIP3    H250685   2.948   0.174  38.575  0.9387  0.7968  1.0366
 9732TIP3   OH250686   0.279   3.907  40.885  0.9252 -0.1743  0.4901
 9732TIP3    H150687   0.343   3.876  40.821 -0.7698 -2.6132 -0.1453
 9732TIP3    H250688   0.199   3.858  40.865 -1.3051  2.9479  1.0373
 9733TIP3   OH250689   2.212   3.269  47.511  0.7462  0.1464  0.2024
 9733TIP3    H150690   2.274   3.291  47.441  0.8989 -2.5529 -0.6556
 9733TIP3    H250691   2.126   3.273  47.469  0.6277  0.7910  0.5078
 9734TIP3   OH250692   3.375   2.843  10.725 -0.1981 -0.4549  0.1991
 9734TIP3    H150693   3.315   2.803  10.662  1.7938 -0.6974 -1.6520
 9734TIP3    H250694   3.333   2.926  10.749 -2.0092 -1.3369  0.2411
 9735TIP3   OH250695   0.545   2.526   0.424 -0.5737 -0.3309 -0.0485
 9735TIP3    H150696   0.618   2.527   0.486 -1.8487  1.1415  1.5457
 9735TIP3    H250697   0.534   2.434   0.400  1.7323 -0.5957 -0.2989
 9736TIP3   OH250698   0.328   1.565   7.370 -0.0840  0.0551  0.0348
 9736TIP3    H150699   0.373   1.647   7.347  0.8926 -0.6752 -0.8264
 9736TIP3    H250700   0.278   1.585   7.449 -0.5171  1.6920 -0.6141
 9737TIP3   OH250701   3.273   1.266  45.830  0.6828 -0.1509 -0.4315
 9737TIP3    H150702   3.291   1.353  45.864  2.3269 -0.7015  0.1981
 9737TIP3    H250703   3.229   1.221  45.902 -0.6062  0.2527 -0.9194
 9738TIP3   OH250704   0.902   3.553  40.605 -0.1987  0.3348  0.0842
 9738TIP3    H150705   0.881   3.499  40.529 -0.4179  2.1591 -1.2116
 9738TIP3    H250706   0.953   3.495  40.662  0.6298 -0.8611 -1.7876
 9739TIP3   OH250707   1.127   0.927   2.778  0.6452 -0.3985 -1.0879
 9739TIP3    H150708   1.128   0.834   2.800  0.3477 -0.4268 -1.1853
 9739TIP3    H250709   1.215   0.958   2.798  0.8910 -0.8105 -1.5254
 9740TIP3   OH250710   0.483   1.684  39.256 -0.0115  0.2688  0.0664
 9740TIP3    H150711   0.521   1.597  39.241 -0.9108 -0.2401  0.6881
 9740TIP3    H250712   0.426   1.673  39.332  0.6304  1.6504  0.7762
 9741TIP3   OH250713   2.552   2.167  17.447 -0.8028 -0.0197 -0.7937
 9741TIP3    H150714   2.522   2.229  17.513  1.9464  0.0487  0.5320
 9741TIP3    H250715   2.527   2.081  17.480 -1.1020  0.1274 -0.6353
 9742TIP3   OH250716   0.681   0.959  10.760  0.4767  0.0208 -0.1478
 9742TIP3    H150717   0.625   1.000  10.694  1.9379 -1.3626 -2.3689
 9742TIP3    H250718   0.757   1.018  10.767  0.1315  0.3853  0.6630
 9743TIP3   OH250719   3.738   3.697  38.656  0.0897  0.0431  0.4314
 9743TIP3    H150720   3.822   3.654  38.664 -0.1913 -0.1037  3.9105
 9743TIP3    H250721   3.735   3.760  38.728 -2.1790  1.1848 -0.5211
 9744TIP3   OH250722   3.310   2.484  15.438 -0.1948 -0.2864  0.3083
 9744TIP3    H150723   3.289   2.455  15.349  0.5990 -0.7576  0.2657
 9744TIP3    H250724   3.335   2.576  15.427  0.5230 -0.5211 -0.0556
 9745TIP3   OH250725   2.800   3.770  13.323 -0.0348  0.1357 -0.1543
 9745TIP3    H150726   2.767   3.796  13.237  0.3002  0.6676 -0.1280
 9745TIP3    H250727   2.857   3.695  13.306  0.9619  0.9555 -0.5600
 9746TIP3   OH250728   2.367   1.801  40.048  0.0763  0.2694 -0.1523
 9746TIP3    H150729   2.304   1.870  40.026 -0.5534  0.9637  3.2371
 9746TIP3    H250730   2.452   1.840  40.030 -0.3172  1.4354  0.4074
 9747TIP3   OH250731   1.865   2.664  15.566 -0.0186  0.5071 -0.4244
 9747TIP3    H150732   1.849   2.738  15.624 -2.9039 -0.0520 -0.3824
 9747TIP3    H250733   1.779   2.641  15.531  0.4283 -3.6714  0.6098
 9748TIP3   OH250734   3.600   3.926  12.242 -0.4070 -0.1249 -0.0537
 9748TIP3    H150735   3.623   4.018  12.243 -0.9134  0.0553  2.0979
 9748TIP3    H250736   3.530   3.918  12.308  0.6696 -2.2660  0.9400
 9749TIP3   OH250737   3.384   1.906  37.052  0.0086 -0.1626 -0.1645
 9749TIP3    H150738   3.290   1.919  37.067 -0.0628  1.0267 -1.4315
 9749TIP3    H250739   3.416   1.866  37.133 -1.0971  1.8966  1.3936
 9750TIP3   OH250740   0.722   3.811  32.487  0.7023  0.5860  0.7898
 9750TIP3    H150741   0.648   3.817  32.547  1.1463 -0.6206  1.4762
 9750TIP3    H250742   0.699   3.739  32.428  1.6934 -0.3559  1.5367
 9751TIP3   OH250743   0.188   1.542  41.320  0.3551 -0.3646 -0.2419
 9751TIP3    H150744   0.230   1.627  41.334  1.6143 -0.8232 -0.9961
 9751TIP3    H250745   0.254   1.479  41.349  0.2349 -1.1167 -1.5145
 9752TIP3   OH250746   1.568   1.228  40.409 -0.3158  0.0910 -0.1002
 9752TIP3    H150747   1.557   1.136  40.384 -2.2221  0.1604  0.3137
 9752TIP3    H250748   1.483   1.253  40.446 -0.4408  2.5207 -1.7832
 9753TIP3   OH250749   1.244   0.982  11.167  0.2865 -0.0313  0.0035
 9753TIP3    H150750   1.294   0.946  11.094  0.6785  1.2401 -0.3771
 9753TIP3    H250751   1.188   0.910  11.195 -0.0390 -0.4921 -1.6941
 9754TIP3   OH250752   0.603   3.796  24.854 -0.0292  0.3255 -0.2422
 9754TIP3    H150753   0.627   3.884  24.826 -0.0429  1.2289  2.3341
 9754TIP3    H250754   0.655   3.738  24.798  0.0833  1.9299 -1.9049
 9755TIP3   OH250755   1.838   1.923  10.285 -0.1014 -0.1471 -0.2141
 9755TIP3    H150756   1.842   2.017  10.267  0.5681  0.1146  1.1385
 9755TIP3    H250757   1.897   1.884  10.220  0.9628  0.5644  0.2868
 9756TIP3   OH250758   3.662   0.944  12.099 -0.0961 -0.0737 -0.0546
 9756TIP3    H150759   3.656   0.986  12.184 -1.5443 -1.6524  0.6800
 9756TIP3    H250760   3.638   0.853  12.115  3.4428 -1.4697 -1.4174
 9757TIP3   OH250761   1.532   1.208  42.626 -0.2478  0.3576  0.3796
 9757TIP3    H150762   1.477   1.275  42.666  0.5582  0.8304  0.7237
 9757TIP3    H250763   1.534   1.231  42.533  0.2803  1.0129  0.5416
 9758TIP3   OH250764   0.159   0.034  29.734 -0.8114  0.1581  0.4408
 9758TIP3    H150765   0.205   0.002  29.812  2.0142  1.1267 -0.7158
 9758TIP3    H250766   0.129   0.122  29.758 -0.7936  0.0843  0.7395
 9759TIP3   OH250767   3.585   3.312  28.786  0.3988 -0.0039 -0.4996
 9759TIP3    H150768   3.658   3.374  28.792 -0.5653  1.2248 -0.9246
 9759TIP3    H250769   3.545   3.331  28.702  0.0288 -1.1821 -0.6009
 9760TIP3   OH250770   0.012   3.082  31.872  0.4691 -0.2818 -0.1794
 9760TIP3    H150771  -0.002   3.154  31.933 -1.1145  0.0641 -0.8994
 9760TIP3    H250772   0.014   3.124  31.786 -2.0147 -1.1969 -0.7501
 9761TIP3   OH250773   2.344   1.483  46.704 -0.1547  0.0322 -0.5402
 9761TIP3    H150774   2.257   1.456  46.733  0.6154 -0.1866  1.8141
 9761TIP3    H250775   2.354   1.571  46.738  0.7423 -0.1498 -0.3117
 9762TIP3   OH250776   0.468   2.677  43.702  0.8482 -0.4313  0.1432
 9762TIP3    H150777   0.490   2.584  43.692 -1.4152 -1.1027  0.9360
 9762TIP3    H250778   0.439   2.704  43.615 -1.5594 -1.3892  0.5812
 9763TIP3   OH250779   1.171   1.404   8.163  0.3285  0.2644 -0.2238
 9763TIP3    H150780   1.249   1.368   8.206 -0.2124  0.9813  1.4696
 9763TIP3    H250781   1.202   1.440   8.081  1.3372 -1.6692 -0.7474
 9764TIP3   OH250782   3.327   1.790  43.824 -0.5883 -0.3748  0.7263
 9764TIP3    H150783   3.403   1.843  43.846 -0.1530 -0.6777  0.0035
 9764TIP3    H250784   3.305   1.816  43.734 -0.2581 -1.5207  0.2970
 9765TIP3   OH250785   2.570   1.938  41.949  0.0230 -0.2982 -0.8369
 9765TIP3    H150786   2.547   1.875  42.017  0.3092 -0.6664 -1.0792
 9765TIP3    H250787   2.567   2.023  41.993 -0.0746 -0.5075 -0.4401
 9766TIP3   OH250788   0.969   2.585   7.179 -0.3302  0.0902  0.3965
 9766TIP3    H150789   0.931   2.499   7.193 -1.1600  0.1448 -1.2959
 9766TIP3    H250790   0.989   2.588   7.085 -0.7196  1.8873  0.3275
 9767TIP3   OH250791   1.324   0.728  34.300 -0.0558 -0.5525 -0.1422
 9767TIP3    H150792   1.335   0.634  34.282  1.5686 -0.2809 -0.7526
 9767TIP3    H250793   1.387   0.747  34.370 -0.6736  0.0157  0.2746
 9768TIP3   OH250794   0.489   3.432  35.307  0.3723 -0.5787  0.2371
 9768TIP3    H150795   0.581   3.405  35.312  0.2704 -0.7333  3.6035
 9768TIP3    H250796   0.491   3.526  35.327 -0.2373 -0.7748  1.2858
 9769TIP3   OH250797   0.927   2.782   7.354  0.2820 -0.1465  0.2503
 9769TIP3    H150798   0.948   2.723   7.281 -0.6283  0.2484 -0.3518
 9769TIP3    H250799   0.918   2.724   7.430 -0.1336 -0.7334 -0.2393
 9770TIP3   OH250800   2.583   3.517  11.603 -0.4895  0.0228 -0.4374
 9770TIP3    H150801   2.507   3.460  11.594 -1.5607  1.1860  0.9451
 9770TIP3    H250802   2.639   3.493  11.529 -0.6405 -3.1454  0.3204
 9771TIP3   OH250803   2.235   3.433  46.675  0.4722  0.0860  0.0593
 9771TIP3    H150804   2.219   3.345  46.642 -1.0400  0.0796  0.7751
 9771TIP3    H250805   2.328   3.433  46.699  0.2483 -1.6317  1.0275
 9772TIP3   OH250806   0.641   2.506   7.997 -0.3070  0.6563  0.4413
 9772TIP3    H150807   0.735   2.505   7.979 -0.1121 -0.3002  1.3988
 9772TIP3    H250808   0.625   2.593   8.035 -0.1457  1.4572 -1.2213
 9773TIP3   OH250809   3.734   3.931   4.587 -0.0498 -0.0335 -0.2572
 9773TIP3    H150810   3.650   3.887   4.577 -0.0506 -0.0262 -0.2834
 9773TIP3    H250811   3.779   3.917   4.504  0.9970 -2.1563  0.5897
 9774TIP3   OH250812   2.151   2.191  17.986  0.2146  0.1532 -0.3959
 9774TIP3    H150813   2.115   2.165  18.071 -0.1495  1.2788 -0.1784
 9774TIP3    H250814   2.088   2.255  17.952 -0.8001 -1.8701 -2.5586
 9775TIP3   OH250815   0.212   2.917   4.054  0.1201  0.2762 -0.0475
 9775TIP3    H150816   0.200   2.823   4.059 -0.9470  0.4641  2.6219
 9775TIP3    H250817   0.305   2.928   4.034  0.9565 -1.4011  2.5174
 9776TIP3   OH250818   1.945   2.705   9.430  0.3178  0.0181 -0.1364
 9776TIP3    H150819   2.020   2.763   9.445  0.4627 -0.3573  0.6242
 9776TIP3    H250820   1.982   2.617   9.428  0.1113 -0.0570 -1.3922
 9777TIP3   OH250821   2.336   2.441  41.099  0.3527 -0.5101 -0.0245
 9777TIP3    H150822   2.405   2.397  41.049  1.2495  0.5351  0.2358
 9777TIP3    H250823   2.377   2.462  41.182 -0.9035 -1.5751  0.8968
 9778TIP3   OH250824   1.202   0.813  11.470  0.1248  0.4362 -0.5244
 9778TIP3    H150825   1.274   0.858  11.515 -0.2006  1.3237 -0.8599
 9778TIP3    H250826   1.181   0.738  11.526  0.2332  1.0936  0.4200
 9779TIP3   OH250827   2.959   2.390  21.883 -0.9800 -0.1753 -0.1177
 9779TIP3    H150828   2.948   2.424  21.972  0.9563 -0.1378  0.1416
 9779TIP3    H250829   3.041   2.341  21.885 -0.0938  1.0484 -2.2218
 9780TIP3   OH250830   0.931   3.433  10.582 -0.3723 -0.0744 -0.2476
 9780TIP3    H150831   0.908   3.342  10.560 -0.5521  0.1006 -0.7876
 9780TIP3    H250832   0.975   3.466  10.504 -0.6181  0.4128 -0.1798
 9781TIP3   OH250833   0.142   2.711  43.196 -0.4782  0.3250  0.0062
 9781TIP3    H150834   0.172   2.626  43.165  0.7424  0.4547  0.7866
 9781TIP3    H250835   0.182   2.774  43.137  0.5000  0.4761  0.8124
 9782TIP3   OH250836   1.475   3.466  13.737 -0.1041  0.5631 -0.0720
 9782TIP3    H150837   1.567   3.494  13.743  0.9692 -2.6188  0.3689
 9782TIP3    H250838   1.434   3.505  13.814  1.6080 -0.2111  1.3125
 9783TIP3   OH250839   2.914   2.315   1.560  0.0243 -0.3560  0.4324
 9783TIP3    H150840   2.890   2.408   1.557  0.3179 -0.2925 -0.2573
 9783TIP3    H250841   2.887   2.285   1.647  1.6274  0.8261  1.3935
 9784TIP3   OH250842   1.350   0.319  42.592  0.5589 -1.1676  0.1143
 9784TIP3    H150843   1.308   0.274  42.518 -0.8579 -0.7265  0.6085
 9784TIP3    H250844   1.297   0.398  42.604  1.5438 -0.5990  0.8101
 9785TIP3   OH250845   3.180   1.941  45.634  0.2455 -0.4944 -0.1174
 9785TIP3    H150846   3.195   1.915  45.543 -0.7063 -1.9131  0.1029
 9785TIP3    H250847   3.135   1.866  45.673 -1.4305  1.0035  0.9333
 9786TIP3   OH250848   0.011   1.772  15.810 -0.0466 -0.0465  0.4772
 9786TIP3    H150849  -0.059   1.715  15.842 -2.2275  1.5019 -1.2416
 9786TIP3    H250850   0.056   1.719  15.744 -0.8223 -0.4187  0.2377
 9787TIP3   OH250851   3.207   3.117  36.887  0.4721  0.3051  0.0054
 9787TIP3    H150852   3.252   3.057  36.828  0.0197 -0.4016  0.3727
 9787TIP3    H250853   3.250   3.201  36.872  2.1102 -0.3942  0.5433
 9788TIP3   OH250854   2.516   1.769   4.777 -0.1414 -0.1393  0.0235
 9788TIP3    H150855   2.536   1.680   4.749  0.9465 -0.5663  1.9671
 9788TIP3    H250856   2.477   1.810   4.700  0.4601 -1.9164 -1.3017
 9789TIP3   OH250857   1.370   2.351   2.504  0.0076 -0.2491  0.2021
 9789TIP3    H150858   1.275   2.355   2.491 -0.4636 -2.2048  2.3143
 9789TIP3    H250859   1.386   2.407   2.580  0.3557 -0.7281  0.4884
 9790TIP3   OH250860   0.438   3.416  42.023  0.4156  1.0015  0.7971
 9790TIP3    H150861   0.486   3.489  42.060  1.5585  0.3741  0.6273
 9790TIP3    H250862   0.496   3.340  42.036 -0.1763  0.3586 -0.1392
 9791TIP3   OH250863   1.711   1.739  34.354  0.1007  0.8632  0.0095
 9791TIP3    H150864   1.718   1.817  34.408  0.6889 -0.8704  2.6605
 9791TIP3    H250865   1.638   1.757  34.295 -0.6472  2.8896  1.4376
 9792TIP3   OH250866   3.664   2.228   4.661  0.0222  0.1025 -0.2123
 9792TIP3    H150867   3.626   2.220   4.573  0.1599 -2.8813 -0.0926
 9792TIP3    H250868   3.599   2.187   4.719  0.4158  1.0691  0.9410
 9793TIP3   OH250869   1.138   1.705  44.922  0.8343 -0.0545 -0.1599
 9793TIP3    H150870   1.169   1.703  44.832  0.1020 -0.6418 -0.4077
 9793TIP3    H250871   1.172   1.625  44.962  0.2477 -0.3337 -0.2224
 9794TIP3   OH250872   1.021   3.536  46.827 -0.0266  0.1655  0.8959
 9794TIP3    H150873   1.039   3.585  46.907 -0.4223  1.6021  0.1400
 9794TIP3    H250874   0.927   3.548  46.813 -0.2111 -1.1477  0.8864
 9795TIP3   OH250875   2.732   3.817  29.815 -0.2788  0.0431  0.1610
 9795TIP3    H150876   2.712   3.724  29.819  0.8617 -0.2352 -0.3767
 9795TIP3    H250877   2.711   3.850  29.903 -1.6517 -0.4914  0.0648
 9796TIP3   OH250878   3.235   0.419  13.973 -0.0912  0.4424  0.0432
 9796TIP3    H150879   3.155   0.376  13.942 -0.9816  2.0949 -0.0546
 9796TIP3    H250880   3.240   0.398  14.066 -1.3467  1.3541  0.3356
 9797TIP3   OH250881   0.417   1.046  16.082 -0.0463  0.7988 -0.5663
 9797TIP3    H150882   0.359   1.098  16.138 -1.6228 -1.8327  0.4364
 9797TIP3    H250883   0.370   1.039  15.999 -0.0577  0.6299 -0.5467
 9798TIP3   OH250884   1.062   2.349  44.117 -0.0187  0.6183 -0.4452
 9798TIP3    H150885   1.057   2.384  44.028  0.3746 -0.3316 -0.8553
 9798TIP3    H250886   0.971   2.343  44.146 -0.1449  0.9741 -0.7741
 9799TIP3   OH250887   1.297   3.837  14.359  0.0012 -0.1602 -0.1706
 9799TIP3    H150888   1.334   3.900  14.296 -0.9352  1.8284  1.1802
 9799TIP3    H250889   1.211   3.816  14.324  0.2563 -0.6059 -0.5454
 9800TIP3   OH250890   2.491   2.315   2.924 -0.2813  0.6764  0.5109
 9800TIP3    H150891   2.531   2.229   2.938 -1.5365 -0.2372 -1.0521
 9800TIP3    H250892   2.451   2.337   3.008 -0.5554 -0.6286  0.7510
 9801TIP3   OH250893   1.429   1.034  35.140  0.5195  0.2326 -0.1540
 9801TIP3    H150894   1.395   1.056  35.226 -0.8238  1.0268 -0.8577
 9801TIP3    H250895   1.517   1.001  35.157  0.8299  1.6996  1.3951
 9802TIP3   OH250896   3.623   0.381   8.199  0.0741  1.1473 -0.3833
 9802TIP3    H150897   3.696   0.406   8.256  0.5149  0.3193 -0.5668
 9802TIP3    H250898   3.552   0.440   8.223 -0.1556  0.0519  1.8640
 9803TIP3   OH250899   2.391   3.325   2.959  0.1061 -0.9848  0.4996
 9803TIP3    H150900   2.324   3.391   2.943 -1.6223 -2.5883  0.7355
 9803TIP3    H250901   2.474   3.372   2.953 -1.0083  0.9740 -0.3406
 9804TIP3   OH250902   3.690   0.807  15.837  0.2921 -0.2643  0.4679
 9804TIP3    H150903   3.634   0.745  15.885 -2.7289  1.3721 -0.6255
 9804TIP3    H250904   3.672   0.787  15.745  4.1120 -1.7411 -0.1170
 9805TIP3   OH250905   3.126   2.804  43.685  0.1572  0.3313 -0.0065
 9805TIP3    H150906   3.057   2.803  43.752 -0.6397  2.0307 -0.7429
 9805TIP3    H250907   3.151   2.896  43.678  1.0328  0.0228 -1.2331
 9806TIP3   OH250908   0.131   3.976   6.940 -0.4593 -0.0015  0.2001
 9806TIP3    H150909   0.096   4.019   6.862 -0.8092  0.4335  0.5930
 9806TIP3    H250910   0.217   4.015   6.953  0.4036 -1.3882 -1.0252
 9807TIP3   OH250911   2.411   1.862  35.573  0.0803  0.2362 -0.1995
 9807TIP3    H150912   2.409   1.878  35.479  1.7547  1.5985 -0.0597
 9807TIP3    H250913   2.503   1.877  35.598 -0.8474  2.9779  2.1239
 9808TIP3   OH250914   3.845   3.770  32.251 -0.0145 -0.2421 -0.1988
 9808TIP3    H150915   3.772   3.807  32.201 -0.9902 -3.3316 -1.3250
 9808TIP3    H250916   3.805   3.741  32.333 -0.0272 -1.5453 -0.6407
 9809TIP3   OH250917   2.840   2.643  46.153  0.1794  0.1090  0.6588
 9809TIP3    H150918   2.925   2.672  46.187 -0.0978  2.3962 -0.4217
 9809TIP3    H250919   2.789   2.724  46.144 -2.2386 -1.2214  1.5268
 9810TIP3   OH250920   1.686   2.077  13.667 -0.0273  0.0789  0.2394
 9810TIP3    H150921   1.652   2.078  13.577  0.4312 -1.1164  0.0339
 9810TIP3    H250922   1.776   2.048  13.658  0.6799  1.9227  0.9087
 9811TIP3   OH250923   1.592   1.768  13.949 -0.1689  0.2403 -0.0561
 9811TIP3    H150924   1.543   1.693  13.982 -1.3474  0.7108 -0.6476
 9811TIP3    H250925   1.682   1.738  13.942 -0.4419 -0.7934  0.6739
 9812TIP3   OH250926   2.954   3.421  42.426 -0.1625  0.2085 -0.3634
 9812TIP3    H150927   2.960   3.490  42.492 -1.5954 -0.9063  1.0339
 9812TIP3    H250928   3.010   3.351  42.461 -1.4872 -0.6633  0.0774
 9813TIP3   OH250929   1.178   1.026  36.557 -0.1112  0.3932  0.0093
 9813TIP3    H150930   1.216   0.941  36.580 -1.8459  0.0205  1.7161
 9813TIP3    H250931   1.099   1.004  36.509  0.9706  1.1502 -2.2651
 9814TIP3   OH250932   2.340   0.969   5.156  0.0605  0.5069 -0.0317
 9814TIP3    H150933   2.259   1.017   5.174  0.2021  0.4155  0.9229
 9814TIP3    H250934   2.319   0.878   5.175  0.2393  0.4134 -0.2870
 9815TIP3   OH250935   2.206   2.200  11.856 -0.1512 -0.8829  0.4065
 9815TIP3    H150936   2.259   2.259  11.802  0.0781 -0.7413  0.7842
 9815TIP3    H250937   2.223   2.113  11.820  1.6347 -1.0439  1.5539
 9816TIP3   OH250938   2.397   0.668   9.775 -0.2496  0.0398 -0.1021
 9816TIP3    H150939   2.367   0.596   9.720  0.5141 -0.8817  0.6466
 9816TIP3    H250940   2.484   0.689   9.741  0.1347 -0.3869  0.6019
 9817TIP3   OH250941   1.257   0.542  34.972 -0.1367 -0.1345 -0.2356
 9817TIP3    H150942   1.301   0.527  35.056 -1.0956 -0.8334  0.1546
 9817TIP3    H250943   1.182   0.483  34.973 -0.1353 -0.1902 -1.6179
 9818TIP3   OH250944   3.947   2.967   7.302 -0.0958 -0.3184  0.3983
 9818TIP3    H150945   3.889   2.945   7.375  2.5223 -0.3191  2.6232
 9818TIP3    H250946   3.963   3.061   7.311  0.2399 -0.3123 -0.1869
 9819TIP3   OH250947   2.948   0.836   7.220 -0.3904 -0.3044 -0.2054
 9819TIP3    H150948   3.011   0.890   7.267 -0.4567  0.6711 -1.1994
 9819TIP3    H250949   2.866   0.847   7.268 -0.3276  0.2512 -0.2159
 9820TIP3   OH250950   3.066   1.032   7.398 -0.4827 -0.7821 -0.0075
 9820TIP3    H150951   3.077   1.034   7.493  0.2703 -2.7438 -0.0094
 9820TIP3    H250952   3.153   1.050   7.363 -1.1611  2.2320 -0.4508
 9821TIP3   OH250953   0.743   3.226   2.247 -0.0754  0.2665 -0.2732
 9821TIP3    H150954   0.837   3.241   2.256  0.1093 -1.0247  0.2571
 9821TIP3    H250955   0.710   3.227   2.337 -0.5239  0.4211 -0.4344
 9822TIP3   OH250956   4.108   2.082   9.293 -0.6369 -0.1145 -0.6231
 9822TIP3    H150957   4.084   2.174   9.282  1.8161  0.7135  0.1964
 9822TIP3    H250958   4.052   2.051   9.364 -0.5810  1.1581  0.0071
 9823TIP3   OH250959   2.713   1.710   6.030  0.1662  0.4608 -0.1977
 9823TIP3    H150960   2.797   1.729   6.072  0.0404  1.4472 -0.3484
 9823TIP3    H250961   2.650   1.712   6.102  0.1318  0.8207 -0.2335
 9824TIP3   OH250962   0.391   0.354  46.747 -0.1184 -0.0410 -0.1985
 9824TIP3    H150963   0.317   0.384  46.800 -0.2943  0.0314 -0.4857
 9824TIP3    H250964   0.404   0.263  46.774  0.1023  0.1411  0.3136
 9825TIP3   OH250965   1.493   2.491  42.609 -0.1919 -0.1176 -0.2019
 9825TIP3    H150966   1.522   2.420  42.552  0.1060  0.6663 -1.0552
 9825TIP3    H250967   1.398   2.493  42.597 -0.4626 -1.5830  1.2944
 9826TIP3   OH250968   0.661   3.913  33.362  0.3882  0.1233 -0.0162
 9826TIP3    H150969   0.745   3.944  33.396  0.4972 -0.1973  0.0132
 9826TIP3    H250970   0.601   3.987  33.376  1.2401  1.3982 -2.4547
 9827TIP3   OH250971   1.219   1.133   1.972 -0.0797  0.2977  0.6063
 9827TIP3    H150972   1.134   1.177   1.964 -0.7325 -1.1661 -1.1700
 9827TIP3    H250973   1.205   1.067   2.040 -1.0040 -1.1773 -0.9291
 9828TIP3   OH250974   3.755   0.406  30.670  0.5306 -0.2934 -0.3967
 9828TIP3    H150975   3.705   0.350  30.729  0.2219  0.1506 -0.2356
 9828TIP3    H250976   3.837   0.424  30.717 -0.6784  2.0553  1.0018
 9829TIP3   OH250977   2.760   3.947  40.128 -0.2645 -0.0294  0.2281
 9829TIP3    H150978   2.681   3.894  40.138 -0.3178 -0.0108 -0.0766
 9829TIP3    H250979   2.832   3.887  40.148 -0.3164 -0.2692 -0.2752
 9830TIP3   OH250980   0.728   2.323  31.841  0.2116  0.0496  0.1627
 9830TIP3    H150981   0.788   2.249  31.849  0.0736  0.0473  1.5372
 9830TIP3    H250982   0.668   2.299  31.771  0.8889 -0.6141 -0.2011
 9831TIP3   OH250983   2.840   1.756   8.757  0.1396  0.1956  0.0626
 9831TIP3    H150984   2.924   1.802   8.756  0.6067 -0.3906  2.9886
 9831TIP3    H250985   2.780   1.815   8.803  0.1037 -1.0385  1.6953
 9832TIP3   OH250986   2.645   3.787  15.467  0.0654  0.6742 -0.0189
 9832TIP3    H150987   2.621   3.709  15.517 -0.8747  0.1882 -1.1522
 9832TIP3    H250988   2.701   3.754  15.396  0.9373  1.2653  0.3826
 9833TIP3   OH250989   1.501   3.951  11.196  0.2426 -0.5185 -0.1782
 9833TIP3    H150990   1.446   3.872  11.201  1.6663 -1.5792 -0.6181
 9833TIP3    H250991   1.582   3.921  11.155  0.4394  1.4135 -1.3098
 9834TIP3   OH250992   3.698   3.313   5.915 -0.0891 -0.3548 -0.3960
 9834TIP3    H150993   3.774   3.366   5.939  0.1752 -0.9959  0.2410
 9834TIP3    H250994   3.724   3.223   5.938 -0.3243 -0.8382 -1.8961
 9835TIP3   OH250995   0.608   1.046   0.324 -0.0352 -0.0974 -0.3200
 9835TIP3    H150996   0.644   1.045   0.413  0.5241  2.8282 -0.4303
 9835TIP3    H250997   0.654   1.117   0.280 -2.8073  0.9185 -1.8532
 9836TIP3   OH250998   2.648   0.375  36.465  0.2590 -0.0142  0.0738
 9836TIP3    H150999   2.557   0.394  36.446  0.1122 -0.6630  0.1060
 9836TIP3    H251000   2.689   0.360  36.380  0.3528  0.3563  0.0540
 9837TIP3   OH251001   3.719   1.079   8.687  0.3827  0.9742 -0.2382
 9837TIP3    H151002   3.782   1.008   8.681 -0.1793  0.4812 -0.3853
 9837TIP3    H251003   3.712   1.112   8.598  2.0402  2.4673  0.1291
 9838TIP3   OH251004   3.871   0.525  39.548  0.3415  0.3729 -0.4199
 9838TIP3    H151005   3.867   0.566  39.462  4.3552  0.0494 -0.9558
 9838TIP3    H251006   3.907   0.593  39.605  0.0028 -0.1502  0.4363
 9839TIP3   OH251007   3.379   3.357  15.254  0.8106 -0.1114 -0.1297
 9839TIP3    H151008   3.417   3.396  15.332  1.0215  0.2056 -0.3874
 9839TIP3    H251009   3.302   3.310  15.285  1.7284 -1.2581  0.4893
 9840TIP3   OH251010   1.869   2.838  11.297  0.0197 -0.0670 -0.5505
 9840TIP3    H151011   1.947   2.890  11.281  1.3077 -2.0848 -1.3003
 9840TIP3    H251012   1.797   2.891  11.264  1.3999  0.7437 -2.4207
 9841TIP3   OH251013   3.917   1.903  34.725  0.1730  0.0633 -0.4308
 9841TIP3    H151014   3.889   1.927  34.814  0.8007 -1.2948  0.1695
 9841TIP3    H251015   3.836   1.889  34.677 -0.1780  0.3822  0.0629
 9842TIP3   OH251016   1.637   3.090  31.915 -0.8201 -0.1142 -0.3267
 9842TIP3    H151017   1.681   3.004  31.916  0.5528  0.5263 -1.9275
 9842TIP3    H251018   1.573   3.083  31.844  0.1015  0.5225 -1.2549
 9843TIP3   OH251019   2.390   1.250   9.154 -0.5576 -0.0321  0.2053
 9843TIP3    H151020   2.469   1.269   9.203 -0.4330  1.1873 -0.4306
 9843TIP3    H251021   2.319   1.282   9.210 -0.6733 -1.5779  1.0009
 9844TIP3   OH251022   2.762   1.388  10.275  0.4814  0.6722  0.0334
 9844TIP3    H151023   2.728   1.433  10.198  1.0034  1.2109  0.1139
 9844TIP3    H251024   2.684   1.356  10.321  0.2049 -1.0290 -1.5246
 9845TIP3   OH251025   1.713   2.532   7.765 -0.0236 -0.5506  0.2617
 9845TIP3    H151026   1.736   2.623   7.779 -1.2262 -0.0146 -0.9695
 9845TIP3    H251027   1.729   2.517   7.672 -2.1454 -0.8414 -0.1094
 9846TIP3   OH251028   3.936   3.393  31.357 -0.0270 -0.1760  0.3454
 9846TIP3    H151029   3.877   3.320  31.342  1.0071 -0.7635 -1.0314
 9846TIP3    H251030   3.899   3.439  31.433 -0.3096 -2.5187  1.7071
 9847TIP3   OH251031   0.420   0.705  11.183 -0.4925 -0.4352 -0.0059
 9847TIP3    H151032   0.429   0.622  11.137  0.5577 -0.8751  0.9480
 9847TIP3    H251033   0.474   0.766  11.132 -1.9928 -0.0623 -1.2399
 9848TIP3   OH251034   2.632   0.448   9.396 -0.0656 -0.6003 -0.2645
 9848TIP3    H151035   2.703   0.496   9.354 -0.9234 -0.4683 -1.6106
 9848TIP3    H251036   2.553   0.483   9.356 -0.8028 -1.8933  0.0263
 9849TIP3   OH251037   1.307   1.815  43.388  0.0814 -0.1836 -0.4057
 9849TIP3    H151038   1.250   1.868  43.444 -1.3497 -2.0900  0.0837
 9849TIP3    H251039   1.379   1.873  43.364 -0.5021  1.4262  1.4585
 9850TIP3   OH251040   2.638   2.677  38.039 -0.5531  0.5308  0.6929
 9850TIP3    H151041   2.697   2.622  38.090  2.4974  0.7573 -2.2280
 9850TIP3    H251042   2.551   2.660  38.075  0.9467 -1.8727  3.5472
 9851TIP3   OH251043   3.545   1.393   3.158 -0.4974 -0.0627 -0.3096
 9851TIP3    H151044   3.641   1.394   3.166 -0.4151  0.1929 -1.2601
 9851TIP3    H251045   3.514   1.429   3.241  0.2646  1.1314 -0.5239
 9852TIP3   OH251046   0.689   3.201   1.334 -0.2843 -0.1309  0.1692
 9852TIP3    H151047   0.776   3.202   1.374 -0.9033 -0.7108  1.5918
 9852TIP3    H251048   0.682   3.115   1.293 -0.7979 -0.7486  1.5096
 9853TIP3   OH251049   1.069   0.312   7.846 -0.2233  0.7845 -0.4585
 9853TIP3    H151050   1.095   0.398   7.812  1.2641  0.6177  0.1788
 9853TIP3    H251051   1.096   0.251   7.778 -0.4457  0.7497 -0.5137
 9854TIP3   OH251052   0.240   1.548  11.064 -0.0957  0.2457 -0.1446
 9854TIP3    H151053   0.201   1.511  11.142  0.0442 -1.3154 -0.7826
 9854TIP3    H251054   0.333   1.555  11.084 -0.0089 -0.4652 -0.2687
 9855TIP3   OH251055   0.449   3.361  14.555 -0.0685 -0.1506 -0.7642
 9855TIP3    H151056   0.401   3.304  14.496 -0.9076  0.1879 -0.4144
 9855TIP3    H251057   0.389   3.432  14.575 -0.8095 -1.5242  2.5052
 9856TIP3   OH251058   3.908   1.748  36.661  0.1972  0.3969 -0.3443
 9856TIP3    H151059   3.962   1.701  36.726 -0.8712  0.1742  0.4096
 9856TIP3    H251060   3.827   1.769  36.708 -0.3291  0.8312 -1.4203
 9857TIP3   OH251061   2.023   2.832  40.360  0.3557 -0.2237 -0.0370
 9857TIP3    H151062   1.948   2.873  40.405  1.1739  0.9452  0.3061
 9857TIP3    H251063   2.080   2.906  40.337  2.7104 -1.2331  2.0957
 9858TIP3   OH251064   1.338   0.128   5.117  0.1275  0.0345 -0.0003
 9858TIP3    H151065   1.337   0.056   5.180 -0.2693 -0.2904 -0.3754
 9858TIP3    H251066   1.430   0.133   5.089 -0.1993 -1.9364 -1.7701
 9859TIP3   OH251067   0.127   1.713  16.506  0.2237 -0.1800  0.5975
 9859TIP3    H151068   0.036   1.703  16.477  0.3559 -0.0861  0.1402
 9859TIP3    H251069   0.163   1.624  16.503  0.5518 -0.0169 -0.6032
 9860TIP3   OH251070   0.338   0.076  39.553  0.6255 -0.4328  0.2759
 9860TIP3    H151071   0.266   0.126  39.590 -0.3811 -0.8370 -1.0389
 9860TIP3    H251072   0.397   0.060  39.626 -0.4762  0.1547  1.3270
 9861TIP3   OH251073   0.882   3.773  47.671 -0.4116  0.1952 -0.4826
 9861TIP3    H151074   0.825   3.809  47.602  0.1015  0.5392 -0.7319
 9861TIP3    H251075   0.864   3.827  47.748  1.0606  1.6525 -1.1121
 9862TIP3   OH251076   0.418   2.057  12.894 -0.4715  0.2046  0.3947
 9862TIP3    H151077   0.470   2.009  12.959 -2.1724 -0.1261  1.5838
 9862TIP3    H251078   0.480   2.120  12.856  0.4774  0.8507  2.7764
 9863TIP3   OH251079   1.012   3.784  32.966  1.1010  0.2168 -0.0495
 9863TIP3    H151080   0.937   3.783  32.907  1.3178 -2.0056 -0.3736
 9863TIP3    H251081   0.976   3.757  33.050  1.2005  1.1925  0.3224
 9864TIP3   OH251082   3.685   1.817   1.256 -0.6769  0.3471  0.2056
 9864TIP3    H151083   3.759   1.771   1.216 -0.2977 -0.6320  1.9320
 9864TIP3    H251084   3.709   1.910   1.249 -1.3821  0.4199 -3.1820
 9865TIP3   OH251085   1.453   2.962  32.198 -0.1534 -0.1111  0.4613
 9865TIP3    H151086   1.362   2.974  32.225 -0.5090  2.3563 -1.4195
 9865TIP3    H251087   1.450   2.888  32.137 -0.7514 -0.5438  1.0038
 9866TIP3   OH251088   1.360   3.191  12.688 -0.0771  0.5019  0.3878
 9866TIP3    H151089   1.266   3.209  12.692 -0.8122 -2.2282 -1.6027
 9866TIP3    H251090   1.367   3.109  12.639  3.3143  0.0415  1.3616
 9867TIP3   OH251091   2.305   3.053   9.693 -0.1836  0.0551 -0.0547
 9867TIP3    H151092   2.343   3.141   9.690  0.2172 -0.1252 -0.3660
 9867TIP3    H251093   2.282   3.040   9.785 -0.1624  0.4513  0.0077
 9868TIP3   OH251094   2.631   3.136  11.611  0.2937  0.2588 -0.1681
 9868TIP3    H151095   2.618   3.057  11.664 -0.8629 -0.1577 -1.0319
 9868TIP3    H251096   2.556   3.191  11.632  0.3216  0.4864 -0.6672
 9869TIP3   OH251097   0.013   0.002   0.808 -0.2255 -0.2447  0.2933
 9869TIP3    H151098   0.102   0.014   0.841  0.1984 -0.9124 -0.5599
 9869TIP3    H251099  -0.015   0.089   0.780  0.1286 -0.0180  0.6428
 9870TIP3   OH251100   0.228   1.981  35.157  0.3194  0.4651  0.0504
 9870TIP3    H151101   0.191   1.992  35.069 -0.2597  1.2537  0.3813
 9870TIP3    H251102   0.316   2.020  35.151  0.1783  0.7612 -0.1067
 9871TIP3   OH251103   4.039   0.039   6.767 -0.2829 -0.2144  0.2498
 9871TIP3    H151104   3.960   0.082   6.736  0.6387  1.1639 -0.2831
 9871TIP3    H251105   4.063   0.087   6.847  1.8289  1.6681 -1.3782
 9872TIP3   OH251106   3.314   0.444  31.638  0.6306  0.2065  0.5145
 9872TIP3    H151107   3.333   0.351  31.624  0.7378  0.2922  0.0674
 9872TIP3    H251108   3.398   0.488  31.624  0.5313  0.3924  0.4930
 9873TIP3   OH251109   0.304   1.531  36.152 -0.0828  0.0276 -0.3581
 9873TIP3    H151110   0.347   1.455  36.193  1.9833 -0.6323 -3.3618
 9873TIP3    H251111   0.223   1.496  36.115  0.5515 -0.6176 -1.1766
 9874TIP3   OH251112   2.172   3.172  25.773  0.3319 -0.3728  0.2752
 9874TIP3    H151113   2.107   3.141  25.709 -0.9853  3.2027 -0.3185
 9874TIP3    H251114   2.256   3.145  25.735 -0.5704 -4.4960  0.7080
 9875TIP3   OH251115   2.384   3.204   2.084 -0.4197 -0.3348 -0.3383
 9875TIP3    H151116   2.403   3.278   2.026 -0.5338  0.5866  0.7573
 9875TIP3    H251117   2.425   3.228   2.167  1.1905 -2.3786 -0.4703
 9876TIP3   OH251118   3.407   3.960  26.029  0.2566 -0.1968 -0.2633
 9876TIP3    H151119   3.435   4.023  25.963  1.6194 -1.6907 -1.1732
 9876TIP3    H251120   3.391   3.879  25.981 -2.3575 -0.3783  0.7426
 9877TIP3   OH251121   1.253   3.116  45.591  0.2683 -0.1015  0.0938
 9877TIP3    H151122   1.328   3.174  45.604  0.4557 -0.4949  0.8338
 9877TIP3    H251123   1.186   3.172  45.551  1.6342 -0.2197 -2.6066
 9878TIP3   OH251124   0.620   1.019   1.143 -0.4487 -0.2281  0.2414
 9878TIP3    H151125   0.533   0.985   1.123 -0.4235  0.3686 -0.9958
 9878TIP3    H251126   0.659   1.036   1.058  0.5313  0.3881  0.7927
 9879TIP3   OH251127   3.078   1.552  35.390 -0.5067  0.1603 -0.0717
 9879TIP3    H151128   3.108   1.529  35.302  2.2044 -1.9063  1.2205
 9879TIP3    H251129   3.157   1.545  35.445 -2.0263  1.6217  2.4997
 9880TIP3   OH251130   0.596   1.021   3.493 -0.0634 -0.3304  0.1670
 9880TIP3    H151131   0.518   0.991   3.446 -1.6760  4.0411 -0.4071
 9880TIP3    H251132   0.662   1.032   3.425  0.8913 -3.0860  0.5181
 9881TIP3   OH251133   0.665   0.896  38.164 -0.6823  0.1160 -0.5555
 9881TIP3    H151134   0.631   0.978  38.202 -0.5820  0.3438 -0.9444
 9881TIP3    H251135   0.691   0.921  38.075  2.2617  0.4145  0.2900
 9882TIP3   OH251136   2.830   1.894  41.476  0.7372 -0.1729  0.3907
 9882TIP3    H151137   2.831   1.825  41.409  2.6034  0.8445 -0.7081
 9882TIP3    H251138   2.803   1.849  41.556 -0.3857 -1.6774 -0.7736
 9883TIP3   OH251139   0.276   0.394  33.281  0.1459 -0.3026 -0.5009
 9883TIP3    H151140   0.352   0.447  33.257 -0.1340  0.3085 -0.0639
 9883TIP3    H251141   0.225   0.386  33.200  0.0556  0.3229 -0.5072
 9884TIP3   OH251142   0.085   0.390   4.511  0.2244  0.2169 -0.0214
 9884TIP3    H151143   0.003   0.377   4.558  0.2595  3.3977  1.1875
 9884TIP3    H251144   0.063   0.452   4.441  1.5804  1.3135  0.4705
 9885TIP3   OH251145   4.044   4.027  43.537 -0.6560 -0.0079 -0.3605
 9885TIP3    H151146   4.047   3.973  43.458  1.8977  1.5334 -1.4396
 9885TIP3    H251147   4.015   4.113  43.506 -2.2829 -0.0486  0.9066
 9886TIP3   OH251148   0.104   1.305  33.990 -0.4920  0.1414  0.3290
 9886TIP3    H151149   0.102   1.321  33.896  0.6655  0.2613  0.3170
 9886TIP3    H251150   0.015   1.325  34.020 -0.5832  1.1434 -0.5643
 9887TIP3   OH251151   0.934   0.065  45.013  0.8786 -0.2666 -0.6777
 9887TIP3    H151152   0.865   0.072  45.079 -0.6838  1.5486 -2.4002
 9887TIP3    H251153   0.907  -0.008  44.957  0.4305  0.3177 -1.2349
 9888TIP3   OH251154   1.130   2.483   0.170 -0.6583 -0.0010  0.0452
 9888TIP3    H151155   1.085   2.403   0.144 -2.7523  1.2276 -0.2739
 9888TIP3    H251156   1.112   2.546   0.100  0.8739  0.8158  0.3219
 9889TIP3   OH251157   1.779   0.898  37.759 -0.4897  0.3073 -0.4056
 9889TIP3    H151158   1.721   0.902  37.683  0.9659  0.1835 -1.5560
 9889TIP3    H251159   1.793   0.804  37.774  0.5184  0.3508 -1.0152
 9890TIP3   OH251160   0.540   0.105  32.377 -0.3152  0.0554 -0.4383
 9890TIP3    H151161   0.539   0.182  32.319 -1.2646 -0.1685 -0.7354
 9890TIP3    H251162   0.518   0.032  32.319  1.1077 -0.5393 -0.2699
 9891TIP3   OH251163   1.526   2.381   4.083  0.5271 -0.2330  0.1583
 9891TIP3    H151164   1.584   2.456   4.069  1.0333 -0.2272  2.0271
 9891TIP3    H251165   1.578   2.305   4.058  0.5283 -0.0690 -0.3435
 9892TIP3   OH251166   0.755   2.459  39.021  0.0962 -0.9706  0.5415
 9892TIP3    H151167   0.835   2.498  38.986  0.8061 -2.2733  0.6226
 9892TIP3    H251168   0.786   2.382  39.070 -1.2271 -1.7209  0.2463
 9893TIP3   OH251169   2.195   3.483   4.933  0.1065 -0.0349 -0.0311
 9893TIP3    H151170   2.250   3.414   4.971  0.8427  1.2396  1.3001
 9893TIP3    H251171   2.253   3.530   4.874 -0.7045 -1.2112 -1.8648
 9894TIP3   OH251172   1.888   1.225  31.290  0.2960  0.5559  0.3686
 9894TIP3    H151173   1.811   1.178  31.258  0.4123  0.0001  0.8874
 9894TIP3    H251174   1.883   1.311  31.248 -0.7051  0.5926  0.5441
 9895TIP3   OH251175   0.975   2.630   7.572  0.1010 -0.0447  0.2586
 9895TIP3    H151176   0.924   2.552   7.595 -1.6685  1.2371  0.9258
 9895TIP3    H251177   1.036   2.640   7.645 -0.2537 -0.3321  0.6017
 9896TIP3   OH251178   2.257   2.497   8.365 -0.6343  0.3759  0.0652
 9896TIP3    H151179   2.291   2.545   8.440  1.1887 -1.2253  0.3651
 9896TIP3    H251180   2.208   2.424   8.403 -1.3918  0.6594 -0.3419
 9897TIP3   OH251181   2.597   1.996  13.824 -0.5090  0.4404 -0.3347
 9897TIP3    H151182   2.566   2.081  13.794 -0.8212  0.3230 -0.3444
 9897TIP3    H251183   2.602   2.004  13.919  3.8814  2.0294 -0.4369
 9898TIP3   OH251184   3.195   3.133   3.929 -0.3983  0.4162 -0.1733
 9898TIP3    H151185   3.115   3.179   3.953  0.4287  1.5522  0.5343
 9898TIP3    H251186   3.246   3.131   4.011  1.0940  1.4295 -1.0201
 9899TIP3   OH251187   3.460   4.000  15.285 -0.6903 -0.0340  0.3468
 9899TIP3    H151188   3.389   3.937  15.290  0.0190 -0.8499  0.4651
 9899TIP3    H251189   3.503   3.982  15.201  0.4129 -0.7203  1.0359
 9900TIP3   OH251190   2.456   1.058   0.616  0.2338 -0.2405 -0.0611
 9900TIP3    H151191   2.416   0.974   0.637  2.3689 -1.0091  1.2019
 9900TIP3    H251192   2.534   1.035   0.566  0.0423  1.1120 -1.0462
 9901TIP3   OH251193   1.930   0.485  25.636 -0.0072 -0.3272 -0.0281
 9901TIP3    H151194   1.982   0.425  25.582 -1.2316 -0.0251 -1.6307
 9901TIP3    H251195   1.849   0.437  25.653 -0.6475  0.5187 -0.6122
 9902TIP3   OH251196   2.090   3.522  15.708 -0.0404 -0.0474 -0.6209
 9902TIP3    H151197   1.999   3.502  15.689  0.0943 -2.3843  0.8489
 9902TIP3    H251198   2.088   3.565  15.793  0.2819 -0.8315 -0.2135
 9903TIP3   OH251199   1.196   2.717   3.120 -0.0241 -0.4573  0.4253
 9903TIP3    H151200   1.283   2.755   3.108  0.6075 -0.5695  3.7109
 9903TIP3    H251201   1.174   2.736   3.211 -2.3417 -2.6832  0.4445
 9904TIP3   OH251202   2.136   0.651  10.393  0.1715  0.3641 -0.7820
 9904TIP3    H151203   2.132   0.720  10.327  0.1116  1.9967  0.8436
 9904TIP3    H251204   2.048   0.648  10.430  0.1914 -0.5584 -0.7900
 9905TIP3   OH251205   2.685   3.410  14.606 -0.2601  0.8278  0.0496
 9905TIP3    H151206   2.695   3.449  14.692 -1.8640 -0.0893  0.6934
 9905TIP3    H251207   2.762   3.439  14.557  1.2535  0.4483  2.1154
 9906TIP3   OH251208   2.728   0.909   7.387  0.2166 -0.5876 -0.3674
 9906TIP3    H151209   2.672   0.970   7.339 -0.1990 -0.8593 -0.2362
 9906TIP3    H251210   2.727   0.941   7.477 -2.0207 -2.1423  0.2608
 9907TIP3   OH251211   0.192   3.999   2.514 -0.3170  0.0756  0.5241
 9907TIP3    H151212   0.107   3.974   2.476 -0.6076 -1.1740  1.9061
 9907TIP3    H251213   0.255   3.984   2.443 -1.4608  3.6408 -1.4844
 9908TIP3   OH251214   3.142   3.445   0.979  0.0861 -0.6779 -0.1255
 9908TIP3    H151215   3.103   3.407   1.057 -0.8490  0.9417  0.2467
 9908TIP3    H251216   3.099   3.400   0.906  0.5418 -1.7799  0.2615
 9909TIP3   OH251217   3.568   0.248  15.009  0.1463  0.1140  0.1812
 9909TIP3    H151218   3.495   0.285  15.058 -0.6606 -2.2942  0.9365
 9909TIP3    H251219   3.573   0.157  15.038  2.2977 -0.2941 -1.2094
 9910TIP3   OH251220   3.608   0.387  15.441 -0.1352  0.2516 -0.1831
 9910TIP3    H151221   3.608   0.298  15.475 -2.2838 -0.2880 -1.4163
 9910TIP3    H251222   3.700   0.411  15.436  0.6348 -2.6005 -1.5748
 9911TIP3   OH251223   3.576   3.303  31.075 -0.4688 -0.0006 -0.2084
 9911TIP3    H151224   3.516   3.232  31.052 -0.8815 -0.3734  1.8155
 9911TIP3    H251225   3.652   3.259  31.112 -0.8630  0.5892  1.3606
 9912TIP3   OH251226   1.824   1.063   8.403  0.1941  0.2501  0.2157
 9912TIP3    H151227   1.846   0.993   8.464 -3.5717  0.0825  1.6470
 9912TIP3    H251228   1.795   1.018   8.323 -0.7163  0.1740  0.5727
 9913TIP3   OH251229   3.702   0.786  38.125 -0.9028  0.0954  0.3379
 9913TIP3    H151230   3.730   0.709  38.174 -0.1224  1.1267  1.5631
 9913TIP3    H251231   3.769   0.798  38.058 -1.1059 -0.3647  0.0483
 9914TIP3   OH251232   1.742   2.388  33.095 -0.6366  0.4658 -0.3609
 9914TIP3    H151233   1.756   2.365  33.187 -1.9615  0.8879 -0.0245
 9914TIP3    H251234   1.650   2.414  33.091 -1.0744 -1.1506 -2.1481
 9915TIP3   OH251235   1.060   3.153  37.907  0.3603  0.1097  0.1195
 9915TIP3    H151236   1.121   3.209  37.860 -0.4533  0.2275 -0.8507
 9915TIP3    H251237   1.047   3.078  37.848 -1.7500  0.9215 -0.5330
 9916TIP3   OH251238   0.788   1.631  41.477  0.3330  0.0063  0.3573
 9916TIP3    H151239   0.838   1.619  41.558  2.1073  0.0439 -0.6804
 9916TIP3    H251240   0.805   1.721  41.451 -1.1149  0.3408  0.4769
 9917TIP3   OH251241   1.315   1.373  15.358 -0.3330  0.2373 -0.2801
 9917TIP3    H151242   1.393   1.384  15.302 -0.3800  1.2411 -0.1661
 9917TIP3    H251243   1.327   1.287  15.397  1.4407  0.9139  0.7998
 9918TIP3   OH251244   0.906   2.227  39.109  0.2956  0.1262  0.6692
 9918TIP3    H151245   0.997   2.232  39.077  0.3160 -0.0428  0.7010
 9918TIP3    H251246   0.912   2.248  39.202  0.5226 -1.4209  1.0426
 9919TIP3   OH251247   1.963   1.363  47.304 -0.0837 -0.0253 -0.0827
 9919TIP3    H151248   2.011   1.287  47.271 -0.6761 -0.9431  1.0940
 9919TIP3    H251249   2.002   1.438  47.259  0.6587 -0.9951 -1.1081
 9920TIP3   OH251250   2.122   1.350  10.934  0.0304 -0.3683 -0.0426
 9920TIP3    H151251   2.114   1.332  10.841 -1.2322  0.4794 -0.1126
 9920TIP3    H251252   2.151   1.441  10.940  0.6186 -0.5740  0.3933
 9921TIP3   OH251253   0.489   4.093  33.517  0.3793 -0.1455 -0.4366
 9921TIP3    H151254   0.432   4.162  33.481  1.1935  1.7549  1.6722
 9921TIP3    H251255   0.559   4.141  33.561  2.2866 -2.4059 -0.8446
 9922TIP3   OH251256   3.020   1.660   2.473 -0.5462 -0.1583  0.1607
 9922TIP3    H151257   2.977   1.648   2.389 -0.2541 -0.0798  0.0005
 9922TIP3    H251258   2.981   1.739   2.510 -1.0885 -0.5073  0.3596
 9923TIP3   OH251259   0.673   0.547  32.902  1.0624 -0.2506  0.1555
 9923TIP3    H151260   0.614   0.533  32.828  1.5815 -1.0710 -0.1176
 9923TIP3    H251261   0.717   0.630  32.883  1.3221 -0.5480 -0.5424
 9924TIP3   OH251262   4.004   4.032   3.114 -0.0085 -0.5987 -0.1245
 9924TIP3    H151263   3.920   3.986   3.111 -0.3712  0.0802 -0.7155
 9924TIP3    H251264   4.012   4.073   3.027  0.6625 -0.1818  0.1272
 9925TIP3   OH251265   1.596   3.749   4.637 -0.2655  0.5103 -1.0580
 9925TIP3    H151266   1.531   3.773   4.703  0.6590  1.2645 -0.3970
 9925TIP3    H251267   1.649   3.828   4.626 -0.7463  0.6138 -3.1586
 9926TIP3   OH251268   2.101   2.981  41.307 -0.5957  0.1529  0.3770
 9926TIP3    H151269   2.066   3.064  41.273 -2.7421 -0.3901  1.1201
 9926TIP3    H251270   2.138   3.004  41.392 -0.0561  0.5402  0.0469
 9927TIP3   OH251271   3.855   0.506  13.387 -0.0131 -0.5792 -0.1623
 9927TIP3    H151272   3.803   0.523  13.465 -1.2469 -1.2784 -0.8057
 9927TIP3    H251273   3.904   0.587  13.372 -1.8976  0.5846 -0.2672
 9928TIP3   OH251274   0.980   3.659  13.172 -0.4705 -0.1051 -0.1214
 9928TIP3    H151275   1.073   3.673  13.159 -0.2228  1.4625  2.5720
 9928TIP3    H251276   0.975   3.579  13.225 -0.7764 -0.6978 -1.0052
 9929TIP3   OH251277   2.975   2.207  34.451 -0.2344 -0.7091  0.4836
 9929TIP3    H151278   3.035   2.163  34.391  1.5375  0.6261  1.1764
 9929TIP3    H251279   3.002   2.178  34.538  0.0201  0.5944  0.8602
 9930TIP3   OH251280   2.357   1.367  39.515 -0.0425 -0.4079  0.4981
 9930TIP3    H151281   2.304   1.338  39.440 -2.2105  0.8593  1.4601
 9930TIP3    H251282   2.314   1.329  39.591  1.1414 -0.2914  1.2506
 9931TIP3   OH251283   0.871   0.405   9.574 -0.1165 -0.0705  0.2912
 9931TIP3    H151284   0.871   0.463   9.498 -1.7364 -1.3622 -0.7546
 9931TIP3    H251285   0.796   0.434   9.626 -0.7325 -0.9866 -0.0698
 9932TIP3   OH251286   3.148   2.994  37.742 -0.2420 -0.2181  0.1969
 9932TIP3    H151287   3.140   3.087  37.724  0.3724 -0.7837 -4.2827
 9932TIP3    H251288   3.243   2.978  37.744 -0.3414 -0.7499  1.0748
 9933TIP3   OH251289   0.742   1.546   4.427  0.6607  0.3801 -0.1718
 9933TIP3    H151290   0.659   1.578   4.391  0.4100 -0.0586  0.0074
 9933TIP3    H251291   0.759   1.465   4.379 -0.3577 -0.9300  1.5644
 9934TIP3   OH251292   3.940   0.974  33.228 -0.6065 -0.2584  0.1419
 9934TIP3    H151293   3.925   0.982  33.322 -0.5555 -1.1590  0.2284
 9934TIP3    H251294   3.925   1.063  33.195  0.0804  0.2371  1.0909
 9935TIP3   OH251295   3.823   2.773   3.938  0.0674 -0.0785 -0.6364
 9935TIP3    H151296   3.914   2.803   3.934  0.6610 -1.2512  2.2680
 9935TIP3    H251297   3.772   2.854   3.930  1.4047  0.8334 -0.3744
 9936TIP3   OH251298   3.015   1.049  43.154 -0.3174 -0.0480  0.2838
 9936TIP3    H151299   2.931   1.094  43.142  0.1196  0.2855 -1.9753
 9936TIP3    H251300   3.051   1.042  43.066  1.0960 -2.0513  0.9493
 9937TIP3   OH251301   2.368   3.497  47.618 -0.4232  0.7771 -0.0998
 9937TIP3    H151302   2.379   3.557  47.544 -0.8450 -0.5975 -1.3218
 9937TIP3    H251303   2.284   3.455  47.602  0.8279 -1.7417 -0.4948
 9938TIP3   OH251304   3.760   0.029  14.338  0.0091  0.2378  0.3099
 9938TIP3    H151305   3.665   0.018  14.340 -0.0007  0.2321 -0.1391
 9938TIP3    H251306   3.776   0.102  14.397 -0.1461 -0.5954  1.4251
 9939TIP3   OH251307   1.782   2.103  13.926  0.0118  0.4631 -0.3835
 9939TIP3    H151308   1.838   2.025  13.928  1.7869  1.5820 -2.4349
 9939TIP3    H251309   1.719   2.086  13.857 -0.7458  0.1516  0.3702
 9940TIP3   OH251310   3.375   1.479  16.021 -0.0961 -0.3541  0.4868
 9940TIP3    H151311   3.360   1.385  16.012 -1.1439 -0.0673 -1.3674
 9940TIP3    H251312   3.306   1.508  16.081  0.9511 -0.9102  2.0032
 9941TIP3   OH251313   1.618   2.055  31.681  0.6129  0.1707 -0.0265
 9941TIP3    H151314   1.560   2.085  31.611 -0.5742  1.6519  1.5040
 9941TIP3    H251315   1.585   1.969  31.705 -0.2867  0.5313  0.0719
 9942TIP3   OH251316   1.431   1.978   7.655 -0.1106 -0.7275 -0.2122
 9942TIP3    H151317   1.434   1.988   7.750 -0.5828 -0.1272 -0.2578
 9942TIP3    H251318   1.518   2.002   7.625 -0.7232  1.7776 -0.1714
 9943TIP3   OH251319   2.904   2.062  20.689  0.4358 -0.6341  0.4790
 9943TIP3    H151320   2.905   2.063  20.593  0.7015  0.5185  0.4830
 9943TIP3    H251321   2.966   2.130  20.714 -1.6607  1.0170  1.4478
 9944TIP3   OH251322   3.425   3.829  26.355 -0.3615  0.3488 -0.0296
 9944TIP3    H151323   3.367   3.758  26.329 -0.5905 -0.2563  1.9872
 9944TIP3    H251324   3.382   3.908  26.323 -0.9437 -0.2759 -0.8466
 9945TIP3   OH251325   2.293   3.177  40.856  0.2417 -0.2682 -0.0934
 9945TIP3    H151326   2.338   3.101  40.819 -1.6015 -1.7110  0.4415
 9945TIP3    H251327   2.278   3.235  40.781  0.8391 -0.8855 -0.6993
 9946TIP3   OH251328   2.819   1.234  34.263 -0.0442  0.6547 -0.0259
 9946TIP3    H151329   2.826   1.139  34.251  0.7383  0.5641  0.9951
 9946TIP3    H251330   2.847   1.271  34.180 -0.0659 -0.0055 -0.3337
 9947TIP3   OH251331   3.430   1.317  12.333 -0.2800  0.0885  0.0388
 9947TIP3    H151332   3.495   1.249  12.350 -1.6576 -0.9272  1.4683
 9947TIP3    H251333   3.479   1.386  12.288  1.3767 -1.3974 -0.5319
 9948TIP3   OH251334   1.931   3.829  14.310 -0.0537 -0.5731  0.1462
 9948TIP3    H151335   1.963   3.774  14.239  0.4734  1.0685 -0.9421
 9948TIP3    H251336   2.009   3.866  14.349 -0.3889 -0.7870  1.0441
 9949TIP3   OH251337   0.389   1.778  45.817 -0.0471 -0.0232  0.5153
 9949TIP3    H151338   0.379   1.864  45.775 -0.9046  0.2380  1.2247
 9949TIP3    H251339   0.449   1.731  45.759 -1.3042  0.2613 -1.1189
 9950TIP3   OH251340   3.433   0.843  10.260 -0.0109  0.0934  0.3414
 9950TIP3    H151341   3.512   0.882  10.297 -1.7886  2.9589  1.4285
 9950TIP3    H251342   3.424   0.884  10.174 -0.8259  0.5571  0.6422
 9951TIP3   OH251343   1.357   3.504   1.524  0.1304 -0.3521  0.3740
 9951TIP3    H151344   1.422   3.573   1.536 -0.1389  0.3846 -1.8779
 9951TIP3    H251345   1.409   3.425   1.510  0.4847 -0.2375  1.0167
 9952TIP3   OH251346   3.252   0.861   4.430 -0.0445  0.5692  0.9818
 9952TIP3    H151347   3.189   0.933   4.433 -0.9322 -0.1438  0.1447
 9952TIP3    H251348   3.264   0.844   4.337  1.6976  0.9283  1.1127
 9953TIP3   OH251349   4.030   2.749  41.694 -0.1431  0.1712 -0.2433
 9953TIP3    H151350   4.013   2.762  41.787  0.9797  0.3720 -0.0576
 9953TIP3    H251351   4.121   2.776  41.681 -0.6131  1.2124 -1.6168
 9954TIP3   OH251352   3.568   0.799  44.482  0.1446 -0.3320  0.2640
 9954TIP3    H151353   3.514   0.751  44.545  0.8099 -1.6038 -0.0914
 9954TIP3    H251354   3.657   0.793  44.517  0.3148  0.2209 -0.0547
 9955TIP3   OH251355   3.654   0.212  38.993 -0.6192 -0.1678  0.5862
 9955TIP3    H151356   3.574   0.184  38.949 -2.3893  1.4542  2.5362
 9955TIP3    H251357   3.686   0.285  38.940  1.7006 -2.8889 -2.1648
 9956TIP3   OH251358   3.178   0.676  31.445 -0.0334  0.2372 -0.2270
 9956TIP3    H151359   3.172   0.620  31.367 -0.1845 -0.8697  0.5448
 9956TIP3    H251360   3.175   0.614  31.518 -1.2352  1.3478  0.6987
 9957TIP3   OH251361   1.793   1.697  42.071  0.2675 -0.0495  0.0815
 9957TIP3    H151362   1.863   1.749  42.031  1.6492  0.9405  3.4413
 9957TIP3    H251363   1.831   1.610  42.083  1.2032  0.5957  2.2794
 9958TIP3   OH251364   1.003   4.046  10.270 -0.2096  0.3633 -0.0204
 9958TIP3    H151365   0.971   3.989  10.201 -0.7622  2.2823 -1.4263
 9958TIP3    H251366   0.974   4.004  10.351 -1.7904 -0.6285 -1.0492
 9959TIP3   OH251367   1.735   3.868  44.873 -0.2614 -0.1057  0.3263
 9959TIP3    H151368   1.717   3.941  44.813 -2.0741 -0.3564  0.5170
 9959TIP3    H251369   1.791   3.809  44.822  1.0844  1.2930  0.1046
 9960TIP3   OH251370   1.848   4.104  24.503  0.6476 -0.5198 -0.5209
 9960TIP3    H151371   1.862   4.194  24.534  0.7607 -0.8229  0.3458
 9960TIP3    H251372   1.829   4.113  24.410  0.2172  0.4430 -0.3509
 9961TIP3   OH251373   3.537   0.856  11.358 -0.0348  0.4523  0.4652
 9961TIP3    H151374   3.619   0.902  11.343  0.0133  1.0827  2.4027
 9961TIP3    H251375   3.519   0.868  11.451 -0.3136 -2.9770  0.9833
 9962TIP3   OH251376   0.479   2.741  47.381 -0.0939  0.4536 -0.0390
 9962TIP3    H151377   0.524   2.781  47.307  0.7140 -2.0033 -0.9824
 9962TIP3    H251378   0.386   2.754  47.363 -0.0520 -1.9502 -2.7753
 9963TIP3   OH251379   4.091   1.453   9.350  0.1327  0.1798  0.1869
 9963TIP3    H151380   4.006   1.412   9.331  0.4530 -0.3287 -0.1960
 9963TIP3    H251381   4.119   1.490   9.266  0.9438 -0.9178 -0.0518
 9964TIP3   OH251382   4.049   2.546  13.121 -0.1810  0.1017 -0.1904
 9964TIP3    H151383   3.967   2.498  13.114 -0.6826  0.8193  0.6206
 9964TIP3    H251384   4.086   2.519  13.205  0.5359 -0.3880 -0.6479
 9965TIP3   OH251385   0.974   3.293  36.996  0.3277 -0.4074 -0.3856
 9965TIP3    H151386   0.984   3.368  36.937 -0.9241 -0.1213 -0.2551
 9965TIP3    H251387   0.883   3.265  36.984 -0.0725 -0.1503  1.6084
 9966TIP3   OH251388   3.654   1.834  46.675 -0.0800  0.9720  0.2473
 9966TIP3    H151389   3.568   1.822  46.634  0.4319  0.7445 -0.8061
 9966TIP3    H251390   3.658   1.768  46.743 -0.2313  0.0916 -0.5761
 9967TIP3   OH251391   4.075   2.330  14.410  0.4766  0.1895  0.3299
 9967TIP3    H151392   4.095   2.313  14.502  0.6136 -3.2274 -0.2094
 9967TIP3    H251393   4.159   2.358  14.373  1.5803 -2.5934  0.4737
 9968TIP3   OH251394   1.295   2.182  35.013 -0.4164  0.1998 -0.0203
 9968TIP3    H151395   1.344   2.110  34.973  0.8265  1.3060 -0.5778
 9968TIP3    H251396   1.321   2.181  35.105 -0.1261  0.1469 -0.1037
 9969TIP3   OH251397   0.443   3.181   0.162  0.1394  0.0723 -0.2188
 9969TIP3    H151398   0.522   3.129   0.178 -0.2805 -0.2566  0.8688
 9969TIP3    H251399   0.407   3.146   0.081 -0.4518 -1.7984  0.7730
 9970TIP3   OH251400   3.181   2.928   9.610  0.1857 -0.5202  0.2576
 9970TIP3    H151401   3.132   2.943   9.529 -0.0563 -0.1043  0.4781
 9970TIP3    H251402   3.177   2.834   9.623 -1.3346 -0.4094  0.7578
 9971TIP3   OH251403   1.411   0.679  40.004 -0.2961 -0.1023 -0.0759
 9971TIP3    H151404   1.491   0.730  39.998 -0.7429  0.7052  0.7394
 9971TIP3    H251405   1.341   0.741  39.982 -0.7421 -0.6705 -0.2865
 9972TIP3   OH251406   0.287   1.802  46.257  0.1357  0.2076  0.1166
 9972TIP3    H151407   0.366   1.841  46.293  0.0998 -2.0710  3.1423
 9972TIP3    H251408   0.218   1.865  46.278  0.7131  0.7466  0.4315
 9973TIP3   OH251409   1.562   3.654  14.866  0.0446  0.3098  0.2614
 9973TIP3    H151410   1.534   3.681  14.954  0.2061  0.4934  0.2567
 9973TIP3    H251411   1.582   3.736  14.821  2.9233  0.1309  1.0279
 9974TIP3   OH251412   3.961   1.075  39.671  0.2319 -0.5282  0.3762
 9974TIP3    H151413   4.046   1.101  39.636 -0.2580  3.0881  1.4905
 9974TIP3    H251414   3.920   1.025  39.601  1.1082  2.4318 -2.4793
 9975TIP3   OH251415   2.249   2.118  47.620  0.2865 -0.2749 -0.3545
 9975TIP3    H151416   2.173   2.110  47.563 -1.0249 -0.3602  1.3349
 9975TIP3    H251417   2.231   2.060  47.693  1.5597  0.4175  0.5565
 9976TIP3   OH251418   1.589   1.275  46.353 -0.4548 -0.4007 -0.5598
 9976TIP3    H151419   1.530   1.350  46.362 -4.1117 -2.9693 -0.8411
 9976TIP3    H251420   1.616   1.276  46.261 -0.0702  0.7736 -0.4528
 9977TIP3   OH251421   1.981   1.068  45.909 -0.3037 -0.2612  0.1272
 9977TIP3    H151422   2.064   1.027  45.887 -0.9650 -1.5541 -0.1114
 9977TIP3    H251423   1.915   1.008  45.873 -1.3350  1.2032 -0.5411
 9978TIP3   OH251424   1.108   2.397   6.330  0.0348  0.3750  0.6184
 9978TIP3    H151425   1.140   2.479   6.290  2.1790 -0.2304  0.9753
 9978TIP3    H251426   1.017   2.416   6.353  0.4500  2.6459  0.6449
 9979TIP3   OH251427   3.323   3.820   8.379  0.3320  0.1403  0.6629
 9979TIP3    H151428   3.342   3.908   8.412 -3.6142  0.8593  1.6051
 9979TIP3    H251429   3.284   3.835   8.293  0.4934 -0.7744  0.4223
 9980TIP3   OH251430   0.110   1.574  46.290 -0.4438  0.4688 -0.1387
 9980TIP3    H151431   0.177   1.641  46.275 -0.0199  0.1816  0.4282
 9980TIP3    H251432   0.125   1.545  46.381 -1.0290  0.0642 -0.1657
 9981TIP3   OH251433   3.181   3.475  10.257  0.3600 -0.4400 -0.1330
 9981TIP3    H151434   3.127   3.397  10.266  0.6316 -0.3962  2.8299
 9981TIP3    H251435   3.147   3.535  10.323  2.2304  0.6706 -0.1202
 9982TIP3   OH251436   4.028   3.114  36.584 -0.1775 -0.4326  0.1074
 9982TIP3    H151437   4.020   3.155  36.498  0.7304 -2.2454 -0.8914
 9982TIP3    H251438   4.116   3.135  36.613 -0.7074  0.7336  0.9244
 9983TIP3   OH251439   2.637   0.484  37.141  0.1784  0.0320 -0.2058
 9983TIP3    H151440   2.683   0.411  37.182 -1.2061  0.5192  2.3687
 9983TIP3    H251441   2.547   0.454  37.132  0.1804  0.4150 -1.8274
 9984TIP3   OH251442   3.697   1.298  32.152 -0.0347  0.1829  0.5112
 9984TIP3    H151443   3.746   1.234  32.204  0.3641 -0.7046 -0.9055
 9984TIP3    H251444   3.762   1.334  32.092 -0.4865  1.2061  0.6107
 9985TIP3   OH251445   3.410   0.351  12.497  0.0118 -0.3796  0.0446
 9985TIP3    H151446   3.423   0.426  12.439  0.1618 -1.0098 -0.7685
 9985TIP3    H251447   3.329   0.310  12.466  0.6680 -1.3534 -0.4663
 9986TIP3   OH251448   3.035   1.940  37.836  0.3128  0.5067  0.2291
 9986TIP3    H151449   2.986   1.942  37.754  2.7438  1.0909 -1.3302
 9986TIP3    H251450   2.994   1.871  37.887 -2.0255  0.9099 -0.9484
 9987TIP3   OH251451   0.760   1.272  37.656 -0.2671 -0.0367  0.4758
 9987TIP3    H151452   0.764   1.295  37.749 -2.0264  0.3609  0.4852
 9987TIP3    H251453   0.852   1.261  37.630  0.2895  0.5723  2.0735
 9988TIP3   OH251454   3.989   3.180   3.571  0.1472  0.1273  0.2090
 9988TIP3    H151455   3.982   3.274   3.586  1.4077  0.3842 -0.7070
 9988TIP3    H251456   4.043   3.172   3.493 -2.7596 -1.2852 -1.8381
 9989TIP3   OH251457   0.587   3.366  38.298 -0.3335  0.3901 -0.1814
 9989TIP3    H151458   0.507   3.325  38.267 -0.4528  0.0962  0.4818
 9989TIP3    H251459   0.559   3.418  38.374  0.6073 -2.8075  2.5974
 9990TIP3   OH251460   1.482   3.120  36.334 -0.3382  0.8102 -0.4919
 9990TIP3    H151461   1.417   3.175  36.378 -1.3643 -0.7052 -0.0323
 9990TIP3    H251462   1.521   3.069  36.404 -1.0787 -0.7137 -1.1483
 9991TIP3   OH251463   1.971   0.661   4.264  0.4633  0.7430 -0.3741
 9991TIP3    H151464   2.010   0.748   4.264  1.7852  0.1941  0.8285
 9991TIP3    H251465   2.002   0.621   4.345 -2.1359  0.0230  0.3467
 9992TIP3   OH251466   1.358   3.042  11.380 -0.0552 -0.4407 -0.3674
 9992TIP3    H151467   1.375   3.110  11.316 -0.8270  0.4909  0.3869
 9992TIP3    H251468   1.303   2.979  11.334 -0.3397  0.0554 -0.7177
 9993TIP3   OH251469   3.083   3.153  14.445  0.2492 -0.0441  0.0543
 9993TIP3    H151470   3.136   3.168  14.524  0.5090  2.5564 -0.5451
 9993TIP3    H251471   3.132   3.086  14.396  1.6237  0.4180  0.7304
 9994TIP3   OH251472   2.177   0.279   4.083  0.0593 -0.0082  0.3080
 9994TIP3    H151473   2.089   0.309   4.106 -0.1119  0.0012 -0.3573
 9994TIP3    H251474   2.208   0.341   4.017  0.0398 -0.7893 -0.4445
 9995TIP3   OH251475   0.920   2.869  13.459  0.3578  0.6782  0.0192
 9995TIP3    H151476   0.914   2.775  13.441  0.4757  0.5014  0.8277
 9995TIP3    H251477   0.870   2.880  13.541 -1.5147  1.6771 -1.1835
 9996TIP3   OH251478   2.161   1.038   0.900  0.5407  0.5734  0.6724
 9996TIP3    H151479   2.250   1.025   0.933  1.9340  0.7767 -2.6081
 9996TIP3    H251480   2.169   1.110   0.838 -1.8421  0.2871 -0.0665
 9997TIP3   OH251481   2.958   3.869   9.606 -0.1524 -0.1977 -1.3251
 9997TIP3    H151482   2.992   3.781   9.588  0.2319  0.0804 -1.9950
 9997TIP3    H251483   3.025   3.928   9.572 -0.6115  0.3607 -1.2818
 9998TIP3   OH251484   0.917   3.472  32.997  0.1479  0.3895 -0.0146
 9998TIP3    H151485   0.822   3.476  33.004  0.0493 -0.8352 -0.5005
 9998TIP3    H251486   0.937   3.525  32.920 -0.3091 -0.7406 -0.9411
 9999TIP3   OH251487   0.773   3.883  15.589 -0.5838  0.4894 -0.1280
 9999TIP3    H151488   0.699   3.835  15.550  0.1157 -1.4847  0.8302
 9999TIP3    H251489   0.849   3.854  15.540 -0.3468  2.0919 -0.7422
10000TIP3   OH251490   3.566   1.412   9.726 -0.4094  0.6634  0.1309
10000TIP3    H151491   3.477   1.391   9.697 -0.3773 -0.1249  0.5684
10000TIP3    H251492   3.585   1.347   9.794  0.7952  0.3062 -0.5130
10001TIP3   OH251493   2.295   3.745  47.043 -0.2037  0.4226 -0.2462
10001TIP3    H151494   2.368   3.804  47.022 -0.8579  0.8502 -1.4041
10001TIP3    H251495   2.223   3.775  46.988 -0.2797 -2.0581 -1.6557
10002TIP3   OH251496   2.751   1.893  39.502 -0.5811 -0.0768 -0.8667
10002TIP3    H151497   2.792   1.806  39.501 -0.9349 -0.2800  0.2652
10002TIP3    H251498   2.825   1.954  39.506 -0.3471 -0.3818 -0.3391
10003TIP3   OH251499   1.245   3.270  14.569 -0.1970 -0.3336  0.3422
10003TIP3    H151500   1.169   3.301  14.618 -0.4868 -2.0839  1.0768
10003TIP3    H251501   1.249   3.327  14.492 -1.6015  0.4740  0.8311
10004TIP3   OH251502   1.546   1.514   0.987  0.2016  0.3978 -0.1925
10004TIP3    H151503   1.461   1.512   0.944  0.0402  1.0376  0.0835
10004TIP3    H251504   1.540   1.585   1.050  0.0561 -1.2228  1.7073
10005TIP3   OH251505   3.622   0.364  33.760  0.5395 -0.1922  0.8014
10005TIP3    H151506   3.565   0.339  33.833  0.1034 -2.6626 -0.2620
10005TIP3    H251507   3.687   0.294  33.756  0.8427  0.1475 -0.8687
10006TIP3   OH251508   3.859   3.487  40.682  0.1788 -0.2874  0.2445
10006TIP3    H151509   3.772   3.508  40.716  1.3061  1.8955  2.1549
10006TIP3    H251510   3.898   3.431  40.749  1.5893  2.1008  1.5722
10007TIP3   OH251511   4.108   2.300   7.557 -0.7476  0.1614  0.4599
10007TIP3    H151512   4.109   2.372   7.494  2.3443  0.5776  0.8685
10007TIP3    H251513   4.136   2.340   7.639 -1.0665 -1.1120  1.2160
10008TIP3   OH251514   0.437   1.083  36.704  0.5116 -0.1777  0.0293
10008TIP3    H151515   0.395   1.121  36.627  0.2193  0.2362  0.3893
10008TIP3    H251516   0.426   0.988  36.694 -0.6159 -0.0710  0.1774
10009TIP3   OH251517   1.448   2.605  34.459 -0.5174 -0.5827  0.7124
10009TIP3    H151518   1.483   2.645  34.379  0.3224 -3.7414 -0.6872
10009TIP3    H251519   1.413   2.520  34.430 -1.1954 -1.3807  3.5446
10010TIP3   OH251520   2.122   3.295   4.272 -0.3673  0.0468  0.2437
10010TIP3    H151521   2.182   3.246   4.216 -2.0277 -1.8555  0.0363
10010TIP3    H251522   2.140   3.264   4.360 -0.8261 -0.2724  0.2227
10011TIP3   OH251523   0.393   1.091  10.328 -0.6067  0.0039  0.1998
10011TIP3    H151524   0.442   1.122  10.252 -0.0688  2.4024  1.4255
10011TIP3    H251525   0.339   1.020  10.294  0.7790 -0.0673 -2.0593
10012TIP3   OH251526   2.850   2.455  11.942  0.3798  0.2190  0.1130
10012TIP3    H151527   2.932   2.488  11.906 -0.7130  2.8037 -0.2286
10012TIP3    H251528   2.834   2.373  11.895  1.1098  1.3734 -2.3177
10013TIP3   OH251529   0.074   2.068  13.836 -0.0359  0.8784 -0.5735
10013TIP3    H151530   0.023   2.063  13.917  0.1989  1.0212 -0.4164
10013TIP3    H251531   0.119   1.984  13.830 -0.5352  0.6304 -0.8748
10014TIP3   OH251532   0.584   1.987   2.334 -0.4487  0.1966  0.0142
10014TIP3    H151533   0.664   1.983   2.386 -0.3595  0.3286 -0.1144
10014TIP3    H251534   0.528   1.919   2.371 -0.2614  0.0780  0.0781
10015TIP3   OH251535   2.114   2.994   2.281 -0.1772  0.2963 -0.4430
10015TIP3    H151536   2.185   2.956   2.230 -0.9900 -1.6705 -0.2063
10015TIP3    H251537   2.158   3.042   2.351  1.0041 -1.7322  0.3140
10016TIP3   OH251538   2.694   3.811  10.415  0.3426  0.1615 -0.1418
10016TIP3    H151539   2.609   3.849  10.437  0.2353 -1.5802  3.0417
10016TIP3    H251540   2.757   3.880  10.437 -0.1249  0.8220 -0.8122
10017TIP3   OH251541   1.116   1.582  43.691  0.0684  0.5407 -0.0463
10017TIP3    H151542   1.021   1.569  43.682  0.0541  1.0284 -0.7173
10017TIP3    H251543   1.151   1.560  43.605  0.9766 -2.8476  1.0386
10018TIP3   OH251544   1.915   1.836  14.419 -0.2313  0.3808 -0.9016
10018TIP3    H151545   1.937   1.897  14.489 -1.3552 -0.1797 -0.0250
10018TIP3    H251546   1.839   1.788  14.452 -1.4470  0.7978 -2.9290
10019TIP3   OH251547   2.764   3.252  42.761  0.2097  0.4656 -0.3982
10019TIP3    H151548   2.742   3.201  42.683 -2.4076  0.3017  0.3539
10019TIP3    H251549   2.729   3.200  42.834  2.2115  0.8116  0.8819
10020TIP3   OH251550   0.231   1.464  16.505 -0.1451  0.0733  0.0354
10020TIP3    H151551   0.184   1.444  16.586  0.0732  0.4406  0.2577
10020TIP3    H251552   0.273   1.381  16.481 -0.7656 -0.2089 -0.0707
10021TIP3   OH251553   3.054   1.955  46.276  0.0911 -0.7898 -0.0811
10021TIP3    H151554   3.024   1.878  46.228 -1.1373 -0.1350 -0.3722
10021TIP3    H251555   3.078   2.018  46.209  0.9157 -0.8302  0.1628
10022TIP3   OH251556   3.926   2.857  33.351 -0.1817  0.2971  0.0493
10022TIP3    H151557   3.911   2.765  33.370  0.4245  0.0245 -0.7172
10022TIP3    H251558   4.016   2.874  33.379  0.5276  0.0343 -1.8744
10023TIP3   OH251559   3.016   3.991  44.866  0.2689 -0.6816 -0.3750
10023TIP3    H151560   2.970   4.035  44.937  0.0034 -1.7116  0.1082
10023TIP3    H251561   3.104   3.976  44.900  1.5461  2.5380 -1.7830
10024TIP3   OH251562   2.155   0.034  38.491 -0.0744 -0.0024  0.2726
10024TIP3    H151563   2.066   0.066  38.502  0.1806  1.5801 -1.7043
10024TIP3    H251564   2.210   0.104  38.525  0.4379 -0.1156 -0.3086
10025TIP3   OH251565   2.184   3.761  42.238  0.2325 -0.1279 -0.1256
10025TIP3    H151566   2.177   3.836  42.180 -0.2043  0.5643  0.7976
10025TIP3    H251567   2.260   3.712  42.205 -0.0649  0.1956 -1.3180
10026TIP3   OH251568   3.791   1.036  39.235  0.6235 -0.0455  0.1634
10026TIP3    H151569   3.734   1.034  39.157  0.0994  1.0561  0.4879
10026TIP3    H251570   3.859   0.972  39.217 -0.4047 -0.9829 -0.4968
10027TIP3   OH251571   0.448   1.039  45.995  0.0485 -0.3999 -0.4255
10027TIP3    H151572   0.511   1.101  46.032  0.4904 -0.6776 -0.7053
10027TIP3    H251573   0.462   0.958  46.044 -1.5921  0.1387  1.0074
10028TIP3   OH251574   2.404   3.916  28.453  0.2093  0.1777 -0.0817
10028TIP3    H151575   2.355   3.870  28.385 -0.0906 -0.8862  0.8234
10028TIP3    H251576   2.475   3.959  28.406 -1.7785  2.1677 -1.5242
10029TIP3   OH251577   2.563   3.760  26.180  0.1526  0.8087  0.0290
10029TIP3    H151578   2.504   3.811  26.123 -0.5079  0.4286  0.3671
10029TIP3    H251579   2.513   3.682  26.203  1.4487 -0.4624 -1.1826
10030TIP3   OH251580   3.150   3.311  12.855  0.0690 -0.6396  0.0188
10030TIP3    H151581   3.122   3.398  12.828 -1.4617 -1.0510  0.2150
10030TIP3    H251582   3.196   3.276  12.779 -0.1670 -0.0439 -0.4071
10031TIP3   OH251583   0.112   0.522  42.404 -0.3472 -0.3993 -0.2874
10031TIP3    H151584   0.050   0.513  42.476 -0.6209  0.1592 -0.4516
10031TIP3    H251585   0.141   0.613  42.408  0.3961 -0.6278 -0.2685
10032TIP3   OH251586   1.028   1.810  17.513  0.0625 -0.3091  0.4743
10032TIP3    H151587   1.043   1.903  17.531 -0.1932 -0.4207  1.2908
10032TIP3    H251588   0.936   1.805  17.488  0.1988 -0.2772 -0.0394
10033TIP3   OH251589   0.859   0.250  35.179 -0.5167 -0.1351 -0.1442
10033TIP3    H151590   0.916   0.210  35.115 -0.3001  0.0218 -0.0547
10033TIP3    H251591   0.916   0.309  35.229 -0.7078 -0.1574  0.1036
10034TIP3   OH251592   3.146   3.638  39.575 -0.2790 -0.2064 -0.2668
10034TIP3    H151593   3.059   3.610  39.603 -0.7117  0.2351 -1.1440
10034TIP3    H251594   3.142   3.639  39.479 -0.2933  2.6993 -0.3397
10035TIP3   OH251595   3.655   0.048  44.465  0.0620 -0.4110  0.4941
10035TIP3    H151596   3.743   0.012  44.479  0.3460 -0.1592 -0.5575
10035TIP3    H251597   3.616  -0.009  44.399  0.9867  1.8378 -2.1901
10036TIP3   OH251598   1.361   0.934   5.235  0.6525 -0.1181 -0.1774
10036TIP3    H151599   1.274   0.949   5.198 -0.0153  2.6359  2.1861
10036TIP3    H251600   1.421   0.951   5.162 -0.7104 -0.6963 -1.4859
10037TIP3   OH251601   3.418   0.252   5.469  0.3681  0.5623 -0.1386
10037TIP3    H151602   3.422   0.303   5.388 -0.8363 -0.3246 -0.7763
10037TIP3    H251603   3.431   0.161   5.441 -0.5971  0.1868  0.5869
10038TIP3   OH251604   3.440   2.990   5.095 -0.5358 -0.0965 -0.9447
10038TIP3    H151605   3.532   2.997   5.069 -0.1866 -1.6055 -0.2614
10038TIP3    H251606   3.442   2.991   5.191 -1.5402  2.6925 -0.8584
10039TIP3   OH251607   3.641   0.334  13.619 -0.6676 -0.2286 -0.3828
10039TIP3    H151608   3.586   0.322  13.697 -0.0918  1.7839  0.3978
10039TIP3    H251609   3.731   0.323  13.651 -0.4434  0.2766 -0.8103
10040TIP3   OH251610   1.716   2.611  31.725  0.1528  0.6250  0.1583
10040TIP3    H151611   1.709   2.663  31.805  2.0619 -1.8677  2.1138
10040TIP3    H251612   1.810   2.605  31.708 -0.1232 -0.5615 -1.1317
10041TIP3   OH251613   1.495   3.145  32.899 -0.6598 -0.0395  0.0162
10041TIP3    H151614   1.407   3.180  32.908 -0.7675  0.1747 -1.5803
10041TIP3    H251615   1.496   3.105  32.811  0.9060  0.2052 -0.1006
10042TIP3   OH251616   1.913   1.974   5.112 -0.6242  0.6104  0.2249
10042TIP3    H151617   1.879   1.994   5.025 -1.0510  1.5844  0.6032
10042TIP3    H251618   1.984   1.913   5.096 -0.3727  1.1592 -0.8549
10043TIP3   OH251619   2.911   0.758   9.049 -0.3433 -0.1664  0.1981
10043TIP3    H151620   2.848   0.825   9.076 -0.8864 -1.0475  1.1736
10043TIP3    H251621   2.997   0.795   9.072 -0.5773  0.4824  0.0653
10044TIP3   OH251622   1.553   0.108  45.947  0.0937 -0.6377  0.5649
10044TIP3    H151623   1.614   0.037  45.970 -1.3748 -1.6592  1.4903
10044TIP3    H251624   1.567   0.174  46.014  1.6678  0.1244 -0.4553
10045TIP3   OH251625   1.808   0.422   8.396 -0.1429  0.1782  0.5628
10045TIP3    H151626   1.762   0.504   8.412  0.0412  0.5245 -0.5740
10045TIP3    H251627   1.747   0.354   8.424 -0.8748  0.6669  0.1877
10046TIP3   OH251628   1.085   0.674  36.988  0.4397  0.3335  0.1123
10046TIP3    H151629   1.172   0.712  36.995 -0.6898  3.0336  0.8363
10046TIP3    H251630   1.057   0.660  37.078  0.8995 -2.6806 -0.1162
10047TIP3   OH251631   1.153   2.477   0.518 -0.3231 -0.2275 -0.0018
10047TIP3    H151632   1.112   2.466   0.604  1.4456 -0.0857  0.9093
10047TIP3    H251633   1.226   2.416   0.518  1.9162  2.2724  0.0945
10048TIP3   OH251634   0.230   2.633  34.774 -0.4345 -0.4174  0.1226
10048TIP3    H151635   0.295   2.692  34.812 -1.9468  0.9441  0.6766
10048TIP3    H251636   0.148   2.654  34.818 -1.4334 -1.5938 -1.0552
10049TIP3   OH251637   2.511   0.881  11.202  0.4964  0.7245 -0.6307
10049TIP3    H151638   2.469   0.888  11.288  0.5425 -0.3004 -0.5124
10049TIP3    H251639   2.459   0.817  11.155  1.7767 -0.4206 -0.5552
10050TIP3   OH251640   3.429   3.340  37.451 -0.3978  0.1169  0.3064
10050TIP3    H151641   3.416   3.245  37.444 -3.4102  0.2551  2.1853
10050TIP3    H251642   3.342   3.377  37.436  0.5755  2.5890  0.2648
10051TIP3   OH251643   0.757   2.792   3.240 -0.1965 -0.5851 -0.1724
10051TIP3    H151644   0.789   2.702   3.247 -0.0817 -0.6544 -1.4348
10051TIP3    H251645   0.784   2.820   3.153 -1.1148  0.3301 -0.1764
10052TIP3   OH251646   1.270   3.852  44.910 -0.2390  0.3017 -0.5037
10052TIP3    H151647   1.316   3.924  44.867  0.7754  0.2517  0.4539
10052TIP3    H251648   1.247   3.792  44.839 -0.6527  1.3144 -1.2482
10053TIP3   OH251649   2.811   2.721  14.678 -0.1912 -0.1843  0.0310
10053TIP3    H151650   2.874   2.758  14.616  1.2254 -3.7385 -0.9394
10053TIP3    H251651   2.729   2.716  14.629  0.0520  0.0353 -0.4060
10054TIP3   OH251652   1.952   3.707  41.181  0.0986 -0.4703  0.3698
10054TIP3    H151653   2.032   3.655  41.178  0.0324 -0.6886  1.6596
10054TIP3    H251654   1.961   3.761  41.259 -0.4647  0.4289 -0.1665
10055TIP3   OH251655   3.335   0.988  37.389  0.6693  0.1350 -0.0610
10055TIP3    H151656   3.242   1.011  37.392  0.8856  1.0430 -0.0434
10055TIP3    H251657   3.377   1.049  37.450  1.2036 -0.6563  0.3722
10056TIP3   OH251658   2.229   2.756  37.976 -0.0530  0.2582  0.1862
10056TIP3    H151659   2.223   2.826  38.041  1.9368  0.7136 -0.0652
10056TIP3    H251660   2.217   2.676  38.027 -0.9775  0.6932  0.6918
10057TIP3   OH251661   4.083   2.159   1.768  0.3298  0.3848  0.0668
10057TIP3    H151662   4.034   2.148   1.687  1.4788 -2.0758 -0.3846
10057TIP3    H251663   4.154   2.218   1.744  0.3418  0.1205 -0.5928
10058TIP3   OH251664   3.308   1.066   0.708  0.1770 -0.0774  0.0652
10058TIP3    H151665   3.261   0.999   0.756 -1.1788  1.1926  0.5833
10058TIP3    H251666   3.308   1.035   0.617 -0.9818 -0.4846  0.1937
10059TIP3   OH251667   0.823   2.020   8.084  0.0698  0.1363 -0.1703
10059TIP3    H151668   0.826   1.927   8.104  0.9030  0.6133  2.2719
10059TIP3    H251669   0.913   2.043   8.061  0.1770  0.5897  0.6641
10060TIP3   OH251670   1.030   3.842  36.529 -0.0533  0.8491 -0.5951
10060TIP3    H151671   1.046   3.748  36.520  2.6751  1.1592  0.0693
10060TIP3    H251672   1.043   3.877  36.441  0.5804  0.7782 -0.5364
10061TIP3   OH251673   2.889   1.558  13.900 -0.5994  0.1517 -0.3743
10061TIP3    H151674   2.885   1.575  13.805 -0.7413  1.0360 -0.2210
10061TIP3    H251675   2.891   1.645  13.939 -3.1070 -0.1531  0.5605
10062TIP3   OH251676   1.293   3.652  39.214  0.6624  0.7046 -0.4264
10062TIP3    H151677   1.255   3.734  39.181  1.1873  2.2615  2.4678
10062TIP3    H251678   1.386   3.673  39.227  0.5615  0.1606  1.5605
10063TIP3   OH251679   2.705   3.128   5.839 -0.1801 -0.0835 -0.0331
10063TIP3    H151680   2.743   3.088   5.760 -0.6763 -0.1053 -0.2632
10063TIP3    H251681   2.781   3.146   5.895  0.1709 -0.1575 -0.4722
10064TIP3   OH251682   3.594   2.269  46.643 -1.1799 -0.1866  0.0683
10064TIP3    H151683   3.636   2.221  46.715 -0.1214  1.2076  0.4157
10064TIP3    H251684   3.642   2.242  46.565 -1.7904 -1.0686 -0.0195
10065TIP3   OH251685   2.840   0.487  37.920  0.0785 -0.2577 -0.5580
10065TIP3    H151686   2.927   0.481  37.880  0.4228 -0.0429  0.1495
10065TIP3    H251687   2.796   0.407  37.893  0.9117 -0.9305  0.0506
10066TIP3   OH251688   1.258   1.738   7.627 -0.4495 -0.3652  0.0027
10066TIP3    H151689   1.312   1.665   7.658 -2.3105 -2.4470 -1.3090
10066TIP3    H251690   1.319   1.811   7.617  1.1138 -0.9838  3.5549
10067TIP3   OH251691   0.727   3.577  30.334 -0.6256  0.0088 -0.2658
10067TIP3    H151692   0.683   3.618  30.259  0.6056  1.3992 -0.2923
10067TIP3    H251693   0.755   3.492  30.301 -1.1011  0.1326 -1.0234
10068TIP3   OH251694   0.828   0.267  39.129 -0.5054  0.3804  0.5184
10068TIP3    H151695   0.850   0.360  39.138  1.6890 -0.0564  0.2977
10068TIP3    H251696   0.847   0.248  39.037 -0.6959 -0.3416  0.6248
10069TIP3   OH251697   3.877   1.187   2.665  0.6201  0.4344  0.0706
10069TIP3    H151698   3.881   1.273   2.625 -0.8963 -0.1068 -1.3860
10069TIP3    H251699   3.842   1.130   2.596 -0.0416 -0.9883  1.4986
10070TIP3   OH251700   1.263   3.426  29.060  0.2016 -0.5314  0.7577
10070TIP3    H151701   1.172   3.396  29.058  0.2187 -0.5790  0.6892
10070TIP3    H251702   1.307   3.376  28.991 -0.1515  0.9226 -0.5733
10071TIP3   OH251703   0.941   1.005  44.510 -0.1197 -0.2625  0.2721
10071TIP3    H151704   0.896   1.083  44.476  0.9603 -0.5455 -1.9452
10071TIP3    H251705   0.956   0.950  44.433  2.7368 -0.8237  1.1166
10072TIP3   OH251706   2.764   3.472  33.335 -0.6414 -0.0613  0.4108
10072TIP3    H151707   2.788   3.559  33.367 -1.4916  0.4606 -0.3200
10072TIP3    H251708   2.669   3.466  33.350 -1.0148  0.0642 -1.6169
10073TIP3   OH251709   0.161   0.774   9.174 -0.4567 -0.4470  0.3515
10073TIP3    H151710   0.133   0.848   9.229  1.0352 -1.0541  2.0324
10073TIP3    H251711   0.158   0.699   9.233  0.1254 -1.3367 -0.7342
10074TIP3   OH251712   4.017   3.397  34.454 -0.3601  0.2142  0.8330
10074TIP3    H151713   4.095   3.369  34.502 -0.4165  0.3837  1.0233
10074TIP3    H251714   4.010   3.491  34.473  0.9547  0.8304 -1.3785
10075TIP3   OH251715   2.915   1.838  15.495  0.7286 -0.5056 -0.5660
10075TIP3    H151716   3.006   1.832  15.466  1.3932 -0.2510  1.3329
10075TIP3    H251717   2.890   1.929  15.479  1.5305 -0.0090  0.7692
10076TIP3   OH251718   0.260   3.996  44.005  0.3193  0.1823  1.5912
10076TIP3    H151719   0.211   4.005  44.087  0.2267  0.4923  1.5037
10076TIP3    H251720   0.340   4.047  44.019 -0.0407  0.8581  1.2156
10077TIP3   OH251721   0.287   0.659   6.092  0.1495  0.2454 -0.2964
10077TIP3    H151722   0.334   0.609   6.026 -2.0988  1.0320 -2.6466
10077TIP3    H251723   0.227   0.595   6.132 -0.9187  0.4315 -1.5186
10078TIP3   OH251724   2.781   1.901  36.942 -0.1104  0.3984  0.4757
10078TIP3    H151725   2.699   1.851  36.936  0.8671 -1.3834  1.2189
10078TIP3    H251726   2.757   1.980  36.989 -1.4396 -0.0274  0.5620
10079TIP3   OH251727   2.920   0.210  40.470 -0.3706 -0.0858 -0.3436
10079TIP3    H151728   3.000   0.250  40.437  0.9964 -2.5532 -0.1940
10079TIP3    H251729   2.883   0.165  40.394 -2.2188  1.7712 -0.6585
10080TIP3   OH251730   0.901   3.685  39.402  0.4911  0.6091 -0.6551
10080TIP3    H151731   0.838   3.740  39.448  1.5629  1.6124 -0.3465
10080TIP3    H251732   0.862   3.669  39.316 -1.6426 -1.4654  0.5814
10081TIP3   OH251733   3.292   3.466  43.557  1.2279 -0.3454 -0.5269
10081TIP3    H151734   3.260   3.526  43.624 -1.4081 -1.1268 -0.9668
10081TIP3    H251735   3.356   3.411  43.602  0.0181 -0.4240  1.2227
10082TIP3   OH251736   1.740   3.878  45.746  0.1714 -0.8450 -0.5613
10082TIP3    H151737   1.805   3.947  45.757  0.7304 -1.4016 -0.3217
10082TIP3    H251738   1.658   3.917  45.777 -0.3898  1.0260 -4.0089
10083TIP3   OH251739   1.460   1.080   1.854  0.0792 -0.3477 -0.2618
10083TIP3    H151740   1.364   1.078   1.863  0.0196 -0.9192 -0.9312
10083TIP3    H251741   1.493   1.078   1.944 -0.5399 -0.2614 -0.0288
10084TIP3   OH251742   2.642   0.645   3.952 -0.7898 -0.2423  0.6830
10084TIP3    H151743   2.652   0.671   4.043  0.1117 -0.4992  0.6712
10084TIP3    H251744   2.646   0.549   3.954 -0.8246 -0.2512  0.3827
10085TIP3   OH251745   2.982   3.969  38.260 -0.1263 -0.1452  0.2890
10085TIP3    H151746   3.075   3.986  38.252  0.0344 -1.3969 -0.7280
10085TIP3    H251747   2.960   3.916  38.184 -1.4184 -0.8894  1.1395
10086TIP3   OH251748   2.677   2.414  22.257 -0.7826 -0.4379  0.0244
10086TIP3    H151749   2.652   2.479  22.323 -0.5902  0.2040 -0.5209
10086TIP3    H251750   2.672   2.330  22.303  0.3069  0.0809  1.1402
10087TIP3   OH251751   2.197   3.632  37.248 -0.2643 -0.1223 -0.4260
10087TIP3    H151752   2.183   3.544  37.213  0.2079 -0.5464  0.4250
10087TIP3    H251753   2.129   3.642  37.315  0.8041 -0.5384  0.7352
10088TIP3   OH251754   0.983   4.079  37.516 -0.0912 -0.0826  0.7804
10088TIP3    H151755   1.009   4.085  37.608  2.3429  0.1148  0.1540
10088TIP3    H251756   1.065   4.087  37.468 -1.4873  1.8582 -1.4916
10089TIP3   OH251757   0.392   0.990  43.002  0.7220  0.5451  0.1564
10089TIP3    H151758   0.421   1.032  42.921  0.2167 -0.8790 -0.7911
10089TIP3    H251759   0.394   0.897  42.984  0.6558  0.1881  1.8201
10090TIP3   OH251760   2.967   1.029  14.031 -0.5338 -0.0104 -0.8121
10090TIP3    H151761   2.900   1.033  13.963 -0.9735 -1.4653 -0.4803
10090TIP3    H251762   3.011   0.946  14.017 -1.2459 -0.7932  1.2414
10091TIP3   OH251763   0.229   1.940  21.870 -0.1694 -0.1846 -0.1853
10091TIP3    H151764   0.134   1.932  21.861 -0.4808  2.2601  0.2135
10091TIP3    H251765   0.241   1.989  21.951  1.4584 -0.5623 -0.1748
10092TIP3   OH251766   3.080   2.056  43.681 -0.4228  0.8515 -0.3374
10092TIP3    H151767   3.046   2.048  43.593 -0.8732 -0.6191 -0.0608
10092TIP3    H251768   3.162   2.105  43.671  0.4377 -0.7606 -1.8302
10093TIP3   OH251769   2.803   1.724  14.625  0.2006 -0.6853 -0.2210
10093TIP3    H151770   2.813   1.629  14.623 -2.9790 -1.2111  1.3463
10093TIP3    H251771   2.818   1.748  14.716 -1.1126 -0.0410 -0.1503
10094TIP3   OH251772   1.131   3.422  11.792  0.0766 -0.6684  0.0239
10094TIP3    H151773   1.125   3.327  11.781 -1.5684 -0.7973  1.5778
10094TIP3    H251774   1.114   3.457  11.704  0.5884 -1.7701 -0.5469
10095TIP3   OH251775   1.406   0.280   0.811 -0.0767  0.5254 -0.4816
10095TIP3    H151776   1.359   0.364   0.815 -0.6301  0.1976  0.0282
10095TIP3    H251777   1.486   0.295   0.860  0.6641  1.2658 -1.8365
10096TIP3   OH251778   1.794   3.569  30.182 -0.0959 -0.3086 -0.0172
10096TIP3    H151779   1.718   3.614  30.219  1.0983  0.3727  1.7881
10096TIP3    H251780   1.775   3.562  30.089 -1.5100  1.6019  0.0621
10097TIP3   OH251781   2.150   3.258   9.258 -0.3703 -0.2159  0.4620
10097TIP3    H151782   2.196   3.183   9.296  1.7623  0.2677 -0.9803
10097TIP3    H251783   2.197   3.335   9.290  1.1048  0.2305 -2.4498
10098TIP3   OH251784   3.481   3.968  13.285  0.2415  0.5398 -0.2625
10098TIP3    H151785   3.546   3.934  13.347 -1.4767 -0.1376  1.2525
10098TIP3    H251786   3.501   3.923  13.203  0.5660 -1.0796  0.6468
10099TIP3   OH251787   1.649   0.527   9.823  0.3269 -0.4656 -0.0951
10099TIP3    H151788   1.685   0.602   9.776  0.7263  0.2246  1.2759
10099TIP3    H251789   1.564   0.511   9.781  0.2759  0.6976 -0.4609
10100TIP3   OH251790   1.382   3.496  38.737 -0.1894  0.1984  0.1470
10100TIP3    H151791   1.365   3.461  38.649  1.2717 -0.0571 -0.0618
10100TIP3    H251792   1.385   3.591  38.725 -3.6804  0.5202  0.6340
10101TIP3   OH251793   1.449   3.761  45.974 -0.8952  0.2033  0.1037
10101TIP3    H151794   1.505   3.780  45.898 -1.1180 -1.3330 -0.4780
10101TIP3    H251795   1.366   3.806  45.954 -0.2339  1.6596  0.5079
10102TIP3   OH251796   1.736   3.675  30.528 -0.3696 -0.1088  0.4877
10102TIP3    H151797   1.704   3.684  30.439  0.9169  0.9894  0.0883
10102TIP3    H251798   1.685   3.604  30.566  0.0340 -1.5712 -1.5761
10103TIP3   OH251799   2.891   0.965  35.445  0.0153 -0.1371 -0.5296
10103TIP3    H151800   2.801   0.932  35.443 -0.3540  0.8507 -1.5014
10103TIP3    H251801   2.923   0.943  35.532 -1.8694  1.2937  0.6120
10104TIP3   OH251802   2.195   3.234  31.232  0.5062 -0.5341 -0.4763
10104TIP3    H151803   2.200   3.147  31.193 -0.9268 -0.9309  0.1726
10104TIP3    H251804   2.279   3.245  31.277  0.4336 -1.8691  0.0265
10105TIP3   OH251805   0.032   3.889  25.698 -0.4420 -0.4832 -0.7295
10105TIP3    H151806   0.056   3.853  25.613 -0.8795 -0.9437 -0.6622
10105TIP3    H251807   0.066   3.979  25.696 -0.2093 -0.5771 -1.2803
10106TIP3   OH251808   0.546   0.640  43.944  0.1897 -0.0078  0.4444
10106TIP3    H151809   0.536   0.734  43.954  0.0244  0.0530 -0.2374
10106TIP3    H251810   0.494   0.603  44.016 -0.0778  0.4146  0.4720
10107TIP3   OH251811   1.568   3.424  41.753  0.2795  0.3083  0.6868
10107TIP3    H151812   1.542   3.332  41.757  2.7943 -0.4756  0.8961
10107TIP3    H251813   1.571   3.452  41.844  1.9557 -0.2318  0.8432
10108TIP3   OH251814   1.281   3.218   0.775  0.2315 -0.0797  0.5395
10108TIP3    H151815   1.212   3.211   0.710  0.5925  0.6735  0.0580
10108TIP3    H251816   1.266   3.145   0.835  0.8509 -1.8011 -1.3022
10109TIP3   OH251817   0.429   0.680  13.520 -0.0269  0.0066 -0.0834
10109TIP3    H151818   0.353   0.633  13.484  0.1636 -0.3184 -0.0678
10109TIP3    H251819   0.402   0.706  13.607  0.4312 -1.5161  0.5546
10110TIP3   OH251820   1.380   3.603  40.088 -0.2030 -0.7636 -0.4709
10110TIP3    H151821   1.468   3.566  40.094 -0.3465 -1.8137 -3.3437
10110TIP3    H251822   1.383   3.682  40.142  1.8357 -1.8623  1.1915
10111TIP3   OH251823   2.459   2.336  35.237  0.2839  0.0129  0.2204
10111TIP3    H151824   2.530   2.273  35.243  1.6778  1.3964 -1.0081
10111TIP3    H251825   2.461   2.382  35.322  0.4871 -0.3266  0.4009
10112TIP3   OH251826   3.897   3.958  41.439 -0.3465 -0.1698  0.0840
10112TIP3    H151827   3.922   3.931  41.350 -0.7879  0.5432 -0.2626
10112TIP3    H251828   3.809   3.920  41.450 -1.0248  1.1745 -0.4539
10113TIP3   OH251829   1.050   3.371  36.251  0.0962 -0.4166 -0.9304
10113TIP3    H151830   1.012   3.396  36.167  0.9840 -2.1074 -1.8892
10113TIP3    H251831   1.096   3.289  36.233  0.5444 -0.6786  1.1532
10114TIP3   OH251832   0.186   3.535  35.225 -0.5867  0.7417 -0.2136
10114TIP3    H151833   0.199   3.543  35.320  0.9826  0.0791 -0.3407
10114TIP3    H251834   0.212   3.445  35.205 -0.0981  1.1295 -1.3874
10115TIP3   OH251835   3.636   2.592  33.930 -0.2098 -0.4948  1.2048
10115TIP3    H151836   3.563   2.534  33.905  0.3709 -0.7617  0.0740
10115TIP3    H251837   3.710   2.533  33.943  0.9167  0.0790 -1.8968
10116TIP3   OH251838   1.618   0.246   9.579  0.4809 -0.8464 -0.3008
10116TIP3    H151839   1.561   0.322   9.582  0.5436 -0.8256  2.3516
10116TIP3    H251840   1.679   0.264   9.507 -0.3428  0.9700 -0.5742
10117TIP3   OH251841   2.694   2.086   1.158  0.1103  0.6412  0.6019
10117TIP3    H151842   2.745   2.167   1.149 -0.5455  0.9461 -0.6820
10117TIP3    H251843   2.605   2.116   1.173  0.1463  0.1154  2.0127
10118TIP3   OH251844   2.594   2.792   2.710 -0.1792  0.9996  0.1728
10118TIP3    H151845   2.663   2.858   2.705 -0.1411  0.8956 -1.7527
10118TIP3    H251846   2.615   2.740   2.787  2.4164  0.4336 -0.8075
10119TIP3   OH251847   3.202   1.512   7.146 -0.1136  0.1730 -0.0131
10119TIP3    H151848   3.205   1.607   7.155  0.7528  0.0630  1.0712
10119TIP3    H251849   3.272   1.480   7.202 -0.9700 -1.1496  0.3614
10120TIP3   OH251850   0.145   0.573  15.570 -0.1070 -0.1837 -0.4718
10120TIP3    H151851   0.195   0.558  15.490 -1.7531  1.3291 -1.8538
10120TIP3    H251852   0.194   0.642  15.615 -0.1636  0.2700 -1.0950
10121TIP3   OH251853   2.130   1.404  31.390  0.3773 -0.3749 -0.1110
10121TIP3    H151854   2.093   1.316  31.382 -0.8561  0.2754 -2.6940
10121TIP3    H251855   2.200   1.406  31.325  1.9273 -0.0866  1.4884
10122TIP3   OH251856   3.517   2.099   1.275 -0.4393 -0.5171 -0.3801
10122TIP3    H151857   3.571   2.090   1.353  0.3918  0.4648 -0.8298
10122TIP3    H251858   3.469   2.180   1.288  2.0592  1.4147 -2.2271
10123TIP3   OH251859   3.241   1.940  35.868 -0.1476 -0.0097 -0.4168
10123TIP3    H151860   3.174   1.989  35.821 -0.3022  0.9849  0.7793
10123TIP3    H251861   3.301   2.008  35.901  0.2580 -0.7090  0.3261
10124TIP3   OH251862   2.800   2.298  47.063  0.7060  0.3622  0.0437
10124TIP3    H151863   2.877   2.355  47.069  0.6814  0.6093 -1.5006
10124TIP3    H251864   2.753   2.312  47.145  2.1894  0.3839  0.9119
10125TIP3   OH251865   3.181   2.940  15.022  0.2462 -0.1149 -0.1500
10125TIP3    H151866   3.109   2.897  15.069 -0.1147 -1.1319 -1.5915
10125TIP3    H251867   3.196   3.021  15.072 -0.2843 -1.0073  1.5604
10126TIP3   OH251868   3.005   3.993  40.883  0.4156 -0.1173 -0.1585
10126TIP3    H151869   3.080   4.000  40.825  1.3301  1.5191  1.1468
10126TIP3    H251870   2.964   4.079  40.880  0.0632 -0.2207  1.0593
10127TIP3   OH251871   1.553   3.290  44.508 -0.0438  0.3165  0.0296
10127TIP3    H151872   1.468   3.272  44.468 -0.2789  0.1101  0.6208
10127TIP3    H251873   1.613   3.230  44.464 -0.1338  0.6938 -0.6283
10128TIP3   OH251874   1.946   3.757  31.534  0.4470 -0.0372  0.3271
10128TIP3    H151875   1.857   3.728  31.553  0.6445 -0.1743  1.0806
10128TIP3    H251876   1.939   3.805  31.452 -0.5300  0.9514  0.9663
10129TIP3   OH251877   2.804   3.667   7.544  0.0081 -0.6278 -0.3823
10129TIP3    H151878   2.757   3.595   7.586 -0.9354 -0.5284 -1.2411
10129TIP3    H251879   2.738   3.711   7.490  0.9172 -0.0373 -1.0454
10130TIP3   OH251880   0.885   3.062  38.709 -0.1110  0.2473 -0.7163
10130TIP3    H151881   0.880   3.005  38.632  0.2062  0.7873 -1.1485
10130TIP3    H251882   0.947   3.131  38.684  1.2893 -0.4550  0.6228
10131TIP3   OH251883   0.504   1.565   5.153  0.2413 -0.3093 -0.2146
10131TIP3    H151884   0.413   1.590   5.135  0.3994 -0.5120 -1.3481
10131TIP3    H251885   0.541   1.639   5.201 -0.3802 -0.0247 -0.1704
10132TIP3   OH251886   1.569   1.784   0.668  0.1392  0.6158  0.1669
10132TIP3    H151887   1.531   1.872   0.665 -0.9332  0.1447 -0.5490
10132TIP3    H251888   1.500   1.729   0.705  0.8853  0.1042  0.8411
10133TIP3   OH251889   2.590   1.524   7.539 -0.1433 -0.1339  0.0979
10133TIP3    H151890   2.514   1.567   7.498 -0.5437 -1.4311 -0.5675
10133TIP3    H251891   2.611   1.452   7.480 -0.2017 -1.5656  1.7517
10134TIP3   OH251892   1.992   0.153  11.006  0.6440 -0.1373  0.1573
10134TIP3    H151893   1.915   0.101  10.984  0.2892 -0.6153  2.3098
10134TIP3    H251894   1.963   0.244  10.997 -1.0606 -0.2192  3.1966
10135TIP3   OH251895   2.962   2.765  36.078  0.0277 -0.2334  0.8503
10135TIP3    H151896   2.922   2.698  36.022  0.6200 -0.0237  0.1483
10135TIP3    H251897   2.888   2.813  36.115 -0.4076  0.2457 -0.5457
10136TIP3   OH251898   3.459   3.208  41.178  0.0081 -0.2892  0.1487
10136TIP3    H151899   3.510   3.135  41.142 -0.7399 -1.4438  1.3526
10136TIP3    H251900   3.379   3.211  41.126  0.0018 -0.3845  0.1535
10137TIP3   OH251901   2.255   2.405  40.441  0.5087 -0.0723  0.2051
10137TIP3    H151902   2.238   2.422  40.348  4.1793  0.2344 -0.5889
10137TIP3    H251903   2.267   2.492  40.479 -1.1787 -0.1876  1.0690
10138TIP3   OH251904   0.145   2.351  41.269  0.2995  0.0931 -0.2171
10138TIP3    H151905   0.089   2.363  41.346 -0.5921 -0.7091 -0.7217
10138TIP3    H251906   0.190   2.435  41.258 -0.6487  0.6841  0.3279
10139TIP3   OH251907   2.729   2.632  13.622  0.2981 -0.2673  0.0942
10139TIP3    H151908   2.759   2.544  13.643 -2.3319 -1.3165 -0.1071
10139TIP3    H251909   2.721   2.632  13.526 -1.0682 -0.3524  0.1843
10140TIP3   OH251910   1.716   3.856  32.224 -0.0669 -0.4342  0.0883
10140TIP3    H151911   1.724   3.825  32.134  1.2212  0.0617  0.0242
10140TIP3    H251912   1.730   3.950  32.218 -1.8341 -0.1007  0.5764
10141TIP3   OH251913   3.855   1.962  45.380  0.8899  0.3322  0.4263
10141TIP3    H151914   3.804   1.963  45.461 -1.4997  1.1222 -0.9702
10141TIP3    H251915   3.918   2.033  45.391  2.3215 -1.1271  2.4977
10142TIP3   OH251916   1.763   0.745  15.351  0.0461 -0.3210  0.0436
10142TIP3    H151917   1.794   0.683  15.418 -0.0064  0.5362  0.8891
10142TIP3    H251918   1.826   0.817  15.354 -1.4343  1.0115  1.1352
10143TIP3   OH251919   4.013   3.513  47.016  0.2366  0.8334 -0.9395
10143TIP3    H151920   3.927   3.539  46.983  0.2997  1.3362 -0.7159
10143TIP3    H251921   3.996   3.437  47.072  0.0083  0.5988 -1.3190
10144TIP3   OH251922   0.673   2.507  13.236 -0.1647  0.1380 -0.4132
10144TIP3    H151923   0.631   2.557  13.167  0.3936  0.7835 -0.2906
10144TIP3    H251924   0.748   2.560  13.263 -0.0178 -0.3915  0.2607
10145TIP3   OH251925   1.506   1.283   5.690  0.1308  0.4300  0.0379
10145TIP3    H151926   1.583   1.319   5.733 -0.0635 -1.0373  1.7144
10145TIP3    H251927   1.541   1.229   5.619  0.6154  0.4070  0.2960
10146TIP3   OH251928   2.273   1.396   4.934  0.1703  0.3393  0.0318
10146TIP3    H151929   2.353   1.432   4.973 -0.6770  1.2325  1.0162
10146TIP3    H251930   2.230   1.471   4.893 -0.2873 -0.0769 -0.2550
10147TIP3   OH251931   2.700   2.638   5.453  0.0746  0.2403 -0.1353
10147TIP3    H151932   2.789   2.603   5.465  1.0612  2.5114 -0.2368
10147TIP3    H251933   2.660   2.631   5.539  0.0253 -1.5893 -0.2822
10148TIP3   OH251934   2.952   2.933  47.243 -0.1254  0.5328 -0.0885
10148TIP3    H151935   3.019   2.922  47.311  1.3185 -0.1507 -1.5760
10148TIP3    H251936   3.000   2.954  47.164 -1.8287  2.0626 -0.7954
10149TIP3   OH251937   3.092   2.517   8.575 -0.3708 -0.2007  0.0151
10149TIP3    H151938   3.056   2.605   8.585  0.0735 -0.0403  0.2633
10149TIP3    H251939   3.040   2.463   8.635 -1.8659 -0.4875 -1.4764
10150TIP3   OH251940   1.425   2.246   6.177  0.2567 -0.4508 -0.0718
10150TIP3    H151941   1.462   2.242   6.089  0.1778  1.1229 -0.1954
10150TIP3    H251942   1.331   2.244   6.164  0.2383 -1.3669  0.0735
10151TIP3   OH251943   2.561   0.020  34.075  0.3129 -0.2105  0.2053
10151TIP3    H151944   2.505  -0.055  34.095  0.6579 -0.5261  0.0015
10151TIP3    H251945   2.502   0.095  34.078 -0.1908 -0.5725 -0.2896
10152TIP3   OH251946   4.068   2.846  13.222 -0.1948  0.1293 -0.7293
10152TIP3    H151947   4.046   2.790  13.147 -0.2313 -1.2580  0.2770
10152TIP3    H251948   3.985   2.861  13.266  0.1107 -0.8976  0.2425
10153TIP3   OH251949   0.351   0.932  16.386 -0.0821  0.2781  0.2784
10153TIP3    H151950   0.357   1.019  16.425 -0.8953  0.2656  0.4407
10153TIP3    H251951   0.413   0.935  16.313 -0.0492  0.9663  0.3265
10154TIP3   OH251952   0.939   0.818  39.822  0.5446  0.0670 -0.1178
10154TIP3    H151953   0.915   0.892  39.878  0.8863  1.2803 -1.5139
10154TIP3    H251954   0.893   0.835  39.739  0.8765 -1.1351 -0.5702
10155TIP3   OH251955   0.923   1.884  39.475 -0.1261 -0.4281 -0.4311
10155TIP3    H151956   0.942   1.890  39.382 -1.5801 -0.1316 -0.7340
10155TIP3    H251957   0.880   1.799  39.485  0.6557 -0.7723  0.1005
10156TIP3   OH251958   0.764   1.639  40.911  0.5567  0.1090  0.0625
10156TIP3    H151959   0.741   1.727  40.879 -0.3739 -0.0136  0.3708
10156TIP3    H251960   0.681   1.592  40.915  1.0065 -0.6960  0.2007
10157TIP3   OH251961   2.949   3.169  42.116  0.1287 -0.0836 -0.0942
10157TIP3    H151962   2.943   3.082  42.154  1.3534  0.4474  1.4283
10157TIP3    H251963   3.042   3.181  42.097 -0.0955  0.6945 -0.7768
10158TIP3   OH251964   2.367   0.321  11.445 -0.6822  0.2006  0.2118
10158TIP3    H151965   2.316   0.342  11.523 -1.1441  1.4908 -0.4144
10158TIP3    H251966   2.447   0.372  11.454  0.1227 -1.0934  0.7278
10159TIP3   OH251967   3.357   1.259   3.628  0.2986  0.5817  0.0104
10159TIP3    H151968   3.443   1.261   3.670  0.3426 -1.1092  0.0909
10159TIP3    H251969   3.354   1.337   3.574  2.2242  0.2810 -0.5987
10160TIP3   OH251970   3.849   2.374  10.457 -0.0672  0.1108  0.3254
10160TIP3    H151971   3.803   2.298  10.491 -1.1331  0.8425  0.5836
10160TIP3    H251972   3.872   2.425  10.535 -3.2535  2.2137  0.0651
10161TIP3   OH251973   2.040   0.974   7.300  0.6012 -0.0204  0.3438
10161TIP3    H151974   2.056   0.900   7.241 -0.5943 -0.7445  0.8970
10161TIP3    H251975   1.978   1.030   7.254 -0.7459 -0.8512  1.0710
10162TIP3   OH251976   0.690   3.490  12.621 -0.0189 -0.0469 -0.2197
10162TIP3    H151977   0.668   3.493  12.528  1.4104  1.3778 -0.5645
10162TIP3    H251978   0.729   3.403  12.633 -0.6961 -0.4485 -0.8234
10163TIP3   OH251979   3.514   3.639   9.274 -0.1949  0.0996 -0.4334
10163TIP3    H151980   3.454   3.577   9.316 -2.0436  0.4625 -2.3801
10163TIP3    H251981   3.457   3.699   9.225  1.6031  2.6136  0.3749
10164TIP3   OH251982   2.978   1.995  19.640 -0.1820 -0.2454  0.1001
10164TIP3    H151983   2.916   1.956  19.578  0.9416 -1.2318 -0.4246
10164TIP3    H251984   3.052   1.934  19.643  1.5463  1.7175 -0.5766
10165TIP3   OH251985   2.155   2.899   3.464  0.6887 -0.3665  0.1646
10165TIP3    H151986   2.094   2.905   3.538  0.7093 -2.8211  0.4733
10165TIP3    H251987   2.111   2.945   3.393 -0.7260 -0.5477  0.8788
10166TIP3   OH251988   3.521   2.976   5.998  0.4730 -0.1125  0.0637
10166TIP3    H151989   3.572   3.057   5.995  1.3516 -0.4099  3.1390
10166TIP3    H251990   3.582   2.908   5.973  0.5690 -0.0963  0.2484
10167TIP3   OH251991   1.907   2.059   7.551  0.2072  0.0031 -0.0248
10167TIP3    H151992   1.863   1.977   7.572 -0.1957  0.0835 -0.5416
10167TIP3    H251993   1.907   2.063   7.456 -0.0376  0.7376 -0.0001
10168TIP3   OH251994   1.791   3.819  36.264  0.0733 -0.4286  0.0708
10168TIP3    H151995   1.804   3.884  36.334 -1.8687  0.8381 -0.6414
10168TIP3    H251996   1.878   3.786  36.245  0.7500 -0.3294  2.6263
10169TIP3   OH251997   0.272   1.984  20.529  0.2667  0.3122 -0.0961
10169TIP3    H151998   0.344   2.028  20.575  0.6075 -0.2485 -0.0750
10169TIP3    H251999   0.235   2.051  20.472  1.1589  0.4784 -0.5091
10170TIP3   OH252000   0.315   1.011  32.731  0.6884 -0.1466  0.8652
10170TIP3    H152001   0.223   0.995  32.712  1.2985 -1.6651 -1.1602
10170TIP3    H252002   0.319   1.018  32.826 -1.6941  1.3553  0.9229
10171TIP3   OH252003   2.819   3.295  26.120  0.4143 -0.0975  0.1994
10171TIP3    H152004   2.806   3.271  26.029  0.2842  0.6161  0.0248
10171TIP3    H252005   2.784   3.221  26.170  1.2087 -0.8394 -0.3269
10172TIP3   OH252006   1.370   3.484  11.370  0.1770 -0.6358 -0.0898
10172TIP3    H152007   1.368   3.415  11.304  3.5501 -1.5762  0.5982
10172TIP3    H252008   1.285   3.479  11.413 -1.0070 -1.9253 -2.4276
10173TIP3   OH252009   3.441   3.377  45.638 -0.2640  0.2492 -0.5473
10173TIP3    H152010   3.381   3.328  45.582  0.3896 -0.6619 -0.4799
10173TIP3    H252011   3.385   3.434  45.691 -0.9147  0.8548 -1.8462
10174TIP3   OH252012   1.293   0.074   6.261 -0.4670  0.6611 -0.3830
10174TIP3    H152013   1.346  -0.006   6.251 -0.9591 -0.0274  1.9836
10174TIP3    H252014   1.254   0.087   6.175  1.3587 -0.3704 -1.4452
10175TIP3   OH252015   3.293   0.927  40.768 -0.0719  0.4923 -0.0856
10175TIP3    H152016   3.272   0.888  40.683  2.5832 -0.6462 -0.2985
10175TIP3    H252017   3.301   0.852  40.827 -3.4019  1.3127  1.7021
10176TIP3   OH252018   2.092   1.163  33.121  0.1350 -0.5061  0.2666
10176TIP3    H152019   2.074   1.240  33.068  0.9242  0.1192  0.8786
10176TIP3    H252020   2.164   1.118  33.076 -0.2352 -0.8140 -0.0192
10177TIP3   OH252021   3.838   3.032   4.179  0.0173 -0.0651 -0.5301
10177TIP3    H152022   3.765   3.032   4.240  1.1262  1.5708  0.9151
10177TIP3    H252023   3.902   2.972   4.218 -0.8516 -2.2895 -2.3006
10178TIP3   OH252024   0.993   3.397  13.684 -0.4081 -0.1678  0.1739
10178TIP3    H152025   1.062   3.447  13.639  0.0637  0.0750  1.1462
10178TIP3    H252026   1.030   3.310  13.695 -0.7447 -0.3904 -0.3946
10179TIP3   OH252027   0.921   1.947  10.461  0.1080  0.0302  1.0592
10179TIP3    H152028   0.831   1.951  10.493  0.6210 -0.7554  2.7141
10179TIP3    H252029   0.958   2.033  10.479  0.0227 -0.0164  1.4600
10180TIP3   OH252030   0.957   3.174  11.612  0.6137 -1.0218  0.9736
10180TIP3    H152031   0.887   3.228  11.574  0.3537 -2.3867 -0.5862
10180TIP3    H252032   0.935   3.170  11.705  1.7497  3.1535  1.6583
10181TIP3   OH252033   0.352   3.147  10.447  0.0795  0.6849 -0.0363
10181TIP3    H152034   0.257   3.141  10.437  0.2226 -1.2261 -0.5971
10181TIP3    H252035   0.367   3.235  10.482 -1.9557  0.6906  0.9333
10182TIP3   OH252036   2.724   2.267   6.492 -0.0609  0.3494  0.5881
10182TIP3    H152037   2.686   2.301   6.411 -1.0480 -0.2325  0.7985
10182TIP3    H252038   2.808   2.228   6.464 -1.5143 -2.1733 -0.6489
10183TIP3   OH252039   0.808   0.126  26.788  0.7073 -0.0380  0.1428
10183TIP3    H152040   0.880   0.121  26.725  0.5898  1.7001 -0.1537
10183TIP3    H252041   0.731   0.142  26.734  0.2855 -0.5543  0.5796
10184TIP3   OH252042   3.272   2.727   2.141  0.1082 -0.1318  0.5020
10184TIP3    H152043   3.364   2.746   2.125  0.2482  0.3842  1.7627
10184TIP3    H252044   3.262   2.738   2.236 -1.1225 -0.7380  0.4582
10185TIP3   OH252045   3.156   1.910  16.972  0.2781 -0.6137 -0.2219
10185TIP3    H152046   3.232   1.894  17.028 -1.1161 -2.2013  1.3363
10185TIP3    H252047   3.165   1.846  16.901  0.5871 -0.5326 -0.2571
10186TIP3   OH252048   0.897   1.010  47.096 -0.1752 -0.5786 -0.3692
10186TIP3    H152049   0.879   1.070  47.168 -1.0685 -0.5951 -0.5657
10186TIP3    H252050   0.989   1.026  47.073 -0.5001  0.9941 -0.6891
10187TIP3   OH252051   0.188   1.189  43.404 -0.3437  0.2902 -0.6119
10187TIP3    H152052   0.173   1.144  43.321  0.6393 -0.4686 -0.3888
10187TIP3    H252053   0.211   1.120  43.466 -0.5162  0.9071  0.1669
10188TIP3   OH252054   1.510   3.978  35.362 -0.0999 -0.0378  0.5492
10188TIP3    H152055   1.598   3.980  35.399 -0.3083  2.0592  1.0587
10188TIP3    H252056   1.480   3.889  35.378  2.1634 -1.0341 -0.3110
10189TIP3   OH252057   1.112   2.421  13.169  0.0868  0.1310  0.4017
10189TIP3    H152058   1.033   2.439  13.119 -0.8575 -0.1066  1.7707
10189TIP3    H252059   1.106   2.328  13.191  1.6736 -0.3714 -1.0114
10190TIP3   OH252060   2.492   1.916   8.474 -0.4237  0.0538  0.3038
10190TIP3    H152061   2.478   1.821   8.472  1.5119 -0.2679 -1.5451
10190TIP3    H252062   2.555   1.928   8.545  2.3202 -0.6344 -1.8531
10191TIP3   OH252063   0.691   2.864  38.932  0.1648  0.1676  0.0408
10191TIP3    H152064   0.634   2.933  38.964 -1.1307 -0.5029 -0.7360
10191TIP3    H252065   0.669   2.855  38.839  1.5799 -0.0830 -0.2987
10192TIP3   OH252066   1.664   0.055  32.526  0.1092  0.0534  0.9212
10192TIP3    H152067   1.635  -0.027  32.566 -0.7549  0.5388  1.3172
10192TIP3    H252068   1.602   0.121  32.557  1.5157  1.1092  1.6211
10193TIP3   OH252069   2.315   3.695   9.705  0.0427 -0.2404 -0.2448
10193TIP3    H152070   2.245   3.738   9.755  2.4782  1.1520  2.2436
10193TIP3    H252071   2.317   3.741   9.621 -0.1721  1.6770  0.7511
10194TIP3   OH252072   2.104   1.841   0.778 -0.0384 -0.0666 -0.1997
10194TIP3    H152073   2.022   1.804   0.744 -0.0158 -0.4648  0.1662
10194TIP3    H252074   2.173   1.796   0.727 -0.0644  1.1245 -1.3435
10195TIP3   OH252075   2.845   1.512  39.843  0.4270 -0.6124 -0.2398
10195TIP3    H152076   2.813   1.426  39.871  1.1269 -0.8732 -0.2215
10195TIP3    H252077   2.848   1.564  39.923  2.3099 -1.3215  0.2100
10196TIP3   OH252078   3.412   0.439  36.270  0.1006  0.2322 -0.2006
10196TIP3    H152079   3.499   0.404  36.250 -0.3973 -0.4820 -1.2208
10196TIP3    H252080   3.427   0.503  36.340  1.3080 -0.5770  0.3081
10197TIP3   OH252081   2.198   3.731  41.902  0.4321 -0.1967 -0.4967
10197TIP3    H152082   2.272   3.736  41.963 -0.3239 -0.6098  0.4693
10197TIP3    H252083   2.187   3.637  41.886  1.7547 -0.0495 -2.7088
10198TIP3   OH252084   2.802   1.234  44.800  0.0146  0.2433 -0.2405
10198TIP3    H152085   2.872   1.207  44.741  0.2014 -1.2953  0.6245
10198TIP3    H252086   2.728   1.178  44.776 -0.0879  0.0201  0.5788
10199TIP3   OH252087   1.198   2.289  37.140 -0.2874  0.2777  0.0076
10199TIP3    H152088   1.187   2.268  37.048 -1.6065  0.1149  0.1875
10199TIP3    H252089   1.254   2.367  37.140 -2.0793  1.6605 -1.0647
10200TIP3   OH252090   1.600   3.450  38.276  0.1901  0.5575  0.3225
10200TIP3    H152091   1.663   3.520  38.294  0.7029  0.4409 -0.9228
10200TIP3    H252092   1.546   3.484  38.205 -0.1102  0.0112  0.2833
10201TIP3   OH252093   3.669   1.059  31.695  0.0257  0.2540 -0.0929
10201TIP3    H152094   3.613   1.115  31.749  0.8813  1.3909 -0.3402
10201TIP3    H252095   3.612   1.030  31.624 -0.5821  0.3814  0.3365
10202TIP3   OH252096   0.114   2.419  41.716 -0.3569 -0.5048  0.3095
10202TIP3    H152097   0.040   2.447  41.664 -0.6007 -0.4377  0.6895
10202TIP3    H252098   0.080   2.347  41.770 -0.2800 -0.1430  0.8451
10203TIP3   OH252099   0.003   2.140   3.360 -0.6408  0.2209 -0.5497
10203TIP3    H152100  -0.049   2.200   3.307  0.9272  2.1661  0.0015
10203TIP3    H252101  -0.010   2.170   3.450  1.1461  0.5573 -0.3695
10204TIP3   OH252102   1.043   1.358  21.446 -0.6648  0.1302  0.4474
10204TIP3    H152103   0.961   1.349  21.398 -1.3351 -2.7472  1.8688
10204TIP3    H252104   1.042   1.447  21.481 -2.6698  0.4825 -0.3955
10205TIP3   OH252105   1.818   0.560   3.426  0.1089 -0.0064  0.1163
10205TIP3    H152106   1.845   0.638   3.377 -1.8326  0.8046  0.2663
10205TIP3    H252107   1.786   0.594   3.509  1.5850 -1.2167  1.2502
10206TIP3   OH252108   3.319   1.513   5.662 -0.1585  0.1854  0.4802
10206TIP3    H152109   3.409   1.484   5.653 -0.2166 -1.4013  3.6036
10206TIP3    H252110   3.286   1.518   5.573  2.8238  0.3039 -0.7239
10207TIP3   OH252111   1.427   0.203  11.554 -0.2329  0.4815  0.0340
10207TIP3    H152112   1.445   0.203  11.460 -1.6070 -0.5232 -0.2555
10207TIP3    H252113   1.422   0.110  11.577 -2.2072  0.7041  0.6205
10208TIP3   OH252114   2.178   3.606   8.785  0.3188 -0.1073 -0.1913
10208TIP3    H152115   2.181   3.598   8.690  0.4759  0.7959 -0.2677
10208TIP3    H252116   2.097   3.654   8.803 -0.6509 -1.8167  0.2585
10209TIP3   OH252117   0.627   0.130   6.917  0.2134 -0.5434  0.4225
10209TIP3    H152118   0.702   0.186   6.896  0.5094 -1.1091 -0.0722
10209TIP3    H252119   0.550   0.185   6.899  0.4046 -1.1630 -2.9589
10210TIP3   OH252120   0.990   0.403  10.584  0.4149  0.0382  0.2087
10210TIP3    H152121   1.080   0.418  10.611 -0.3548  1.1434  2.3929
10210TIP3    H252122   0.997   0.344  10.509  2.8856 -0.7478  0.9649
10211TIP3   OH252123   1.686   3.410  47.489 -0.0605 -0.6150 -0.2520
10211TIP3    H152124   1.653   3.349  47.555 -0.5630  0.4838  0.5456
10211TIP3    H252125   1.771   3.439  47.524 -0.3397 -0.0100 -0.0670
10212TIP3   OH252126   2.245   2.308   9.426 -0.1456 -0.4497  0.4973
10212TIP3    H152127   2.295   2.390   9.419 -0.9272  0.0073  0.2029
10212TIP3    H252128   2.302   2.251   9.478 -0.1621  0.7324  1.8949
10213TIP3   OH252129   0.921   3.044  45.217 -0.6722 -0.1560  0.1509
10213TIP3    H152130   0.939   3.124  45.168 -0.9513 -1.6795 -2.6130
10213TIP3    H252131   0.825   3.036  45.215 -0.7005 -0.1785  1.1144
10214TIP3   OH252132   0.033   2.799  38.783 -0.0311 -0.2514 -0.0920
10214TIP3    H152133  -0.033   2.782  38.851  0.7204 -1.7562  0.2993
10214TIP3    H252134   0.004   2.746  38.708 -0.0400  0.2189 -0.4246
10215TIP3   OH252135   2.815   2.970  33.261  0.0113  1.0072  0.0463
10215TIP3    H152136   2.741   2.953  33.319 -0.5109 -1.0590 -1.1181
10215TIP3    H252137   2.777   2.967  33.173  1.7301 -2.6744 -0.7700
10216TIP3   OH252138   2.009   3.874  43.787  0.2762 -0.5392 -0.0609
10216TIP3    H152139   2.081   3.815  43.762  0.6966  0.3600 -1.0319
10216TIP3    H252140   2.041   3.918  43.866  0.9878  0.1742 -0.7319
10217TIP3   OH252141   3.240   4.104  32.119 -0.1510 -0.1940 -0.2194
10217TIP3    H152142   3.276   4.032  32.170  0.4141  0.1733 -0.0961
10217TIP3    H252143   3.214   4.065  32.036 -0.1704 -0.6064 -0.0194
10218TIP3   OH252144   1.278   3.293   3.794 -0.1004 -0.1664 -0.0893
10218TIP3    H152145   1.256   3.333   3.878 -1.8492  0.0018 -0.5801
10218TIP3    H252146   1.211   3.225   3.781  0.6861 -0.8137 -0.9327
10219TIP3   OH252147   2.844   2.870  30.573  0.1550 -0.5249 -0.1116
10219TIP3    H152148   2.807   2.846  30.488  0.6100  1.0328 -0.7825
10219TIP3    H252149   2.808   2.957  30.592  0.2661 -0.7289  1.1721
10220TIP3   OH252150   0.194   0.966  31.069 -0.2543  0.5509 -0.3823
10220TIP3    H152151   0.181   0.876  31.036 -0.0971  0.2776  0.2822
10220TIP3    H252152   0.255   0.956  31.141 -0.2319  1.2030 -0.3066
10221TIP3   OH252153   0.889   0.409  31.194  0.3981  0.7639  0.1139
10221TIP3    H152154   0.821   0.470  31.222  1.0543  1.2956  0.6053
10221TIP3    H252155   0.860   0.377  31.109 -1.0197  0.0906  0.8171
10222TIP3   OH252156   1.822   2.257   9.515  0.1535 -0.2015  0.6692
10222TIP3    H152157   1.813   2.225   9.605 -2.2983  2.7147  1.6151
10222TIP3    H252158   1.735   2.247   9.477  0.8428 -0.2168 -0.9990
10223TIP3   OH252159   3.870   3.106  31.624 -0.0938 -0.2627  0.7523
10223TIP3    H152160   3.940   3.074  31.567 -1.2035 -1.8210  0.2183
10223TIP3    H252161   3.797   3.122  31.565 -0.9678 -1.0175  1.6018
10224TIP3   OH252162   4.001   1.231   6.746  0.4213 -0.3645  1.2785
10224TIP3    H152163   4.009   1.324   6.726  0.5150 -0.5603  0.3913
10224TIP3    H252164   4.065   1.216   6.815 -0.2073  0.4079  2.0584
10225TIP3   OH252165   2.198   3.773  11.372 -0.2612  0.3397  0.4722
10225TIP3    H152166   2.214   3.711  11.443  0.8427 -0.9495 -0.8435
10225TIP3    H252167   2.185   3.719  11.295  1.5945  1.7091 -0.8970
10226TIP3   OH252168   0.301   2.608  34.091  0.0738  0.8338  0.4873
10226TIP3    H152169   0.332   2.669  34.024  0.1088 -1.1904 -1.4166
10226TIP3    H252170   0.380   2.563  34.121 -0.2825 -0.3734 -0.3209
10227TIP3   OH252171   3.812   2.081   1.246 -0.0761  0.2134  0.4809
10227TIP3    H152172   3.906   2.070   1.232 -0.4036 -1.8289 -0.5553
10227TIP3    H252173   3.794   2.171   1.219  1.8998  1.4488  2.9092
10228TIP3   OH252174   0.539   1.722  33.994  0.3984  0.6918  0.1315
10228TIP3    H152175   0.518   1.734  33.901 -1.5908  0.2772  0.4807
10228TIP3    H252176   0.586   1.639  33.997  0.2435  0.5726 -0.4780
10229TIP3   OH252177   3.817   3.470   1.382  0.4895  0.2470 -0.3699
10229TIP3    H152178   3.772   3.532   1.441 -0.4995 -1.3917  0.6832
10229TIP3    H252179   3.760   3.466   1.305 -0.5993 -0.8756  0.4406
10230TIP3   OH252180   0.618   2.239   1.350  0.4451  0.2413 -0.4544
10230TIP3    H152181   0.673   2.301   1.303  0.1567  0.4788 -0.4803
10230TIP3    H252182   0.555   2.208   1.285  0.5503 -0.0356 -0.4273
10231TIP3   OH252183   1.133   3.506  29.991 -0.1371  0.3518  0.0075
10231TIP3    H152184   1.119   3.600  29.986 -1.0968  0.2015 -0.2669
10231TIP3    H252185   1.168   3.492  30.079 -0.2555  0.9271  0.1515
10232TIP3   OH252186   1.110   2.742   8.390  0.0157  0.0148  0.0317
10232TIP3    H152187   1.018   2.749   8.416  0.5283 -0.9259  2.3839
10232TIP3    H252188   1.122   2.649   8.371  0.6817 -0.0467  0.7138
10233TIP3   OH252189   1.964   3.246  11.111  0.0816  0.1821  0.5488
10233TIP3    H152190   2.027   3.282  11.048 -1.1206  0.3846 -0.5653
10233TIP3    H252191   2.009   3.170  11.148  1.5848  1.2097  0.9294
10234TIP3   OH252192   3.378   1.516   2.941  0.5835 -0.0719 -0.4397
10234TIP3    H152193   3.384   1.493   3.034 -0.8765  0.5360 -0.1593
10234TIP3    H252194   3.461   1.487   2.904  2.0987  1.5288  1.4419
10235TIP3   OH252195   1.245   2.393  16.375  0.0485 -0.7337  0.1073
10235TIP3    H152196   1.217   2.474  16.333 -0.5900 -0.7945  0.4099
10235TIP3    H252197   1.323   2.366  16.325 -0.5566 -0.6853 -0.9037
10236TIP3   OH252198   2.214   2.193  37.870  0.4350  0.0593  0.0210
10236TIP3    H152199   2.239   2.275  37.912  1.3661 -0.7021  1.0164
10236TIP3    H252200   2.242   2.125  37.931 -1.7342 -0.9778 -0.0327
10237TIP3   OH252201   1.319   0.107   9.265 -0.0171 -0.2295  0.0444
10237TIP3    H152202   1.246   0.083   9.320 -0.9428  0.8782 -0.6332
10237TIP3    H252203   1.281   0.165   9.198  1.0758 -1.3281 -1.6250
10238TIP3   OH252204   2.330   1.290  11.926 -0.1918  0.3377 -0.2261
10238TIP3    H152205   2.246   1.317  11.888  0.3344 -0.4035 -2.0349
10238TIP3    H252206   2.308   1.218  11.985 -0.7295 -0.7724 -1.7173
10239TIP3   OH252207   0.618   3.197  14.346 -0.2843 -0.4318  0.1697
10239TIP3    H152208   0.599   3.275  14.293 -1.8362  0.4424  1.8915
10239TIP3    H252209   0.688   3.225  14.405 -1.3401 -0.0393  1.2874
10240TIP3   OH252210   1.723   0.440  35.971 -0.3667  0.4905  0.2352
10240TIP3    H152211   1.735   0.419  36.064 -3.5509 -1.5417  0.3239
10240TIP3    H252212   1.691   0.530  35.971 -2.1852 -0.1084  1.3347
10241TIP3   OH252213   1.235   0.386  37.132 -0.1867  0.0759  0.0912
10241TIP3    H152214   1.255   0.406  37.040 -0.5775  0.1752  0.0257
10241TIP3    H252215   1.145   0.416  37.144  0.2553  1.1515  0.8426
10242TIP3   OH252216   0.264   3.251  12.645  1.3312 -0.5427 -0.0799
10242TIP3    H152217   0.278   3.295  12.562 -1.1619 -1.0624 -0.8684
10242TIP3    H252218   0.210   3.311  12.696  2.9050 -0.1896  1.2547
10243TIP3   OH252219   3.377   1.161   4.468 -0.0094  0.3215  0.2833
10243TIP3    H152220   3.383   1.254   4.492  3.5227  0.7556 -1.5797
10243TIP3    H252221   3.329   1.161   4.385  1.1925  0.7607 -0.4534
10244TIP3   OH252222   0.554   0.653   6.215 -0.1793  0.1098 -0.0799
10244TIP3    H152223   0.577   0.712   6.144  0.8997  0.2429  0.3519
10244TIP3    H252224   0.479   0.694   6.258  0.2950  0.9602 -0.0465
10245TIP3   OH252225   2.803   2.386   2.804 -0.2210 -0.1782  0.3981
10245TIP3    H152226   2.710   2.406   2.798 -0.0705  1.2868  2.0744
10245TIP3    H252227   2.821   2.386   2.898  1.8605  1.5700  0.0670
10246TIP3   OH252228   1.468   2.095   2.632 -0.5862  0.3582  0.5862
10246TIP3    H152229   1.469   2.109   2.537 -0.1498 -2.2470  0.1283
10246TIP3    H252230   1.519   2.168   2.668  1.6135 -0.0565 -1.4457
10247TIP3   OH252231   3.780   1.093   4.914 -0.5794  0.3650  0.1266
10247TIP3    H152232   3.843   1.023   4.903 -0.1408  0.7969 -0.1444
10247TIP3    H252233   3.728   1.093   4.834  1.7021  2.5987 -1.5060
10248TIP3   OH252234   2.665   3.899  41.351  0.3299 -0.0327  0.1471
10248TIP3    H152235   2.670   3.977  41.296  0.9746 -0.4354 -0.3801
10248TIP3    H252236   2.750   3.856  41.339 -0.1115 -0.9472  0.2388
10249TIP3   OH252237   1.551   3.522  13.421  0.0114  0.5213  0.1552
10249TIP3    H152238   1.569   3.580  13.347 -0.1574 -0.5534 -0.7617
10249TIP3    H252239   1.619   3.455  13.417 -2.3173 -1.9894 -1.6712
10250TIP3   OH252240   0.503   0.927  12.820  0.1774 -0.5379  0.2565
10250TIP3    H152241   0.538   1.001  12.868 -1.8129 -0.7495  2.2238
10250TIP3    H252242   0.568   0.857  12.833  1.0293  0.2228  0.1941
10251TIP3   OH252243   3.815   0.857  32.590 -0.4100  0.4776 -0.4540
10251TIP3    H152244   3.743   0.868  32.528  1.1453  1.9486 -2.1223
10251TIP3    H252245   3.807   0.932  32.649 -0.4390  0.4644 -0.4410
10252TIP3   OH252246   2.747   2.104  22.285  0.1903 -0.0105 -0.1001
10252TIP3    H152247   2.723   2.155  22.362  2.2931  0.6539  0.1705
10252TIP3    H252248   2.668   2.104  22.231 -0.7458  1.0902  1.2013
10253TIP3   OH252249   0.019   0.864  13.435 -0.7660  0.0612  0.0412
10253TIP3    H152250   0.012   0.959  13.425 -1.3069  0.1473  1.0339
10253TIP3    H252251   0.063   0.852  13.519  0.7563 -0.5790 -0.8101
10254TIP3   OH252252   3.950   2.493   0.331 -0.0254 -0.7008 -0.0170
10254TIP3    H152253   3.938   2.410   0.284 -1.4247 -0.1799 -0.6638
10254TIP3    H252254   4.044   2.505   0.335  0.1747 -1.2602 -1.8831
10255TIP3   OH252255   1.190   0.076  45.788 -0.0199 -0.2178  0.5262
10255TIP3    H152256   1.237  -0.003  45.761  0.5976  0.1148  0.6087
10255TIP3    H252257   1.101   0.062  45.758  0.3121 -0.5080 -0.3690
10256TIP3   OH252258   1.585   3.555   0.074 -0.5101  0.0434 -0.3624
10256TIP3    H152259   1.614   3.471   0.037 -0.2478  0.6171 -1.5153
10256TIP3    H252260   1.589   3.542   0.169  2.2723 -0.3795 -0.4323
10257TIP3   OH252261   2.236   3.702   2.524  0.3354 -0.0193 -0.1551
10257TIP3    H152262   2.270   3.791   2.532 -0.2902  0.1613  0.5241
10257TIP3    H252263   2.245   3.665   2.612 -2.3020  0.4234  0.3705
10258TIP3   OH252264   2.132   2.681  40.075  0.1123  0.6729 -0.6961
10258TIP3    H152265   2.095   2.698  40.162  0.2581  0.4858 -0.5984
10258TIP3    H252266   2.225   2.702  40.084 -0.0425  1.5735 -1.0563
10259TIP3   OH252267   0.912   2.701   0.650 -0.4094  0.5045 -0.0769
10259TIP3    H152268   0.889   2.785   0.611  0.0594  0.4002 -0.5949
10259TIP3    H252269   1.002   2.714   0.683 -0.1753  0.0853 -0.5371
10260TIP3   OH252270   2.882   3.093  38.154 -0.3223 -0.0867 -0.6510
10260TIP3    H152271   2.969   3.057  38.140 -0.4577 -0.1898 -1.2603
10260TIP3    H252272   2.869   3.090  38.248 -0.1150 -1.1431 -0.6436
10261TIP3   OH252273   1.549   4.024  12.004  0.3391 -0.6947  0.4658
10261TIP3    H152274   1.469   3.973  12.013 -1.6371  1.7335 -1.9129
10261TIP3    H252275   1.582   4.003  11.917  2.5117 -1.7884  1.4656
10262TIP3   OH252276   1.049   3.325  39.746  0.1190  0.1237 -0.4912
10262TIP3    H152277   1.092   3.254  39.699  1.7622  0.3727  0.5664
10262TIP3    H252278   0.956   3.301  39.746  0.4591 -1.2846 -1.3654
10263TIP3   OH252279   1.004   1.861   4.110 -0.1453  0.4638  0.7953
10263TIP3    H152280   0.988   1.807   4.188 -3.0897 -1.6067 -1.0290
10263TIP3    H252281   1.085   1.826   4.073 -0.3542 -0.6211  1.3258
10264TIP3   OH252282   0.458   1.727  11.308  0.1966 -0.1714  0.1549
10264TIP3    H152283   0.512   1.798  11.273 -0.7991  0.8917  0.6845
10264TIP3    H252284   0.519   1.654  11.319  1.4810  0.9050  0.5151
10265TIP3   OH252285   2.838   3.391   0.264  0.2676  0.5267 -0.4940
10265TIP3    H152286   2.909   3.414   0.324 -2.1270  2.9587  1.6575
10265TIP3    H252287   2.762   3.380   0.320 -1.0934 -2.4710 -2.6545
10266TIP3   OH252288   1.850   0.532  41.321 -0.1933 -0.2807  0.0604
10266TIP3    H152289   1.834   0.495  41.234 -1.6784  3.3216 -1.3864
10266TIP3    H252290   1.909   0.470  41.363 -0.2443 -2.7104 -3.0927
10267TIP3   OH252291   2.074   1.648  45.649  0.2754 -0.6259 -0.7693
10267TIP3    H152292   1.984   1.622  45.667  0.3552 -0.0505  0.5717
10267TIP3    H252293   2.113   1.662  45.735  1.0906  0.9728 -1.3519
10268TIP3   OH252294   1.417   1.502   9.995 -0.4779 -0.6264 -0.1888
10268TIP3    H152295   1.327   1.480   9.970 -0.6612  0.1286 -0.2243
10268TIP3    H252296   1.407   1.559  10.072  0.0337 -1.9535  0.9159
10269TIP3   OH252297   0.406   1.400  46.857  0.3840 -0.4297 -0.2949
10269TIP3    H152298   0.435   1.439  46.940 -0.2486 -0.0477 -0.2450
10269TIP3    H252299   0.431   1.308  46.864  0.4467 -0.3757  0.2715
10270TIP3   OH252300   0.250   3.247   5.128  0.3202 -0.2717 -0.1700
10270TIP3    H152301   0.318   3.190   5.162 -0.4801 -0.9801  0.2759
10270TIP3    H252302   0.169   3.199   5.143 -0.3322  0.8065 -0.1643
10271TIP3   OH252303   0.212   3.180  11.734  0.0264 -0.1620 -0.5868
10271TIP3    H152304   0.198   3.204  11.643  1.1608  0.1243 -0.6980
10271TIP3    H252305   0.163   3.246  11.784  1.3596  1.1350 -0.9433
10272TIP3   OH252306   0.024   2.039  17.323 -0.0194 -0.3458  0.4265
10272TIP3    H152307  -0.054   2.094  17.320  0.0336 -0.3202 -1.2052
10272TIP3    H252308   0.086   2.089  17.376 -0.1945  0.9044 -0.4905
10273TIP3   OH252309   0.826   2.673  46.750 -0.9389  0.4339 -0.0686
10273TIP3    H152310   0.909   2.679  46.798 -0.6031 -0.2146 -0.5574
10273TIP3    H252311   0.834   2.593  46.698 -1.3650  1.0317 -1.0788
10274TIP3   OH252312   1.228   0.201   8.201 -0.0241 -0.0283 -0.2716
10274TIP3    H152313   1.320   0.226   8.187  0.1465  1.1539  2.3737
10274TIP3    H252314   1.229   0.155   8.285 -1.5672 -2.0798 -1.3117
10275TIP3   OH252315   3.303   3.814   9.137 -0.0300 -0.4101 -0.0690
10275TIP3    H152316   3.237   3.839   9.201  0.0636  0.8613 -0.4574
10275TIP3    H252317   3.259   3.752   9.080 -0.1953 -1.3601  1.0462
10276TIP3   OH252318   2.290   3.564   0.818 -0.2149 -0.3891  0.2413
10276TIP3    H152319   2.243   3.641   0.785  0.0765  0.6216  2.1112
10276TIP3    H252320   2.357   3.547   0.752 -0.9622  0.2678 -0.7254
10277TIP3   OH252321   1.468   2.902   0.275 -0.4630  0.9706 -0.0568
10277TIP3    H152322   1.521   2.838   0.228 -0.8356  0.0226  0.7572
10277TIP3    H252323   1.473   2.874   0.367 -1.7807  1.2764  0.1298
10278TIP3   OH252324   4.046   1.936  46.752 -0.5758 -0.1538  0.1983
10278TIP3    H152325   3.978   1.958  46.688 -2.1521  0.8850  2.0958
10278TIP3    H252326   4.048   1.840  46.753 -0.4447 -0.1840 -1.4417
10279TIP3   OH252327   3.321   1.500  10.622 -0.4297 -0.4332 -0.1897
10279TIP3    H152328   3.342   1.592  10.602 -0.7210 -0.3404 -0.0633
10279TIP3    H252329   3.233   1.487  10.587 -0.5591 -0.5439  0.1769
10280TIP3   OH252330   0.950   3.696  28.023 -0.5494  0.6942  0.0823
10280TIP3    H152331   0.920   3.691  28.113  0.6577  2.0530  0.5926
10280TIP3    H252332   0.976   3.606  28.001 -1.1996  0.2858  0.9422
10281TIP3   OH252333   3.094   2.433  44.432 -0.0596 -0.0975 -0.4549
10281TIP3    H152334   3.108   2.368  44.500  0.2241  0.1292 -0.2926
10281TIP3    H252335   3.068   2.512  44.479  0.8468  0.2717 -0.5440
10282TIP3   OH252336   3.527   3.772  47.143  0.1427 -0.5154 -0.2063
10282TIP3    H152337   3.615   3.793  47.177  0.5056 -2.1918 -0.0433
10282TIP3    H252338   3.541   3.751  47.051 -0.0706 -0.9042 -0.1499
10283TIP3   OH252339   3.144   3.041  33.523 -0.4091 -0.4334  0.2984
10283TIP3    H152340   3.146   3.103  33.451 -1.8403 -0.5878  0.0999
10283TIP3    H252341   3.220   3.065  33.577 -0.2350  0.7021 -0.4124
10284TIP3   OH252342   3.361   3.099  44.772  0.5129  0.3551 -0.1101
10284TIP3    H152343   3.430   3.033  44.770  0.5553  0.4037 -0.2301
10284TIP3    H252344   3.374   3.145  44.855 -0.2255 -0.5489  0.5297
10285TIP3   OH252345   1.287   3.596   2.204 -0.2837 -0.0725  0.4684
10285TIP3    H152346   1.233   3.620   2.129  1.0309 -1.5488 -1.0102
10285TIP3    H252347   1.280   3.501   2.209  0.1003 -0.0428  1.8976
10286TIP3   OH252348   2.569   2.881  15.184 -0.0883  0.0631 -0.2740
10286TIP3    H152349   2.508   2.809  15.200  0.8017 -0.8505 -0.8762
10286TIP3    H252350   2.620   2.852  15.108  1.2482  0.6997  0.3465
10287TIP3   OH252351   0.968   2.473  45.876  0.6503 -0.0874 -0.6385
10287TIP3    H152352   0.968   2.442  45.966 -1.3319  0.6029 -0.3435
10287TIP3    H252353   0.900   2.420  45.833 -1.3026  2.2593 -0.6478
10288TIP3   OH252354   3.195   2.791  33.547  0.1360  0.2728  0.6789
10288TIP3    H152355   3.289   2.804  33.560  0.6566 -0.3684 -1.8802
10288TIP3    H252356   3.165   2.872  33.505  0.0650 -0.4033 -0.6257
10289TIP3   OH252357   2.764   3.888  36.941  0.5226  0.6070 -0.0501
10289TIP3    H152358   2.826   3.835  36.990  0.0660 -0.1409 -0.2634
10289TIP3    H252359   2.709   3.825  36.895 -0.0395  1.2643 -0.3044
10290TIP3   OH252360   4.052   3.924   0.633  0.1222  0.3698  0.5867
10290TIP3    H152361   4.094   3.987   0.692 -0.2177 -0.2638  1.5438
10290TIP3    H252362   4.123   3.886   0.582  0.7067 -0.5182  2.0141
10291TIP3   OH252363   2.134   3.616   0.157  0.1964  0.0089 -0.1250
10291TIP3    H152364   2.193   3.633   0.083  0.3382 -0.4437 -0.1186
10291TIP3    H252365   2.074   3.549   0.126  0.4197 -0.3772  0.2471
10292TIP3   OH252366   3.626   3.289   1.737 -0.2371  0.1499 -0.8615
10292TIP3    H152367   3.566   3.338   1.680 -0.1047  1.7761  0.3352
10292TIP3    H252368   3.686   3.355   1.771  1.6847 -1.2955 -1.2891
10293TIP3   OH252369   3.762   0.566  43.188 -0.2125  0.3442  0.2687
10293TIP3    H152370   3.709   0.487  43.183  0.8667 -0.3672 -3.3215
10293TIP3    H252371   3.852   0.536  43.175  0.5138  1.9667  1.2162
10294TIP3   OH252372   3.243   0.532  31.232  0.3543  0.3039 -0.3491
10294TIP3    H152373   3.203   0.588  31.165  0.4923  1.3548  0.4137
10294TIP3    H252374   3.207   0.445  31.215 -0.7386  0.8342 -0.8863
10295TIP3   OH252375   3.527   1.319  18.979  0.1307 -0.0848  0.4237
10295TIP3    H152376   3.502   1.309  19.071  1.4027  0.7959  0.8915
10295TIP3    H252377   3.618   1.351  18.982 -0.1769  1.0601 -1.1019
10296TIP3   OH252378   1.802   3.891  35.822 -0.4010  0.3701 -0.0152
10296TIP3    H152379   1.715   3.929  35.812 -0.4359  0.5500  0.9569
10296TIP3    H252380   1.858   3.965  35.847  0.0063  0.2193 -0.4439
10297TIP3   OH252381   1.997   1.426  33.463 -0.3915  0.1303 -0.1314
10297TIP3    H152382   1.937   1.426  33.388 -1.7062 -2.4512  0.8024
10297TIP3    H252383   2.018   1.518  33.476 -3.2251  1.0563 -1.2599
10298TIP3   OH252384   1.713   0.437  44.121  0.3659 -0.6521  0.0630
10298TIP3    H152385   1.699   0.401  44.209 -2.0569 -0.6324 -0.2559
10298TIP3    H252386   1.757   0.521  44.136 -0.1254 -0.5916  1.2584
10299TIP3   OH252387   1.921   1.197   3.743  0.4138 -0.8176  0.7619
10299TIP3    H152388   1.887   1.152   3.666 -1.7105  0.0623  1.1076
10299TIP3    H252389   1.960   1.277   3.709 -2.8976  0.9383  0.6346
10300TIP3   OH252390   1.202   2.041  10.091 -0.5312  0.3493 -0.0854
10300TIP3    H152391   1.193   2.021   9.998  0.8745  0.2512 -0.2191
10300TIP3    H252392   1.246   2.126  10.093  0.4653 -0.1614  0.4661
10301TIP3   OH252393   0.372   1.144  36.961 -0.6051  0.4297 -0.2826
10301TIP3    H152394   0.423   1.137  36.880 -2.0490 -0.0417 -1.1745
10301TIP3    H252395   0.373   1.237  36.982  0.8704  0.3982 -0.1084
10302TIP3   OH252396   3.809   1.961  11.054  0.0079 -0.1266  0.0686
10302TIP3    H152397   3.896   1.996  11.034 -0.2820  0.4193 -0.2696
10302TIP3    H252398   3.791   1.991  11.143  0.9182 -1.7871  0.8588
10303TIP3   OH252399   3.943   1.578  33.202  0.2002 -0.6949 -0.1601
10303TIP3    H152400   3.856   1.543  33.218 -1.0898  2.1080 -0.5049
10303TIP3    H252401   3.971   1.616  33.285  0.3478 -0.1332 -0.4520
10304TIP3   OH252402   3.700   2.577  46.362 -0.0694 -0.1529  0.4114
10304TIP3    H152403   3.683   2.609  46.273 -0.3342 -0.7028  0.2628
10304TIP3    H252404   3.623   2.605  46.413 -0.4463 -0.8081  0.2104
10305TIP3   OH252405   1.455   0.432  13.361 -0.1015 -0.8721  0.0219
10305TIP3    H152406   1.448   0.512  13.413 -0.1326 -0.8805  0.0310
10305TIP3    H252407   1.369   0.423  13.319  0.1125 -0.5479 -0.4990
10306TIP3   OH252408   0.935   0.378  14.261  0.2627  0.0838 -0.2323
10306TIP3    H152409   0.878   0.302  14.275 -0.8822  1.0222  0.3466
10306TIP3    H252410   1.007   0.365  14.323  0.2138 -0.6528 -0.3175
10307TIP3   OH252411   2.855   2.080   6.192  0.1413  0.0126 -0.9824
10307TIP3    H152412   2.778   2.129   6.162 -0.3345  0.1257  0.3350
10307TIP3    H252413   2.921   2.095   6.125  0.1273  2.7464 -0.4771
10308TIP3   OH252414   3.382   3.805  10.512  0.1423 -0.0357 -0.3397
10308TIP3    H152415   3.400   3.724  10.559  2.8708  0.9400  0.4769
10308TIP3    H252416   3.319   3.852  10.568 -1.0938 -1.3390 -0.5949
10309TIP3   OH252417   3.173   2.638  41.240  0.2699 -0.7820 -0.1368
10309TIP3    H152418   3.095   2.625  41.294  0.7104 -2.0168  0.2315
10309TIP3    H252419   3.245   2.600  41.290  1.1384  0.3671 -0.4619
10310TIP3   OH252420   3.240   0.019  38.633 -0.5011  0.4563 -0.7333
10310TIP3    H152421   3.161  -0.023  38.668 -0.5429  1.2815  0.2148
10310TIP3    H252422   3.207   0.072  38.560 -0.9812  1.3850  0.1181
10311TIP3   OH252423   2.567   1.667  31.193 -0.1102  0.0360  0.2824
10311TIP3    H152424   2.610   1.689  31.110  0.6741  0.6016  0.8219
10311TIP3    H252425   2.594   1.577  31.211 -1.8741 -0.8296 -1.0341
10312TIP3   OH252426   2.273   4.039  41.013 -0.1486 -0.1319 -0.1539
10312TIP3    H152427   2.347   3.984  40.990 -0.6738 -0.8872 -0.0650
10312TIP3    H252428   2.290   4.066  41.103  0.1899 -0.0019 -0.2533
10313TIP3   OH252429   0.238   2.017  17.058 -0.0351  0.3811  0.2725
10313TIP3    H152430   0.163   2.071  17.034 -0.5919 -1.1458 -1.6381
10313TIP3    H252431   0.234   2.012  17.154 -0.2862  3.1458  0.4875
10314TIP3   OH252432   1.679   0.476  15.157 -0.0996 -0.4802  0.0361
10314TIP3    H152433   1.773   0.485  15.175  0.2549 -2.6237 -0.5565
10314TIP3    H252434   1.640   0.456  15.242  0.1233 -0.6032  0.1090
10315TIP3   OH252435   0.486   2.179  31.277  0.4134  0.7545  0.0520
10315TIP3    H152436   0.408   2.205  31.228  0.0537 -0.4281 -0.0089
10315TIP3    H252437   0.455   2.116  31.341  1.3424  0.1665 -0.0638
10316TIP3   OH252438   2.160   2.100  35.457  0.1237 -0.6098  0.2118
10316TIP3    H152439   2.214   2.178  35.471  0.7778 -0.7945 -1.0811
10316TIP3    H252440   2.200   2.057  35.381  0.0441 -2.4521  1.1550
10317TIP3   OH252441   1.239   3.750   3.769  0.7033 -0.1291  0.2519
10317TIP3    H152442   1.213   3.740   3.860  1.9887 -1.8947  0.4821
10317TIP3    H252443   1.169   3.709   3.718 -1.2589  2.9606  0.1560
10318TIP3   OH252444   2.757   3.055  31.860 -0.1431 -0.4238 -0.0192
10318TIP3    H152445   2.723   2.975  31.820 -0.2205  0.7637 -2.4720
10318TIP3    H252446   2.684   3.117  31.857  0.9942  0.9255 -1.7256
10319TIP3   OH252447   1.279   1.017  38.479 -0.1279  0.6532  0.2388
10319TIP3    H152448   1.365   0.975  38.485 -0.3722  0.2821  1.5643
10319TIP3    H252449   1.217   0.947  38.501 -0.5939  1.4430  1.5674
10320TIP3   OH252450   2.212   2.611  15.020  0.2109  0.1310 -0.1501
10320TIP3    H152451   2.282   2.553  14.991 -1.1698 -1.7303  0.0428
10320TIP3    H252452   2.216   2.606  15.116  1.0403  1.6080 -0.0813
10321TIP3   OH252453   2.371   2.751  14.727  0.4346  0.2541  0.4132
10321TIP3    H152454   2.410   2.747  14.639  0.0038  1.1870  0.1703
10321TIP3    H252455   2.373   2.661  14.758  0.5039 -0.1023 -0.5938
10322TIP3   OH252456   0.812   3.123   9.717 -0.0531  0.1751 -0.4799
10322TIP3    H152457   0.765   3.045   9.745 -0.9964  1.3635  1.4214
10322TIP3    H252458   0.899   3.114   9.756 -0.4570  0.4938  0.5151
10323TIP3   OH252459   2.974   1.803   4.036  0.5330 -0.0062 -0.2671
10323TIP3    H152460   2.907   1.813   4.104  2.3507 -1.5786  1.9253
10323TIP3    H252461   2.953   1.719   3.995  0.7282 -0.1402 -0.0932
10324TIP3   OH252462   2.880   2.997  45.008 -0.3322  0.0018  0.1782
10324TIP3    H152463   2.836   2.968  45.087 -0.6646 -0.9174 -0.3182
10324TIP3    H252464   2.810   3.029  44.951  0.0474  2.0768  0.7885
10325TIP3   OH252465   1.570   3.941  33.633  0.2987  0.2325 -0.2239
10325TIP3    H152466   1.511   3.867  33.647  0.7582  0.1797  1.7083
10325TIP3    H252467   1.524   4.016  33.671  1.6063  0.0930  1.8015
10326TIP3   OH252468   1.190   3.109  34.989 -0.1968 -0.0496  0.3436
10326TIP3    H152469   1.154   3.068  35.068 -0.5427 -0.8510 -0.2174
10326TIP3    H252470   1.188   3.040  34.923 -1.6703  1.1327 -0.9029
10327TIP3   OH252471   3.806   0.922  20.654 -0.3171  0.3741 -0.5574
10327TIP3    H152472   3.775   0.832  20.654 -3.5712  1.3628 -1.8154
10327TIP3    H252473   3.813   0.945  20.747  1.1875 -1.2722 -0.2105
10328TIP3   OH252474   1.324   3.855  11.940  0.1472 -0.1211 -0.2382
10328TIP3    H152475   1.313   3.763  11.966  1.3060  0.0602  1.0356
10328TIP3    H252476   1.236   3.892  11.944 -0.3206 -1.1499 -0.6962
10329TIP3   OH252477   1.806   0.980  40.430 -0.0904  0.0390 -0.7031
10329TIP3    H152478   1.858   0.934  40.364 -0.8757  1.6711 -2.5826
10329TIP3    H252479   1.717   0.950  40.415 -0.2278  0.1710 -0.1494
10330TIP3   OH252480   1.233   2.246  36.888 -0.2955 -0.0734 -0.7204
10330TIP3    H152481   1.319   2.248  36.846 -0.1714 -3.0365 -0.8166
10330TIP3    H252482   1.215   2.153  36.901 -2.6144  0.5479  1.1590
10331TIP3   OH252483   0.812   0.959  36.322  0.2060  0.1894 -0.3111
10331TIP3    H152484   0.726   0.991  36.351  0.8136  1.1594  0.5150
10331TIP3    H252485   0.856   0.933  36.403  0.5069 -0.8097 -0.7754
10332TIP3   OH252486   2.884   3.727  41.369 -0.3964 -0.1349  0.3421
10332TIP3    H152487   2.954   3.687  41.421 -0.2809 -0.8408 -0.3481
10332TIP3    H252488   2.808   3.671  41.383 -1.4539  1.6809  2.6647
10333TIP3   OH252489   0.766   0.283  31.537 -0.1676 -0.8907  0.1924
10333TIP3    H152490   0.774   0.199  31.492  1.4386 -1.0492  0.7069
10333TIP3    H252491   0.856   0.313  31.548 -0.6965  0.7476  0.3280
10334TIP3   OH252492   0.161   1.376  35.740 -0.3900 -0.0531 -0.4678
10334TIP3    H152493   0.203   1.290  35.747  0.4489  0.3459 -0.5679
10334TIP3    H252494   0.071   1.356  35.714  0.0274 -0.8608 -1.3442
10335TIP3   OH252495   3.542   1.894  32.599  0.1104  0.0204  0.3620
10335TIP3    H152496   3.606   1.838  32.556  0.4178 -0.2659  1.1802
10335TIP3    H252497   3.457   1.854  32.579  0.4257 -1.8979  2.5545
10336TIP3   OH252498   1.884   0.271  42.349  0.3289  0.0047 -0.0548
10336TIP3    H152499   1.805   0.265  42.403  1.8013 -1.9284  2.0916
10336TIP3    H252500   1.890   0.186  42.306  1.5031 -0.0968  0.2765
10337TIP3   OH252501   3.691   0.069  45.036  0.1152  0.4514  0.3518
10337TIP3    H152502   3.596   0.073  45.028  0.2076  0.4781 -0.8820
10337TIP3    H252503   3.714  -0.017  45.001  0.5447  0.3981  0.7526
10338TIP3   OH252504   0.891   1.985  13.793 -0.4516 -0.6554  0.6195
10338TIP3    H152505   0.926   2.066  13.756  0.2548 -0.9007  0.7330
10338TIP3    H252506   0.961   1.921  13.781 -0.5189 -0.9354  1.6620
10339TIP3   OH252507   2.787   2.980   3.335 -0.0005 -0.2362  0.0302
10339TIP3    H152508   2.830   2.906   3.293  0.9411  0.4472 -0.2454
10339TIP3    H252509   2.832   2.989   3.419 -2.2673 -1.9743  1.5562
10340TIP3   OH252510   2.220   2.008  14.974 -0.0468 -0.5168 -0.0625
10340TIP3    H152511   2.174   1.993  15.056  0.6902 -1.2677  0.2151
10340TIP3    H252512   2.184   1.943  14.914  0.6443 -1.1210  0.1610
10341TIP3   OH252513   3.802   0.664   0.531 -0.0249  0.0275  0.0066
10341TIP3    H152514   3.766   0.621   0.608 -0.2832  1.3921  0.6710
10341TIP3    H252515   3.764   0.752   0.532  0.5086  0.2964 -1.2939
10342TIP3   OH252516   1.464   4.015  36.014  0.2838 -0.2790 -0.0580
10342TIP3    H152517   1.398   4.053  35.956  1.2933 -0.1124 -1.1342
10342TIP3    H252518   1.497   4.090  36.064 -0.3525 -0.3691  0.5120
10343TIP3   OH252519   3.301   3.401  14.069  0.2501  0.2865 -0.4739
10343TIP3    H152520   3.363   3.436  14.134  0.2122  1.7219 -1.1877
10343TIP3    H252521   3.216   3.435  14.095 -0.7391 -3.2818  1.6968
10344TIP3   OH252522   0.513   3.652  13.590 -0.7081 -0.1293  0.0015
10344TIP3    H152523   0.512   3.680  13.682 -2.4310 -0.8509  0.2545
10344TIP3    H252524   0.503   3.557  13.594  0.4406 -0.3040 -0.9261
10345TIP3   OH252525   0.306   3.955  13.952  0.0250  0.1408  0.4046
10345TIP3    H152526   0.328   3.861  13.949 -1.1312 -0.1147 -1.1945
10345TIP3    H252527   0.216   3.959  13.922  0.4573  1.8910 -0.7401
10346TIP3   OH252528   0.020   0.934  39.941  0.2882  0.5640  0.7786
10346TIP3    H152529  -0.066   0.964  39.970  0.4094  1.4541  0.2313
10346TIP3    H252530   0.017   0.941  39.846 -0.5788 -3.5382  0.2959
10347TIP3   OH252531   3.382   0.844  12.396 -0.3651  0.0902 -0.2096
10347TIP3    H152532   3.345   0.763  12.363  2.8288 -1.1075 -1.2676
10347TIP3    H252533   3.442   0.873  12.327  1.1142  1.4556  1.5321
10348TIP3   OH252534   2.480   2.683  43.344 -0.0411  0.1930  0.4195
10348TIP3    H152535   2.394   2.670  43.305 -0.8918  0.6447  2.0441
10348TIP3    H252536   2.542   2.657  43.276 -1.4583 -0.5118 -0.6462
10349TIP3   OH252537   0.804   2.629  31.134  0.2905 -0.2026  0.4281
10349TIP3    H152538   0.804   2.536  31.111 -0.7247 -0.1555  0.1805
10349TIP3    H252539   0.771   2.673  31.055 -0.2802  0.2601  0.9133
10350TIP3   OH252540   2.091   0.861   6.143 -0.2868 -0.2459 -0.1458
10350TIP3    H152541   2.019   0.902   6.095 -2.0382 -2.2453  0.6261
10350TIP3    H252542   2.170   0.902   6.107 -1.7757  2.1789 -0.8917
10351TIP3   OH252543   0.884   1.227  38.039  0.0764  0.0510  0.1002
10351TIP3    H152544   0.869   1.133  38.037  2.0878 -0.4273  2.4028
10351TIP3    H252545   0.796   1.266  38.042 -0.8978 -1.5095 -3.4725
10352TIP3   OH252546   2.149   3.740  33.452 -0.0582 -0.2842  0.1793
10352TIP3    H152547   2.167   3.781  33.367 -0.1135 -0.8928 -0.1334
10352TIP3    H252548   2.232   3.700  33.477  0.4282  1.3223  1.2312
10353TIP3   OH252549   2.310   0.825  15.454  0.2145 -0.3549 -0.0608
10353TIP3    H152550   2.324   0.917  15.429 -0.0270  0.0322  1.1697
10353TIP3    H252551   2.215   0.815  15.457  0.2202 -0.9716 -1.2749
10354TIP3   OH252552   2.428   3.640  38.371 -0.4271  0.1049 -0.0014
10354TIP3    H152553   2.481   3.644  38.450  0.9406 -4.0730 -0.4688
10354TIP3    H252554   2.472   3.699  38.310 -0.0876  1.5136  1.5274
10355TIP3   OH252555   3.388   1.656  14.483  0.1109  0.4055  0.0866
10355TIP3    H152556   3.372   1.710  14.561  0.5964  1.6827 -0.6724
10355TIP3    H252557   3.354   1.569  14.507 -1.3933  1.2181  1.0678
10356TIP3   OH252558   3.604   3.170   7.842  0.2639 -0.4735  0.5357
10356TIP3    H152559   3.638   3.242   7.895 -1.1791  1.1643 -0.6608
10356TIP3    H252560   3.589   3.208   7.755  0.1440 -2.4165 -0.3670
10357TIP3   OH252561   0.692   0.136  37.487 -0.0492  0.1345 -0.4629
10357TIP3    H152562   0.778   0.174  37.467 -0.0725  0.1850 -0.4648
10357TIP3    H252563   0.690   0.055  37.435  0.1888 -0.1081 -0.1021
10358TIP3   OH252564   3.242   1.803  42.852  0.0959  0.4428 -0.1134
10358TIP3    H152565   3.267   1.760  42.934  2.9088  0.5997 -0.7951
10358TIP3    H252566   3.258   1.896  42.867  0.4412  0.4960 -0.7627
10359TIP3   OH252567   2.188   2.675  40.496  0.4600  0.8679  0.0292
10359TIP3    H152568   2.252   2.714  40.437  0.4644  3.1571  1.4296
10359TIP3    H252569   2.104   2.712  40.468  0.4762  2.0546  1.4297
10360TIP3   OH252570   3.255   0.389  42.701  0.2742  0.0681  0.7280
10360TIP3    H152571   3.181   0.427  42.748  0.2571  0.1388  0.6427
10360TIP3    H252572   3.330   0.399  42.760 -0.0530 -1.2477  1.4066
10361TIP3   OH252573   1.893   3.048   2.724  0.4320 -0.8317  0.1791
10361TIP3    H152574   1.942   3.074   2.646 -0.0502  2.1026  0.7315
10361TIP3    H252575   1.828   2.985   2.692 -0.3102  0.9241 -1.9940
10362TIP3   OH252576   1.581   3.544  27.695  0.0233  0.1189  0.2922
10362TIP3    H152577   1.625   3.466  27.729 -1.4195 -0.4275  1.0103
10362TIP3    H252578   1.500   3.511  27.656  0.2298  1.0804 -1.0295
10363TIP3   OH252579   1.720   1.295   8.811  0.0711  0.6223  0.1159
10363TIP3    H152580   1.693   1.286   8.720  2.3307  1.0456 -0.6654
10363TIP3    H252581   1.795   1.355   8.808  0.8899 -0.2101  2.1094
10364TIP3   OH252582   0.638   3.433  29.969 -0.3000  0.2541 -0.3081
10364TIP3    H152583   0.627   3.347  30.010 -0.9093  0.7896  0.6795
10364TIP3    H252584   0.584   3.429  29.890  1.3891 -1.0094 -1.4688
10365TIP3   OH252585   3.498   0.545   1.536 -0.2455  0.2922 -0.0354
10365TIP3    H152586   3.408   0.531   1.507  0.0089 -0.5563 -0.4264
10365TIP3    H252587   3.548   0.559   1.456 -0.0884  1.1413  0.2031
10366TIP3   OH252588   2.273   2.365  14.422  0.1327  0.0422  0.3105
10366TIP3    H152589   2.183   2.389  14.444  0.3279  2.8332 -1.3852
10366TIP3    H252590   2.265   2.292  14.361 -0.9512 -0.0366  0.5356
10367TIP3   OH252591   3.989   0.550   9.163 -0.0601  0.3055  0.0288
10367TIP3    H152592   3.937   0.603   9.102 -1.2081 -0.4751  0.2943
10367TIP3    H252593   3.951   0.569   9.249 -0.5630 -0.9994  0.1126
10368TIP3   OH252594   2.723   0.370   5.056  0.5226 -0.4856 -0.0577
10368TIP3    H152595   2.788   0.400   4.993  0.8993 -2.5374 -0.7400
10368TIP3    H252596   2.760   0.392   5.141  0.9995  0.4412 -0.4924
10369TIP3   OH252597   2.728   3.960  11.630  0.0310 -0.6107  0.1351
10369TIP3    H152598   2.715   3.868  11.651 -0.6164 -0.4797  0.3262
10369TIP3    H252599   2.751   4.001  11.713  0.0105 -0.5444  0.1082
10370TIP3   OH252600   3.790   1.489  38.776 -0.1036 -0.7733  0.2198
10370TIP3    H152601   3.837   1.407  38.770  1.8309 -0.0753  3.5788
10370TIP3    H252602   3.748   1.488  38.862 -1.8191  0.9134 -0.4960
10371TIP3   OH252603   3.764   0.556  26.339 -0.4401 -0.0848  0.4565
10371TIP3    H152604   3.825   0.596  26.278 -0.1991 -1.7871 -0.5053
10371TIP3    H252605   3.718   0.490  26.286 -0.5875 -1.2636  2.0012
10372TIP3   OH252606   3.014   0.521  10.425 -0.5250 -0.2445  0.2779
10372TIP3    H152607   3.004   0.429  10.404 -1.4073  0.2389 -1.6666
10372TIP3    H252608   3.037   0.523  10.518 -1.0516 -2.3733  0.4870
10373TIP3   OH252609   1.685   0.181  43.970 -0.0974  0.3013 -0.0578
10373TIP3    H152610   1.744   0.186  43.895 -0.5501 -1.6664 -0.5991
10373TIP3    H252611   1.710   0.256  44.025  1.4749  0.7228 -1.2618
10374TIP3   OH252612   3.149   1.065  42.454  0.2223 -0.2595 -0.4222
10374TIP3    H152613   3.208   1.140  42.463  1.2769 -1.1940  0.8855
10374TIP3    H252614   3.095   1.068  42.533  0.8545 -1.3278  0.0729
10375TIP3   OH252615   0.079   1.455   4.003 -0.7082 -0.0418  0.7854
10375TIP3    H152616   0.003   1.513   4.009 -1.5741 -1.0865  0.2606
10375TIP3    H252617   0.099   1.451   3.909  0.1481  0.3877  0.9327
10376TIP3   OH252618   0.399   2.727  11.212  0.2197  0.2806  0.5079
10376TIP3    H152619   0.426   2.642  11.248  0.0731  0.1671  0.3523
10376TIP3    H252620   0.368   2.707  11.124 -1.4696  0.2091  1.0770
10377TIP3   OH252621   0.424   3.530  15.231 -0.0627 -0.5562 -0.1278
10377TIP3    H152622   0.485   3.461  15.203 -1.2546 -1.1583 -1.3121
10377TIP3    H252623   0.361   3.485  15.287  0.2091 -0.0527  0.5945
10378TIP3   OH252624   2.864   1.987   1.898 -0.6048  0.3447 -0.6955
10378TIP3    H152625   2.917   2.047   1.845 -1.2458  0.6191 -1.0333
10378TIP3    H252626   2.775   1.999   1.866 -0.9067  0.0438  0.0166
10379TIP3   OH252627   0.915   0.045  30.192 -0.7719 -0.5065 -0.3347
10379TIP3    H152628   0.953   0.028  30.278 -0.7463 -1.5173 -0.5286
10379TIP3    H252629   0.839  -0.014  30.187 -1.1832  0.0351 -0.7406
10380TIP3   OH252630   2.794   0.123  44.822 -0.5356  0.3354  0.1720
10380TIP3    H152631   2.759   0.210  44.802 -1.3822  0.1020  0.5789
10380TIP3    H252632   2.810   0.125  44.917  0.0246  0.2493  0.0816
10381TIP3   OH252633   3.121   3.408   8.558 -0.0578 -0.1979 -0.7053
10381TIP3    H152634   3.161   3.484   8.601  0.4361  0.0131 -1.5090
10381TIP3    H252635   3.032   3.437   8.535 -0.9340 -0.8602  1.6026
10382TIP3   OH252636   0.071   1.728  32.176  0.2019  0.1111 -0.4506
10382TIP3    H152637   0.009   1.800  32.165  0.8167  0.9552  1.1662
10382TIP3    H252638   0.034   1.656  32.126 -2.6346  0.2584  1.2153
10383TIP3   OH252639   1.841   3.960   0.460  0.0862  0.6096 -0.0454
10383TIP3    H152640   1.805   3.967   0.372  0.4425  3.5523 -0.0490
10383TIP3    H252641   1.799   3.882   0.497 -1.0854  0.0729 -2.3134
10384TIP3   OH252642   1.009   3.334  11.278 -0.9063 -0.2775  0.1358
10384TIP3    H152643   1.030   3.246  11.309 -0.4478  0.4400  2.0867
10384TIP3    H252644   1.058   3.343  11.196  1.1189 -1.0096  1.1753
10385TIP3   OH252645   0.922   2.173   7.465  0.2384  0.4345 -0.0429
10385TIP3    H152646   0.933   2.102   7.402  1.9595  0.1600  0.5013
10385TIP3    H252647   1.006   2.177   7.511 -0.8285  0.8802  1.9758
10386TIP3   OH252648   2.987   3.283  39.194 -0.5969 -0.1399 -0.0529
10386TIP3    H152649   2.896   3.271  39.223 -1.0655 -1.1539 -1.7568
10386TIP3    H252650   2.979   3.312  39.103  0.7961 -0.2382 -0.2265
10387TIP3   OH252651   1.140   3.953   5.545  0.5816  0.3744  0.1543
10387TIP3    H152652   1.171   3.893   5.613  0.0131 -0.3683 -0.2195
10387TIP3    H252653   1.200   3.939   5.472  0.3659  0.1465  0.0173
10388TIP3   OH252654   0.548   4.012  13.696 -0.4292 -0.5468 -0.2306
10388TIP3    H152655   0.467   3.975  13.661 -1.2726  0.3697  0.6761
10388TIP3    H252656   0.616   3.977  13.639 -1.5845 -0.2606 -1.8713
10389TIP3   OH252657   0.091   0.575  38.543  0.3192  0.4763 -0.0602
10389TIP3    H152658   0.039   0.566  38.622  0.8398 -0.6443  0.1709
10389TIP3    H252659   0.132   0.489  38.530  1.4871  1.0870 -0.6676
10390TIP3   OH252660   0.089   1.860  16.740  0.2497 -0.2461  0.0094
10390TIP3    H152661   0.173   1.905  16.747  0.5698 -0.3246 -2.5107
10390TIP3    H252662   0.099   1.803  16.664 -1.4626 -1.7091  0.8096
10391TIP3   OH252663   3.315   1.249  36.538 -0.1203  0.7958 -0.2666
10391TIP3    H152664   3.251   1.242  36.609 -1.8022  1.3789 -1.6472
10391TIP3    H252665   3.356   1.335  36.551 -1.3623  1.4787 -0.7050
10392TIP3   OH252666   0.794   0.049  44.762  0.4979 -0.2883  0.0030
10392TIP3    H152667   0.702   0.040  44.737  0.5311 -1.2837  0.2180
10392TIP3    H252668   0.800   0.136  44.801 -0.3702 -0.2595  0.0872
10393TIP3   OH252669   3.034   0.647  43.514 -0.3806 -0.1966  0.3392
10393TIP3    H152670   3.104   0.682  43.458 -1.2237  0.2972 -0.4365
10393TIP3    H252671   2.967   0.618  43.452 -0.8290 -0.7505  1.0713
10394TIP3   OH252672   0.783   0.400  39.682  0.2702  0.2116  0.0598
10394TIP3    H152673   0.799   0.468  39.748 -1.0898  1.4452 -0.8158
10394TIP3    H252674   0.707   0.432  39.632  0.1626 -1.5231 -0.9816
10395TIP3   OH252675   2.532   0.171  31.071 -0.0725 -0.6724  0.3039
10395TIP3    H152676   2.470   0.191  31.142 -0.3296  0.8037 -0.3016
10395TIP3    H252677   2.477   0.161  30.994  0.3866  0.3810 -0.1853
10396TIP3   OH252678   0.569   1.217   8.558 -0.2254  0.2021  0.3403
10396TIP3    H152679   0.623   1.202   8.480 -0.5846  1.0093 -0.0846
10396TIP3    H252680   0.489   1.166   8.542 -0.2758  0.3233  0.2060
10397TIP3   OH252681   0.851   2.624  36.761  0.0419 -0.0431  0.3898
10397TIP3    H152682   0.894   2.704  36.731 -0.7751  0.3387  0.2099
10397TIP3    H252683   0.920   2.574  36.804  0.6940  0.4926 -0.0145
10398TIP3   OH252684   0.879   0.297  34.200 -0.1103  0.4990  0.2135
10398TIP3    H152685   0.955   0.243  34.180 -0.1693  1.0075 -1.5275
10398TIP3    H252686   0.915   0.384  34.218 -0.1191  0.2121  1.7617
10399TIP3   OH252687   3.531   0.621  32.892 -0.4209  0.7870 -0.0647
10399TIP3    H152688   3.509   0.634  32.799 -0.5781  1.3469  0.0475
10399TIP3    H252689   3.465   0.559  32.924  0.8092 -1.0059 -0.8018
10400TIP3   OH252690   3.955   2.125  34.334  0.1482 -1.0304  0.6106
10400TIP3    H152691   3.930   2.217  34.323 -0.7468 -1.3782 -0.5705
10400TIP3    H252692   3.981   2.118  34.425  0.0360  0.3553  0.7795
10401TIP3   OH252693   3.716   4.022   3.512  0.6269  0.3156 -0.2220
10401TIP3    H152694   3.696   4.015   3.606  1.4934  1.9158  0.1286
10401TIP3    H252695   3.718   3.931   3.481 -3.5182 -0.1559  0.4034
10402TIP3   OH252696   1.266   1.485  37.411  0.1709 -0.1012 -0.7645
10402TIP3    H152697   1.242   1.392  37.408 -0.1688  0.0060 -2.0996
10402TIP3    H252698   1.355   1.489  37.377  0.0745  0.0835 -1.0049
10403TIP3   OH252699   2.194   1.439   8.590 -0.6623 -0.3017 -0.2495
10403TIP3    H152700   2.285   1.424   8.617 -0.3187  0.6096 -0.8227
10403TIP3    H252701   2.141   1.401   8.660  0.1606 -0.8225  0.1063
10404TIP3   OH252702   3.335   0.791  41.032 -0.2318 -0.0101  0.7208
10404TIP3    H152703   3.256   0.795  41.084 -0.2642 -0.8690  0.7639
10404TIP3    H252704   3.383   0.716  41.067  1.3390  1.3985  1.7110
10405TIP3   OH252705   0.240   1.938  15.565 -0.0165 -0.3628 -0.2899
10405TIP3    H152706   0.238   1.842  15.561  2.4110 -0.5528  1.0580
10405TIP3    H252707   0.149   1.965  15.551 -0.9439 -2.9013  0.3453
10406TIP3   OH252708   0.569   2.060   4.336 -0.2660 -0.5979  0.1383
10406TIP3    H152709   0.656   2.086   4.306 -0.9242 -0.3733 -1.6627
10406TIP3    H252710   0.561   1.968   4.312 -0.7305 -0.4713 -0.1995
10407TIP3   OH252711   3.572   3.837  47.458  0.0582  0.0683  0.0815
10407TIP3    H152712   3.523   3.863  47.536 -1.4071 -0.3703 -0.6440
10407TIP3    H252713   3.654   3.886  47.463 -0.8289  1.5401  0.9099
10408TIP3   OH252714   2.686   3.368  11.060 -0.1101  0.2420 -0.2313
10408TIP3    H152715   2.621   3.393  10.994  0.3038 -0.1945 -0.8111
10408TIP3    H252716   2.651   3.288  11.099  0.2352 -0.1829 -0.7799
10409TIP3   OH252717   2.693   3.431  32.807  0.4862  0.4311 -0.3719
10409TIP3    H152718   2.700   3.497  32.738  1.9128  2.3953  1.5479
10409TIP3    H252719   2.780   3.392  32.813 -0.3546 -1.8243 -1.5506
10410TIP3   OH252720   3.385   2.960  46.181 -0.8211  0.4631 -0.5721
10410TIP3    H152721   3.424   3.034  46.228 -2.4724 -0.2592  2.1788
10410TIP3    H252722   3.453   2.893  46.181 -0.0162  1.2495 -1.2834
10411TIP3   OH252723   2.133   1.981   0.465 -0.0706 -0.0481  0.1816
10411TIP3    H152724   2.135   2.036   0.543 -0.8982  0.8035 -0.3694
10411TIP3    H252725   2.044   1.993   0.430  0.3440 -0.2707 -0.9906
10412TIP3   OH252726   3.287   1.491  45.048  0.4619  0.2319 -0.2933
10412TIP3    H152727   3.374   1.484  45.086 -0.0902  0.3367  1.0555
10412TIP3    H252728   3.233   1.430  45.099 -0.5393  1.1558 -0.2044
10413TIP3   OH252729   3.622   0.851  37.744 -0.2631 -0.4217  0.1199
10413TIP3    H152730   3.541   0.897  37.769 -0.2157  0.8728 -1.9133
10413TIP3    H252731   3.605   0.759  37.767 -2.1144 -0.1029  0.1872
10414TIP3   OH252732   1.373   1.278   7.960  0.3551  0.1390 -0.1957
10414TIP3    H152733   1.311   1.332   7.911 -0.9543 -1.6824 -0.6122
10414TIP3    H252734   1.424   1.342   8.010 -1.8472  1.7332  0.1941
10415TIP3   OH252735   2.180   0.485  41.635  0.5075 -0.2174  0.5002
10415TIP3    H152736   2.160   0.552  41.701 -3.1207 -0.8463  0.2560
10415TIP3    H252737   2.239   0.528  41.574  0.7020  1.7182  1.9505
10416TIP3   OH252738   1.571   2.379  43.763  0.2343  0.5727 -0.3943
10416TIP3    H152739   1.533   2.362  43.849  0.4628  0.2438 -0.3587
10416TIP3    H252740   1.517   2.329  43.702  0.9046 -0.3013 -0.2928
10417TIP3   OH252741   1.764   3.231   4.601  0.1323  0.5486 -0.4669
10417TIP3    H152742   1.815   3.307   4.572 -0.2654  1.2770  0.6853
10417TIP3    H252743   1.787   3.220   4.693 -1.6045  0.7630  0.0221
10418TIP3   OH252744   1.227   1.024  38.875  0.4036  0.1613  0.1861
10418TIP3    H152745   1.176   0.949  38.846  1.2779 -0.4376  0.1408
10418TIP3    H252746   1.214   1.027  38.970  0.0576  0.1920  0.1382
10419TIP3   OH252747   1.430   1.379   3.007  0.1286  0.1028 -0.0892
10419TIP3    H152748   1.434   1.314   3.077 -0.9824 -1.3272 -1.2975
10419TIP3    H252749   1.437   1.328   2.926 -1.4165  1.3935 -1.1064
10420TIP3   OH252750   3.382   3.048   5.744 -0.0942  0.3406 -0.1539
10420TIP3    H152751   3.373   3.044   5.839 -0.3728 -3.1089 -0.1891
10420TIP3    H252752   3.475   3.067   5.730 -0.1775  1.5411  0.7513
10421TIP3   OH252753   2.485   0.335  35.227  0.2449 -0.1048 -0.6314
10421TIP3    H152754   2.448   0.401  35.168 -1.7513 -2.1627 -1.8258
10421TIP3    H252755   2.424   0.332  35.301 -0.0246 -1.0334 -0.8865
10422TIP3   OH252756   1.021   1.640  35.879 -0.1176 -0.4315  0.0038
10422TIP3    H152757   1.089   1.647  35.812 -1.7077  1.5923 -1.5172
10422TIP3    H252758   1.061   1.677  35.958  0.6791  0.3876 -0.7646
10423TIP3   OH252759   3.191   1.461  42.700 -0.4688 -0.2227  0.1926
10423TIP3    H152760   3.249   1.528  42.663  0.0796  0.5678  2.3220
10423TIP3    H252761   3.141   1.429  42.625 -0.1188  1.9442 -1.0613
10424TIP3   OH252762   2.245   3.312  40.616  0.3350  0.3311 -0.3221
10424TIP3    H152763   2.307   3.373  40.575  0.7714  0.9835  1.2348
10424TIP3    H252764   2.159   3.352  40.601  0.5854  1.1497  0.3590
10425TIP3   OH252765   4.077   1.602  42.981  0.3001  0.2248 -0.0001
10425TIP3    H152766   4.068   1.562  43.068  0.1594  0.5236  0.1207
10425TIP3    H252767   4.020   1.679  42.984 -1.0396 -0.6892 -0.9187
10426TIP3   OH252768   1.666   1.956  40.725 -0.8279 -0.2691 -0.5885
10426TIP3    H152769   1.733   2.013  40.764 -1.1982 -1.1189  1.4602
10426TIP3    H252770   1.713   1.902  40.663  0.7166 -1.6471  1.6312
10427TIP3   OH252771   0.975   2.424  32.752  0.0862 -0.7820  0.8692
10427TIP3    H152772   1.066   2.396  32.760  0.1623 -0.4393  1.2138
10427TIP3    H252773   0.925   2.343  32.754  0.3697 -0.9588  0.8922
10428TIP3   OH252774   3.406   3.967  38.881  0.4220  0.4919 -0.8947
10428TIP3    H152775   3.429   3.969  38.974 -1.9054  0.3501 -0.2602
10428TIP3    H252776   3.449   4.045  38.844 -0.0215  1.5400  0.6766
10429TIP3   OH252777   0.304   1.836  14.141  0.4398  0.4156  0.4480
10429TIP3    H152778   0.221   1.841  14.093  0.4094  1.7273  0.5934
10429TIP3    H252779   0.351   1.763  14.101 -0.2653  0.4561 -0.4842
10430TIP3   OH252780   1.620   1.366  14.050  0.4437  0.5190  0.3656
10430TIP3    H152781   1.595   1.358  14.142  0.8947  3.5457  0.8593
10430TIP3    H252782   1.538   1.384  14.004  0.6810  3.8871  1.0128
10431TIP3   OH252783   2.894   2.267  32.899 -0.3230 -0.6203  0.1001
10431TIP3    H152784   2.816   2.323  32.891 -0.3320 -0.2326  2.3662
10431TIP3    H252785   2.947   2.309  32.967  1.4109 -1.4433 -0.6796
10432TIP3   OH252786   1.921   2.942  34.647  0.2258 -0.2782  0.3971
10432TIP3    H152787   1.932   2.898  34.731  0.4604 -1.3654 -0.1893
10432TIP3    H252788   1.862   3.015  34.666 -0.1366 -0.8157  1.3982
10433TIP3   OH252789   2.765   0.515  31.627 -0.1099  0.6352  0.7079
10433TIP3    H152790   2.735   0.500  31.538 -0.6111  0.9781  0.8188
10433TIP3    H252791   2.727   0.443  31.678  1.2318 -0.3189  0.4350
10434TIP3   OH252792   3.298   3.981   7.160  0.3413  0.4984 -0.4903
10434TIP3    H152793   3.263   4.027   7.084  1.4505  3.2676  0.5357
10434TIP3    H252794   3.277   4.038   7.235  0.1327 -1.6473  1.1899
10435TIP3   OH252795   3.904   3.843  38.455 -0.2395 -0.6704  0.3528
10435TIP3    H152796   3.893   3.865  38.547  1.1087 -0.5896  0.5086
10435TIP3    H252797   3.873   3.753  38.448  0.1160 -0.8461  0.9841
10436TIP3   OH252798   0.732   0.767  47.561  0.6111  0.2947  0.2854
10436TIP3    H152799   0.671   0.733  47.626  1.1689 -0.9761  0.1751
10436TIP3    H252800   0.706   0.859  47.548 -2.2960 -0.6046 -0.9585
10437TIP3   OH252801   3.247   3.228  36.298 -0.6264 -0.7754  0.6221
10437TIP3    H152802   3.315   3.163  36.317  0.6037  0.8754  2.1647
10437TIP3    H252803   3.181   3.215  36.366 -0.3892 -0.4060  0.9200
10438TIP3   OH252804   0.774   1.129  38.377 -0.2640 -0.3812 -0.4031
10438TIP3    H152805   0.698   1.110  38.432 -0.2744  2.6798  0.8344
10438TIP3    H252806   0.837   1.170  38.437  1.5246 -0.9351 -1.8312
10439TIP3   OH252807   0.803   3.687  34.703  0.2784 -0.2054  0.1015
10439TIP3    H152808   0.710   3.679  34.682 -0.4232 -0.2160  2.8316
10439TIP3    H252809   0.832   3.598  34.720  0.6903 -0.1585 -0.3336
10440TIP3   OH252810   4.097   1.262  36.783 -0.2839 -0.1232  0.6905
10440TIP3    H152811   4.131   1.173  36.783  0.8766  0.2858 -0.0876
10440TIP3    H252812   4.109   1.293  36.873  1.9381  0.1596  0.3583
10441TIP3   OH252813   0.538   0.548  42.365 -0.7385  0.6268  0.7411
10441TIP3    H152814   0.506   0.630  42.325 -0.2107  0.2749 -0.4463
10441TIP3    H252815   0.631   0.546  42.344 -0.5386  0.2107  1.6533
10442TIP3   OH252816   0.293   1.130   9.389 -0.4660  0.3552  0.6221
10442TIP3    H152817   0.247   1.198   9.439 -1.5526  0.3569 -0.3157
10442TIP3    H252818   0.232   1.108   9.318  1.2653  0.8588 -1.1109
10443TIP3   OH252819   3.456   2.046  32.321 -0.7525  0.0917 -0.2833
10443TIP3    H152820   3.549   2.049  32.341 -0.9263  1.2872  0.4691
10443TIP3    H252821   3.413   2.078  32.400 -1.7207  0.7569 -1.0392
10444TIP3   OH252822   2.553   1.857   3.722 -0.3011 -0.2814  0.1855
10444TIP3    H152823   2.605   1.781   3.696 -1.7085 -0.9447 -0.8551
10444TIP3    H252824   2.610   1.932   3.706  0.0386 -0.9093 -1.8283
10445TIP3   OH252825   0.813   4.101  41.562  0.5327  0.2294  0.2895
10445TIP3    H152826   0.760   4.136  41.633  0.9426  0.0055  0.7167
10445TIP3    H252827   0.903   4.111  41.592  0.6691 -0.9739  0.3413
10446TIP3   OH252828   2.557   2.153   0.151  0.0738 -0.4265  0.1691
10446TIP3    H152829   2.562   2.095   0.075 -2.0478  2.6252 -2.4998
10446TIP3    H252830   2.464   2.160   0.171  0.5487 -1.8059  3.8377
10447TIP3   OH252831   2.566   3.698   9.424 -0.0652  0.1277 -0.1681
10447TIP3    H152832   2.499   3.634   9.446 -0.7197  0.6927 -0.4996
10447TIP3    H252833   2.547   3.722   9.333  2.1386 -1.6360 -1.2196
10448TIP3   OH252834   2.206   1.629  19.462 -0.5287  0.3809 -0.2138
10448TIP3    H152835   2.118   1.656  19.491 -0.9081 -0.7029 -0.3143
10448TIP3    H252836   2.241   1.580  19.536 -0.1552  0.4870 -0.3205
10449TIP3   OH252837   2.088   3.757  43.213 -0.4459  0.1899 -0.0908
10449TIP3    H152838   2.086   3.671  43.172 -0.9805 -0.2326  0.7858
10449TIP3    H252839   1.995   3.780  43.223 -0.3068  0.7448 -0.0634
10450TIP3   OH252840   1.890   1.386  14.107  0.6673  0.7962  0.2458
10450TIP3    H152841   1.796   1.386  14.091  0.4799  0.2143  1.2460
10450TIP3    H252842   1.899   1.415  14.198  1.2901 -1.2394  0.8895
10451TIP3   OH252843   3.450   2.194  12.824 -0.8306 -0.3698 -0.3503
10451TIP3    H152844   3.480   2.230  12.908 -1.0650 -0.3038 -0.2962
10451TIP3    H252845   3.370   2.241  12.804 -1.0131 -0.6960 -0.3943
10452TIP3   OH252846   1.832   2.051  38.413 -0.0322  0.7617 -0.3193
10452TIP3    H152847   1.788   2.129  38.447 -2.3248 -0.2782 -0.6738
10452TIP3    H252848   1.804   2.046  38.321 -1.6405 -1.5117  0.2043
10453TIP3   OH252849   1.750   3.101   3.444 -0.6822  0.0618 -0.5542
10453TIP3    H152850   1.668   3.140   3.414  0.1259  0.0295 -3.0828
10453TIP3    H252851   1.784   3.055   3.367  2.0000  0.6031  0.1941
10454TIP3   OH252852   1.860   3.971   3.413 -0.3345  0.0122  0.3014
10454TIP3    H152853   1.901   4.053   3.440 -1.2799  0.0202  1.7911
10454TIP3    H252854   1.849   3.921   3.494 -0.6500 -1.1926 -0.4530
10455TIP3   OH252855   2.472   2.032   8.813 -0.8498 -0.4926  0.3741
10455TIP3    H152856   2.386   2.034   8.856 -1.2293  0.1247 -0.3857
10455TIP3    H252857   2.462   2.090   8.738  0.1039 -0.7810  0.0160
10456TIP3   OH252858   0.371   3.096  14.743 -0.2681 -0.1203  0.0826
10456TIP3    H152859   0.296   3.156  14.740  0.3141  0.6369  0.2860
10456TIP3    H252860   0.429   3.127  14.674 -0.7835 -1.6199 -1.0914
10457TIP3   OH252861   2.014   0.344   1.430 -0.1002  0.2031  0.8450
10457TIP3    H152862   1.954   0.357   1.357  0.1712 -3.0111 -0.0924
10457TIP3    H252863   2.076   0.417   1.423  0.7862 -0.6745 -3.1218
10458TIP3   OH252864   2.987   1.309  15.611 -0.4364  0.5180 -0.1011
10458TIP3    H152865   3.010   1.338  15.699  1.1873 -0.2607 -0.2316
10458TIP3    H252866   3.034   1.368  15.552 -0.5400  0.2762 -0.4333
10459TIP3   OH252867   1.349   1.444  10.347 -0.4092 -0.0799  0.1663
10459TIP3    H152868   1.340   1.349  10.338  0.5552 -0.0396 -1.8979
10459TIP3    H252869   1.382   1.457  10.436  0.1868 -1.7629  0.2259
10460TIP3   OH252870   0.315   3.055  10.981 -0.2210  0.1064 -0.7693
10460TIP3    H152871   0.279   3.117  10.918 -1.2533  1.3398  0.9735
10460TIP3    H252872   0.266   2.974  10.965 -0.4330  0.3863 -1.5709
10461TIP3   OH252873   3.653   0.908   5.487 -0.1574 -0.0108  0.0282
10461TIP3    H152874   3.707   0.973   5.533 -0.4270  0.1134  0.1691
10461TIP3    H252875   3.651   0.938   5.397  0.0746 -0.0571  0.0075
10462TIP3   OH252876   1.284   1.199  10.763 -0.2122 -0.0151  0.8362
10462TIP3    H152877   1.269   1.270  10.700 -1.6008 -1.0152 -0.0266
10462TIP3    H252878   1.337   1.238  10.832  0.0816  1.5230 -0.2215
10463TIP3   OH252879   0.765   3.496   5.387  0.1090  0.5394 -0.2327
10463TIP3    H152880   0.853   3.514   5.419  0.4554 -0.4180 -0.6181
10463TIP3    H252881   0.777   3.479   5.293 -0.4082 -0.0759 -0.1952
10464TIP3   OH252882   0.269   2.845  37.165 -0.1188 -0.2272 -0.0088
10464TIP3    H152883   0.326   2.920  37.183 -0.3598  0.3789 -1.6233
10464TIP3    H252884   0.200   2.881  37.108 -0.6322 -1.5332 -0.2339
10465TIP3   OH252885   1.010   1.711  12.634 -0.1195 -0.1105  0.4482
10465TIP3    H152886   1.099   1.675  12.636 -0.2571 -0.4344  0.6651
10465TIP3    H252887   0.961   1.659  12.697 -0.7712 -0.7264 -0.5397
10466TIP3   OH252888   2.555   1.796  14.063 -0.4745 -0.6772  0.0198
10466TIP3    H152889   2.544   1.762  13.974 -0.1593  0.7912 -0.6216
10466TIP3    H252890   2.505   1.878  14.064  0.2581 -0.2128  0.8960
10467TIP3   OH252891   1.023   3.197  41.828  0.1363 -0.3013  0.7573
10467TIP3    H152892   1.020   3.279  41.876 -1.1385 -0.3358  0.7923
10467TIP3    H252893   1.109   3.196  41.786  0.4495  0.7014  1.3431
10468TIP3   OH252894   2.207   0.733  33.163  0.7774  0.0315 -0.2075
10468TIP3    H152895   2.121   0.725  33.205  0.6547  0.0152 -0.4627
10468TIP3    H252896   2.264   0.767  33.232  0.0617  2.3300 -0.6442
10469TIP3   OH252897   1.007   0.021  33.204  0.3506  0.5079  0.0932
10469TIP3    H152898   0.920   0.020  33.244  1.0574  0.1191  1.7005
10469TIP3    H252899   0.990   0.031  33.110 -1.4374 -0.0644  0.3177
10470TIP3   OH252900   0.717   1.515  38.408  0.3570 -0.3340  0.5856
10470TIP3    H152901   0.795   1.489  38.360  0.7455  0.5020  0.7602
10470TIP3    H252902   0.748   1.533  38.497 -0.0696 -0.1957  0.7070
10471TIP3   OH252903   3.407   3.856  14.873  0.2769 -0.1625  0.1626
10471TIP3    H152904   3.363   3.898  14.946  1.3778  0.6871  0.3693
10471TIP3    H252905   3.350   3.783  14.849 -1.0087  0.6362  0.6731
10472TIP3   OH252906   1.400   0.594   5.216  0.2244  0.2630 -0.1252
10472TIP3    H152907   1.426   0.673   5.170  1.6404 -0.6570 -0.9748
10472TIP3    H252908   1.482   0.554   5.245 -0.5067  1.7055  4.9986
10473TIP3   OH252909   1.351   2.265   7.070 -0.6769 -0.0611  0.1950
10473TIP3    H152910   1.441   2.295   7.079 -0.5180  0.0019 -1.3113
10473TIP3    H252911   1.310   2.331   7.013 -1.5988 -0.2343  0.6454
10474TIP3   OH252912   2.307   3.397   0.569 -0.0442 -0.0592  0.5444
10474TIP3    H152913   2.244   3.465   0.545  1.1856  0.9800  0.1932
10474TIP3    H252914   2.256   3.316   0.567 -1.3797  0.7567  0.3149
10475TIP3   OH252915   1.463   2.270  33.815  0.1645  0.3894 -0.2505
10475TIP3    H152916   1.418   2.340  33.769  0.0473  0.4472 -0.0483
10475TIP3    H252917   1.554   2.301  33.822  0.2214  0.3096 -0.5833
10476TIP3   OH252918   2.781   1.135  35.228  0.2931 -1.2458 -0.4178
10476TIP3    H152919   2.842   1.063  35.245  2.3543  0.3480 -0.6691
10476TIP3    H252920   2.783   1.145  35.133  1.6099  0.3694 -0.2677
10477TIP3   OH252921   2.151   3.282  32.939  0.1398  0.1106  0.2569
10477TIP3    H152922   2.071   3.315  32.980 -0.1378 -0.2560  0.0201
10477TIP3    H252923   2.199   3.241  33.012  1.5847  2.9723  1.0548
10478TIP3   OH252924   3.587   2.362   6.472 -0.0707 -0.5179 -0.3021
10478TIP3    H152925   3.532   2.393   6.544 -2.0476 -1.0941 -1.4934
10478TIP3    H252926   3.622   2.279   6.502  2.5969  1.1519  1.6093
10479TIP3   OH252927   2.055   1.650  35.290  0.4976 -0.3391 -0.6817
10479TIP3    H152928   1.993   1.696  35.234 -0.4368 -1.9021 -0.9805
10479TIP3    H252929   2.001   1.588  35.340  1.7927 -1.6816 -0.8790
10480TIP3   OH252930   1.866   1.713  17.608  0.0144 -0.1607 -0.9929
10480TIP3    H152931   1.824   1.777  17.665 -1.3660 -0.8119 -1.2256
10480TIP3    H252932   1.931   1.670  17.663 -0.8601 -0.3417 -0.0813
10481TIP3   OH252933   0.024   2.276  35.852  0.6503  0.1188 -0.1719
10481TIP3    H152934  -0.013   2.190  35.866  0.3585  0.3027  0.2062
10481TIP3    H252935   0.034   2.284  35.757 -1.5930  0.6144 -0.4188
10482TIP3   OH252936   3.961   1.294   7.757 -0.0361 -0.3401 -0.0082
10482TIP3    H152937   3.960   1.275   7.663 -1.2251  0.3271 -0.1475
10482TIP3    H252938   4.032   1.358   7.768 -0.3364  0.1019 -0.5695
10483TIP3   OH252939   1.234   1.529  14.728  0.0623 -0.2359 -0.0325
10483TIP3    H152940   1.161   1.468  14.741 -0.5717  0.6545  0.7815
10483TIP3    H252941   1.198   1.596  14.670  0.6039 -0.3820 -0.5413
10484TIP3   OH252942   2.534   0.836  41.362  0.0644  0.0380 -0.3177
10484TIP3    H152943   2.507   0.772  41.295 -0.1028  0.0741 -0.2841
10484TIP3    H252944   2.486   0.915  41.340 -0.5025 -0.1510  0.2458
10485TIP3   OH252945   3.982   3.248   7.351  0.1259  0.4831  0.7756
10485TIP3    H152946   3.924   3.311   7.307  1.9185  1.7807  0.1557
10485TIP3    H252947   3.947   3.242   7.440 -0.8122  1.4229  0.4930
10486TIP3   OH252948   1.677   3.283   2.640 -0.3477  0.3432  0.4604
10486TIP3    H152949   1.769   3.283   2.614 -0.4483 -1.0676  0.0051
10486TIP3    H252950   1.643   3.200   2.607 -2.0771  1.3350 -0.3712
10487TIP3   OH252951   0.805   4.026  38.482  0.4436 -0.1689 -0.1371
10487TIP3    H152952   0.867   3.957  38.506  1.0121  0.4731  0.2946
10487TIP3    H252953   0.767   3.997  38.399  0.5799 -1.0550  0.1091
10488TIP3   OH252954   1.679   2.328  39.082  0.0610 -0.2846 -0.5273
10488TIP3    H152955   1.637   2.254  39.039 -1.7115 -0.5835  1.5422
10488TIP3    H252956   1.754   2.291  39.128 -0.3419 -0.6693 -0.1741
10489TIP3   OH252957   3.125   3.166  38.351 -0.0493  0.4096 -0.0695
10489TIP3    H152958   3.122   3.253  38.311  0.5455  0.2677 -0.4452
10489TIP3    H252959   3.096   3.180  38.441 -4.5594  0.2438 -1.2690
10490TIP3   OH252960   0.245   1.841  21.352  0.3702 -0.0886  0.1991
10490TIP3    H152961   0.324   1.885  21.382  1.0581 -1.7560  0.9830
10490TIP3    H252962   0.276   1.777  21.288 -0.6783  0.9186 -1.4070
10491TIP3   OH252963   2.018   3.005  36.090 -0.7301 -0.2764  0.1271
10491TIP3    H152964   1.947   3.036  36.033 -0.6456  0.3697  0.3655
10491TIP3    H252965   2.020   3.067  36.162  0.5618  0.1644 -0.2500
10492TIP3   OH252966   1.818   1.562  22.235 -0.7099 -0.6966 -0.4285
10492TIP3    H152967   1.808   1.554  22.330 -0.1445 -1.4454 -0.4247
10492TIP3    H252968   1.752   1.626  22.209 -0.0417  0.4606  0.6259
10493TIP3   OH252969   0.434   4.029   0.326 -0.6787 -0.8116  0.4611
10493TIP3    H152970   0.363   4.092   0.320  0.5099  0.5564  0.2528
10493TIP3    H252971   0.474   4.046   0.411 -0.5579 -1.5403  0.5572
10494TIP3   OH252972   3.080   1.874  19.393 -0.0183 -0.1718  0.1666
10494TIP3    H152973   3.062   1.797  19.447 -0.0966  0.5022  1.1325
10494TIP3    H252974   3.028   1.862  19.314 -3.4036  0.8196  2.0374
10495TIP3   OH252975   3.346   3.020  15.431 -0.2823 -0.3390 -0.5146
10495TIP3    H152976   3.354   3.026  15.336 -0.3282 -2.4974 -0.7124
10495TIP3    H252977   3.432   3.045  15.464 -0.3621  0.7433 -1.0711
10496TIP3   OH252978   1.602   0.891   2.310  0.2255  0.2877 -0.4853
10496TIP3    H152979   1.550   0.827   2.357 -1.1453  1.3658 -0.4740
10496TIP3    H252980   1.669   0.839   2.265 -1.1614 -1.2006 -0.9182
10497TIP3   OH252981   3.546   2.106  12.566  0.1351  0.3675 -0.0014
10497TIP3    H152982   3.628   2.057  12.570  0.2406  0.6064  0.8294
10497TIP3    H252983   3.509   2.098  12.654 -1.8865 -1.7230 -0.9153
10498TIP3   OH252984   1.082   3.682   4.536  0.0908 -0.2042  0.0882
10498TIP3    H152985   1.161   3.678   4.590 -0.3808  2.5841  1.2028
10498TIP3    H252986   1.108   3.732   4.458 -0.2654 -0.3890 -0.1541
10499TIP3   OH252987   1.790   3.347  31.556  0.1070  0.5583 -0.3169
10499TIP3    H152988   1.782   3.259  31.592 -0.3115  0.4078 -0.7715
10499TIP3    H252989   1.881   3.353  31.527  0.4758  0.7126  0.8384
10500TIP3   OH252990   1.105   0.309   8.804 -0.0575  0.8424 -0.2043
10500TIP3    H152991   1.194   0.343   8.812  0.3217 -0.2143  0.2358
10500TIP3    H252992   1.077   0.293   8.894  1.3046 -3.7338 -0.3291
10501TIP3   OH252993   0.239   1.888  40.012 -0.6379  0.1252 -0.2046
10501TIP3    H152994   0.265   1.928  40.095 -0.7639 -0.7589  0.2714
10501TIP3    H252995   0.265   1.953  39.946  5.0097 -1.4681 -0.0798
10502TIP3   OH252996   0.115   0.691  45.619  0.5061  0.2892 -0.0500
10502TIP3    H152997   0.187   0.666  45.676  0.4063  3.4411  1.6859
10502TIP3    H252998   0.119   0.787  45.616 -1.4044  0.3996 -2.8906
10503TIP3   OH252999   1.296   0.996   5.592 -0.0615 -0.3795  0.1234
10503TIP3    H153000   1.297   0.949   5.675  0.9838 -0.1621  0.2493
10503TIP3    H253001   1.312   0.928   5.526 -0.1763 -0.4465  0.1651
10504TIP3   OH253002   2.672   1.233   2.957  0.0165 -0.0489 -0.2832
10504TIP3    H153003   2.643   1.323   2.941  0.9053  0.0199 -1.6146
10504TIP3    H253004   2.754   1.243   3.007 -0.8223 -0.1899  1.1906
10505TIP3   OH253005   2.522   0.498   1.946  0.2943  0.3102  0.3294
10505TIP3    H153006   2.450   0.560   1.951  1.8856  2.1454  2.0149
10505TIP3    H253007   2.567   0.518   1.864 -0.5205 -0.2103 -0.2593
10506TIP3   OH253008   2.221   3.523  45.858  0.3720 -0.8586 -0.2321
10506TIP3    H153009   2.181   3.591  45.802  0.0226 -0.6190  0.2988
10506TIP3    H253010   2.310   3.514  45.824 -0.2786 -1.7981 -1.7951
10507TIP3   OH253011   2.704   2.449  32.925 -0.2108  0.2768  0.0579
10507TIP3    H153012   2.622   2.467  32.971 -1.2268 -0.8226 -1.2051
10507TIP3    H253013   2.687   2.478  32.835  1.0691  0.7376 -0.0462
10508TIP3   OH253014   0.472   1.560   4.318  0.4698 -0.1583  0.3646
10508TIP3    H153015   0.474   1.502   4.242  2.9932  2.0842 -1.5041
10508TIP3    H253016   0.383   1.553   4.351 -0.1163 -2.8962 -1.4261
10509TIP3   OH253017   1.998   2.896  11.922 -0.3469 -0.3688 -0.0983
10509TIP3    H153018   2.066   2.919  11.859  0.3611 -0.2815  0.6806
10509TIP3    H253019   1.925   2.954  11.901  0.3084  0.4755 -0.1053
10510TIP3   OH253020   3.143   3.440  36.658  0.3127  0.5278 -0.0364
10510TIP3    H153021   3.188   3.364  36.620 -0.4487  1.0219 -2.0452
10510TIP3    H253022   3.170   3.441  36.749  2.2507 -0.7457 -0.5480
10511TIP3   OH253023   3.492   3.731   0.498 -0.2909  0.3347  0.4273
10511TIP3    H153024   3.483   3.660   0.435 -0.7758  1.2879 -0.5986
10511TIP3    H253025   3.464   3.810   0.451  0.6617  1.2896  1.3907
10512TIP3   OH253026   4.084   4.080   2.839 -0.2975 -0.1612 -0.2942
10512TIP3    H153027   4.170   4.040   2.851 -0.4363 -1.0123 -1.7729
10512TIP3    H253028   4.098   4.173   2.852  0.6963 -0.3661  0.1768
10513TIP3   OH253029   0.357   2.755  19.973 -0.5140 -0.1209 -0.2711
10513TIP3    H153030   0.357   2.848  19.995 -1.6496 -0.5918  1.9737
10513TIP3    H253031   0.269   2.737  19.942  0.1167 -0.2022 -2.1756
10514TIP3   OH253032   0.198   0.883  20.883  0.0466  0.2312  0.0542
10514TIP3    H153033   0.119   0.883  20.937  0.1967  1.3717  0.2970
10514TIP3    H253034   0.219   0.790  20.871 -1.4357 -0.1030 -0.1839
10515TIP3   OH253035   2.884   3.173  43.486  0.0416 -0.8184 -0.1577
10515TIP3    H153036   2.873   3.088  43.529 -0.6348 -0.6963 -0.0841
10515TIP3    H253037   2.928   3.227  43.552  0.1814 -1.0155 -0.0890
10516TIP3   OH253038   3.777   0.036  36.058 -0.4667 -0.3455  0.2313
10516TIP3    H153039   3.745  -0.053  36.045 -2.2377  0.2969 -0.0722
10516TIP3    H253040   3.870   0.032  36.035 -0.0407 -2.4924  1.9787
10517TIP3   OH253041   1.707   1.676   5.477 -0.0252  0.1590 -0.2285
10517TIP3    H153042   1.684   1.668   5.384 -0.2746 -0.4627 -0.1188
10517TIP3    H253043   1.631   1.717   5.517 -0.2836 -0.3779 -0.1539
10518TIP3   OH253044   1.819   2.155  33.804 -0.4197  0.2286  0.2439
10518TIP3    H153045   1.889   2.090  33.796 -1.7085 -1.0973 -0.6571
10518TIP3    H253046   1.796   2.177  33.714  1.6154  3.8695  0.4317
10519TIP3   OH253047   3.647   4.094   2.331 -0.2504  0.0349  0.1454
10519TIP3    H153048   3.675   4.170   2.381  0.7634 -0.3823  0.2367
10519TIP3    H253049   3.713   4.083   2.263 -0.7301 -0.3844 -0.2666
10520TIP3   OH253050   2.884   3.107  34.482 -0.2681  0.0091 -0.0243
10520TIP3    H153051   2.934   3.039  34.437 -1.2919 -0.2253 -0.8456
10520TIP3    H253052   2.949   3.174  34.505  0.4912 -0.5064 -0.6471
10521TIP3   OH253053   1.805   1.688   1.742  0.0526 -0.8340  0.1143
10521TIP3    H153054   1.771   1.762   1.693 -0.2729 -0.2701  1.1599
10521TIP3    H253055   1.756   1.612   1.709 -1.3948 -0.2134  0.7481
10522TIP3   OH253056   0.684   1.993  40.069 -0.5236  0.2402 -0.1392
10522TIP3    H153057   0.680   1.911  40.117 -1.2882  0.2876 -0.1015
10522TIP3    H253058   0.657   1.971  39.980  0.6950  0.1890 -0.5028
10523TIP3   OH253059   3.021   3.893  35.495 -0.0132 -0.7239 -0.6048
10523TIP3    H153060   3.089   3.859  35.437  0.1417 -0.3784 -0.6222
10523TIP3    H253061   2.945   3.907  35.438 -1.2967 -4.3889 -0.0732
10524TIP3   OH253062   1.723   2.525   7.258 -0.1194 -0.3946  0.3786
10524TIP3    H153063   1.686   2.497   7.342  1.5871 -0.5847  1.0980
10524TIP3    H253064   1.781   2.597   7.279 -0.9175  0.6758 -0.8884
10525TIP3   OH253065   1.734   3.991  41.493  0.3804  0.2119 -0.9302
10525TIP3    H153066   1.667   4.008  41.426 -0.1652 -1.1429 -0.7562
10525TIP3    H253067   1.721   3.900  41.517  0.5126  0.6836  1.1098
10526TIP3   OH253068   2.277   0.106   8.610  0.0682 -0.6046 -0.1597
10526TIP3    H153069   2.286   0.177   8.546 -0.4809  0.5747  1.0291
10526TIP3    H253070   2.354   0.050   8.595  0.4272  0.1441 -1.2225
10527TIP3   OH253071   1.256   0.101  47.283  0.9984 -0.0728 -0.3404
10527TIP3    H153072   1.254   0.058  47.198  0.9183 -1.0482  0.1365
10527TIP3    H253073   1.278   0.192  47.264  0.9422 -0.2738 -1.4016
10528TIP3   OH253074   2.510   3.022  47.409 -0.9136 -0.4786  0.3771
10528TIP3    H153075   2.594   3.008  47.365 -0.6582  0.2285  0.6142
10528TIP3    H253076   2.466   3.088  47.355 -0.6683  0.2761  1.0810
10529TIP3   OH253077   0.593   1.493  11.393 -0.5351 -0.2876  0.1258
10529TIP3    H153078   0.578   1.410  11.348  0.8410 -0.1741 -0.5965
10529TIP3    H253079   0.545   1.485  11.475 -3.3359 -0.4165 -1.3973
10530TIP3   OH253080   2.124   3.153  13.532 -0.0169  0.1123 -0.3367
10530TIP3    H153081   2.194   3.140  13.468 -0.5497 -3.5530 -0.4157
10530TIP3    H253082   2.043   3.138  13.483 -0.4893 -1.5954  0.8476
10531TIP3   OH253083   0.856   3.704   8.752 -0.2713  0.1004  0.3535
10531TIP3    H153084   0.801   3.681   8.677 -1.2842  0.4260  0.9809
10531TIP3    H253085   0.797   3.701   8.827  0.2148  1.8966  0.8568
10532TIP3   OH253086   1.117   3.677   1.076  0.5356 -0.5368  0.4537
10532TIP3    H153087   1.129   3.751   1.017 -0.4214 -0.9510 -0.2797
10532TIP3    H253088   1.172   3.698   1.152  1.5090  0.1677 -0.4175
10533TIP3   OH253089   2.498   1.206   9.935  0.0170 -0.7069  0.4156
10533TIP3    H153090   2.543   1.122   9.949  1.2572 -0.1686 -0.2130
10533TIP3    H253091   2.480   1.208   9.841  3.4013  1.2891 -0.3849
10534TIP3   OH253092   3.061   3.223   2.132 -0.7095 -0.3155  0.2633
10534TIP3    H153093   3.130   3.250   2.192 -0.5110  0.4569 -0.3028
10534TIP3    H253094   3.011   3.157   2.181  0.2821 -0.7182  0.7577
10535TIP3   OH253095   3.492   1.885   3.209  0.5121  0.5556 -0.2536
10535TIP3    H153096   3.459   1.974   3.220 -2.7564 -0.5200 -0.5541
10535TIP3    H253097   3.503   1.874   3.115  0.8415  0.5979 -0.2221
10536TIP3   OH253098   2.027   2.418  36.481  0.7224  0.1933 -0.2295
10536TIP3    H153099   1.944   2.420  36.529  0.5916 -3.0014 -0.1358
10536TIP3    H253100   2.092   2.448  36.544  0.1552 -1.2382  1.1003
10537TIP3   OH253101   2.324   0.244  38.586  0.1979 -0.0169  0.2600
10537TIP3    H153102   2.371   0.219  38.665 -3.3860 -0.9696  2.2623
10537TIP3    H253103   2.275   0.322  38.610 -0.5385  0.0192 -1.2054
10538TIP3   OH253104   0.359   3.831  40.042  0.4795 -0.1839  0.7435
10538TIP3    H153105   0.446   3.802  40.071  0.7210  1.2032  1.5020
10538TIP3    H253106   0.350   3.918  40.080 -0.8076  0.1293 -0.2485
10539TIP3   OH253107   0.911   1.435  40.630  0.0914 -0.5950  0.8683
10539TIP3    H153108   0.826   1.466  40.659 -1.0947 -0.3747 -2.4289
10539TIP3    H253109   0.901   1.340  40.621 -0.6684 -0.3511 -1.6803
10540TIP3   OH253110   0.213   2.106  34.514  0.4969 -0.2732 -0.4757
10540TIP3    H153111   0.228   2.021  34.471 -0.3567 -1.0815  0.7488
10540TIP3    H253112   0.122   2.102  34.542  0.9345  0.3609  1.1153
10541TIP3   OH253113   3.324   2.777  44.103  0.3826  0.2314  0.3621
10541TIP3    H153114   3.246   2.832  44.098 -0.1216 -0.4916  0.1667
10541TIP3    H253115   3.316   2.730  44.185 -0.2667 -1.1222 -0.4465
10542TIP3   OH253116   1.900   0.460  38.638 -0.0011 -0.3030 -0.0036
10542TIP3    H153117   1.873   0.426  38.723 -1.1350 -0.2482 -0.3203
10542TIP3    H253118   1.914   0.553  38.653  0.8810 -0.4870  0.3593
10543TIP3   OH253119   0.137   2.375  34.694 -0.2170  0.1666  0.3233
10543TIP3    H153120   0.194   2.302  34.717 -0.7917 -0.0223  1.1673
10543TIP3    H253121   0.161   2.444  34.756 -0.1735  0.4630 -0.0129
10544TIP3   OH253122   1.327   3.562  28.531  0.1231  0.1054  0.5656
10544TIP3    H153123   1.276   3.519  28.600  0.3301 -1.8817 -0.4560
10544TIP3    H253124   1.261   3.603  28.475 -0.4239 -2.0338 -0.4707
10545TIP3   OH253125   1.266   0.773   3.138 -0.5516 -0.3273 -0.1938
10545TIP3    H153126   1.324   0.745   3.067 -1.0183 -0.4468 -0.5293
10545TIP3    H253127   1.211   0.697   3.156  0.1852 -0.6072  0.9319
10546TIP3   OH253128   2.994   0.986  16.647  0.0164 -0.7347  0.0724
10546TIP3    H153129   2.914   0.937  16.627 -0.4911  0.0575  0.0671
10546TIP3    H253130   2.965   1.078  16.650  0.8425 -0.4754  0.5235
10547TIP3   OH253131   3.845   0.346   6.272 -0.2190  0.1407 -0.2448
10547TIP3    H153132   3.813   0.361   6.361  1.5729 -0.0879  0.4721
10547TIP3    H253133   3.793   0.272   6.239 -2.1693  1.3764 -0.1130
10548TIP3   OH253134   4.064   1.308  12.535  0.0696  0.0736 -0.0734
10548TIP3    H153135   4.004   1.326  12.608 -0.1653 -0.0949 -0.2278
10548TIP3    H253136   4.123   1.384  12.534 -0.4229  0.4519 -0.2131
10549TIP3   OH253137   0.168   1.008  36.845 -0.2181 -0.1047  0.1703
10549TIP3    H153138   0.232   1.070  36.879 -0.3543  0.3362 -0.3680
10549TIP3    H253139   0.218   0.952  36.785 -0.2082 -0.1657  0.2352
10550TIP3   OH253140   1.672   1.952  34.523  0.1315  0.5234  0.3845
10550TIP3    H153141   1.579   1.975  34.527 -0.6335 -2.1235 -0.2139
10550TIP3    H253142   1.690   1.909  34.606  0.6358  0.3282  0.1804
10551TIP3   OH253143   0.948   0.639  10.241 -0.0261  0.2278 -0.4440
10551TIP3    H153144   0.943   0.690  10.322 -1.4970  0.7751 -0.8513
10551TIP3    H253145   1.036   0.600  10.242  0.1216  0.5572  1.2035
10552TIP3   OH253146   4.100   1.061  37.421  0.3144 -0.3788  0.0385
10552TIP3    H153147   4.074   1.132  37.363 -2.0704 -1.3128 -0.1429
10552TIP3    H253148   4.033   0.994  37.409  2.3283 -2.5908  0.3864
10553TIP3   OH253149   0.488   1.255  35.212 -0.4066 -0.6469  0.1053
10553TIP3    H153150   0.482   1.181  35.273  2.3026  0.2258  1.6177
10553TIP3    H253151   0.559   1.230  35.152 -1.6945 -0.6172 -1.5108
10554TIP3   OH253152   0.624   0.141  43.252 -0.1258  0.3808  0.0973
10554TIP3    H153153   0.705   0.182  43.282 -0.6000  0.5469  1.1852
10554TIP3    H253154   0.583   0.108  43.331 -1.2860  0.5729 -0.4024
10555TIP3   OH253155   4.001   0.124  43.324  0.2622  0.5118 -1.4451
10555TIP3    H153156   3.960   0.084  43.248 -2.3484 -1.2720  0.7023
10555TIP3    H253157   3.958   0.209  43.332 -0.1866  0.2891 -1.4334
10556TIP3   OH253158   1.552   1.211  33.902 -0.3016 -0.1976 -0.4280
10556TIP3    H153159   1.586   1.301  33.907 -1.4413  0.2093  0.1882
10556TIP3    H253160   1.553   1.179  33.992  0.4729 -0.9727 -0.6901
10557TIP3   OH253161   0.994   0.178  26.976  0.2547  0.3743  0.3571
10557TIP3    H153162   0.921   0.178  26.914 -1.2819  1.3488  2.0600
10557TIP3    H253163   1.001   0.087  27.005 -1.0196  0.4559  0.9619
10558TIP3   OH253164   3.002   3.840   3.872  0.0658  0.1762 -0.0111
10558TIP3    H153165   2.938   3.899   3.831  0.8961  2.0629  1.2600
10558TIP3    H253166   2.954   3.758   3.884 -0.5480 -0.1354 -3.5856
10559TIP3   OH253167   0.540   1.108  45.584 -0.2143 -0.1330  0.5013
10559TIP3    H153168   0.487   1.110  45.663  0.5443  0.4994  1.0092
10559TIP3    H253169   0.487   1.060  45.520 -0.1065 -2.2669  1.9224
10560TIP3   OH253170   0.727   2.933  13.668 -0.4679 -0.6029  0.2516
10560TIP3    H153171   0.638   2.911  13.692 -0.7242  1.3147  1.2788
10560TIP3    H253172   0.718   3.011  13.612  0.5976  1.2420  2.4741
10561TIP3   OH253173   2.367   2.861   2.250 -0.1211 -0.4242  0.2150
10561TIP3    H153174   2.390   2.768   2.251  3.4461  0.2618 -1.5924
10561TIP3    H253175   2.388   2.891   2.339 -1.1640 -1.2826  0.7707
10562TIP3   OH253176   2.946   0.392  45.069  0.3259  0.1750  0.4355
10562TIP3    H153177   2.890   0.363  45.141  1.0003  0.0505  0.9186
10562TIP3    H253178   2.886   0.405  44.995 -0.3391  0.0829  0.9534
10563TIP3   OH253179   0.473   3.309  47.069 -0.9032  0.6380 -0.4246
10563TIP3    H153180   0.543   3.261  47.025 -0.0695 -1.7841  3.0459
10563TIP3    H253181   0.392   3.273  47.034 -0.2785 -1.3307  0.0444
10564TIP3   OH253182   3.325   3.159  29.182  0.3957  0.4207 -0.3107
10564TIP3    H153183   3.241   3.156  29.136  0.1944 -1.1767  0.1030
10564TIP3    H253184   3.307   3.122  29.268  1.7688 -1.1489 -0.6509
10565TIP3   OH253185   0.771   2.285   4.070 -0.2757  0.3803  0.2231
10565TIP3    H153186   0.770   2.328   4.156 -0.9679 -0.0711  0.4429
10565TIP3    H253187   0.754   2.193   4.089 -1.6058  0.4571 -0.4996
10566TIP3   OH253188   2.790   0.089  31.167 -0.2325 -0.9096  0.1644
10566TIP3    H153189   2.697   0.104  31.146 -0.0694 -0.5867 -0.3409
10566TIP3    H253190   2.828   0.056  31.086  0.2878 -0.1729  0.0940
10567TIP3   OH253191   1.644   3.789   1.936 -0.1296 -0.1128 -0.1746
10567TIP3    H153192   1.719   3.840   1.907  0.9331  1.0731  3.9990
10567TIP3    H253193   1.676   3.699   1.940  0.8161  0.2500  0.6825
10568TIP3   OH253194   2.105   2.928  34.020  0.3683 -0.0207 -0.2615
10568TIP3    H153195   2.038   2.882  34.070  0.6581 -1.5679 -1.2203
10568TIP3    H253196   2.058   2.996  33.972 -0.0847  0.6825  1.1394
10569TIP3   OH253197   2.064   3.993  25.470  0.1032 -0.1653 -0.3936
10569TIP3    H153198   2.023   4.075  25.441  2.0685  0.1914 -2.4305
10569TIP3    H253199   2.157   4.013  25.474  0.3587 -1.4068  2.4557
10570TIP3   OH253200   1.292   3.400   5.101 -0.2732 -0.1201  0.1243
10570TIP3    H153201   1.225   3.342   5.136 -1.1611  1.3495  0.9490
10570TIP3    H253202   1.296   3.473   5.163  1.2301  0.4162 -0.5543
10571TIP3   OH253203   3.337   1.469   7.963  0.4896  0.2108 -0.1699
10571TIP3    H153204   3.379   1.553   7.983  2.2943 -0.4296 -1.0150
10571TIP3    H253205   3.280   1.488   7.889 -0.1927  0.9591  0.5304
10572TIP3   OH253206   0.590   2.795   4.116 -0.2742  0.1218 -0.4322
10572TIP3    H153207   0.576   2.710   4.157 -1.4050 -0.5245 -2.0515
10572TIP3    H253208   0.675   2.824   4.148 -0.0036 -1.4722  0.3786
10573TIP3   OH253209   0.524   2.094  11.730  0.1744 -0.2212 -0.3895
10573TIP3    H153210   0.524   2.062  11.821  1.6531 -0.7882 -0.5486
10573TIP3    H253211   0.526   2.014  11.678 -0.0192  0.1160 -0.9144
10574TIP3   OH253212   1.590   3.236  37.132 -0.0390 -0.4128 -0.3385
10574TIP3    H153213   1.654   3.170  37.102  0.6371 -0.2402  0.6759
10574TIP3    H253214   1.518   3.185  37.169  0.5555 -0.5931  0.5930
10575TIP3   OH253215   0.470   0.722  45.282  0.1176 -0.0785  0.0742
10575TIP3    H153216   0.382   0.690  45.303  0.1853 -0.0030  0.4943
10575TIP3    H253217   0.527   0.672  45.340  0.3810 -0.3305 -0.4019
10576TIP3   OH253218   3.906   0.642  40.776 -0.3635 -0.2709 -0.1654
10576TIP3    H153219   3.999   0.662  40.781 -0.3783 -0.1626 -0.3133
10576TIP3    H253220   3.869   0.711  40.720 -0.3696 -0.8681 -0.9187
10577TIP3   OH253221   0.921   3.967  34.486  0.5673 -0.7004 -0.3923
10577TIP3    H153222   0.924   3.985  34.393 -0.9784  0.0323 -0.3284
10577TIP3    H253223   0.924   3.871  34.492  2.7957 -0.7367 -1.0366
10578TIP3   OH253224   3.002   1.931   1.240  0.4273 -0.4959  1.0288
10578TIP3    H153225   2.919   1.918   1.287 -1.0809 -0.0822 -1.3216
10578TIP3    H253226   3.029   1.843   1.215  0.3437 -0.5814  1.2366
10579TIP3   OH253227   2.773   0.994  46.286  0.5004  0.1099 -0.2219
10579TIP3    H153228   2.772   1.018  46.379  1.7075 -0.8514  0.0684
10579TIP3    H253229   2.728   0.909  46.283 -0.6084  0.6967 -0.7142
10580TIP3   OH253230   1.174   2.204  39.635  0.1528 -0.2962  0.4658
10580TIP3    H153231   1.119   2.132  39.666 -0.1056  0.0724  0.8710
10580TIP3    H253232   1.214   2.239  39.714  0.6039 -0.2606  0.2205
10581TIP3   OH253233   0.713   1.191   5.659 -0.2398  0.0723 -0.4350
10581TIP3    H153234   0.805   1.191   5.631  0.0852  0.7727  0.5694
10581TIP3    H253235   0.695   1.100   5.682  1.3465  0.4227  2.7812
10582TIP3   OH253236   1.695   3.065  39.037  0.2427  0.4433 -0.1850
10582TIP3    H153237   1.740   3.101  38.960  1.4059  0.9096  0.6840
10582TIP3    H253238   1.697   2.970  39.023 -0.4961  0.5524 -1.2111
10583TIP3   OH253239   1.319   2.145   2.217 -0.0201  0.5082 -0.1662
10583TIP3    H153240   1.404   2.121   2.254  0.4031 -0.0452 -1.4501
10583TIP3    H253241   1.256   2.091   2.264  0.6371 -1.0760 -1.0551
10584TIP3   OH253242   0.463   2.793   6.627 -0.0890 -0.2215  0.5571
10584TIP3    H153243   0.512   2.867   6.664 -0.4104 -0.1047  0.7499
10584TIP3    H253244   0.489   2.718   6.679  0.7268 -0.3692 -0.0433
10585TIP3   OH253245   3.917   1.569  39.823 -0.1066  0.2242 -0.3380
10585TIP3    H153246   3.926   1.600  39.733  0.0419 -0.4043 -0.5422
10585TIP3    H253247   3.826   1.589  39.846 -0.1128  0.4906 -0.5814
10586TIP3   OH253248   2.191   1.734   1.135 -0.0951  0.1370  0.1682
10586TIP3    H153249   2.181   1.733   1.040  0.4237  2.0330  0.0581
10586TIP3    H253250   2.102   1.744   1.169 -0.2054  0.1771 -0.1334
10587TIP3   OH253251   0.637   1.570  13.330 -0.2009 -0.3953 -0.4287
10587TIP3    H153252   0.711   1.520  13.364  0.0206  0.1617 -0.0783
10587TIP3    H253253   0.614   1.630  13.401  0.0173  0.5212 -1.1151
10588TIP3   OH253254   3.348   1.498  43.574  0.0255 -0.1772 -0.5240
10588TIP3    H153255   3.419   1.561  43.565  0.1126 -0.3341 -0.9454
10588TIP3    H253256   3.293   1.513  43.497 -0.8928  0.5554  0.2391
10589TIP3   OH253257   1.201   2.156  32.858 -0.0988  0.1784  0.1400
10589TIP3    H153258   1.146   2.167  32.780 -2.1206  0.5697  1.5361
10589TIP3    H253259   1.157   2.087  32.908  1.6566 -0.7034  0.5644
10590TIP3   OH253260   0.946   3.471  13.372  0.6478  0.2079  0.2910
10590TIP3    H153261   0.886   3.526  13.422  1.6340  1.3332  0.2723
10590TIP3    H253262   0.913   3.382  13.385 -0.2979  0.6794  1.2686
10591TIP3   OH253263   0.835   3.212  12.708 -0.1571 -0.2722  0.0164
10591TIP3    H153264   0.846   3.132  12.656 -1.6881  0.1261 -0.9926
10591TIP3    H253265   0.812   3.180  12.795 -2.8222 -1.0303 -0.8513
10592TIP3   OH253266   0.602   1.783  40.290 -0.7107  0.2893 -0.2875
10592TIP3    H153267   0.631   1.712  40.232 -1.8229 -0.9817  0.6510
10592TIP3    H253268   0.627   1.754  40.377 -2.0213  0.5930  0.2071
10593TIP3   OH253269   0.672   1.024  37.512 -0.3559 -0.3544 -0.1755
10593TIP3    H153270   0.746   0.994  37.458 -0.6164  0.5905 -1.0943
10593TIP3    H253271   0.709   1.095  37.565 -0.3030 -0.7394  0.3129
10594TIP3   OH253272   1.368   3.028  39.521 -0.0524 -0.0655  0.0408
10594TIP3    H153273   1.428   3.027  39.446 -0.7904 -1.8465 -0.5726
10594TIP3    H253274   1.410   2.971  39.586 -0.1399  0.2784  0.4075
10595TIP3   OH253275   2.426   0.189  46.577  0.1772  0.3036  0.4323
10595TIP3    H153276   2.519   0.213  46.575  0.0923  0.6088 -0.4053
10595TIP3    H253277   2.401   0.182  46.485 -0.2667 -1.2226  0.6421
10596TIP3   OH253278   3.927   3.587  36.189  0.6555  0.2389  0.3232
10596TIP3    H153279   3.921   3.682  36.200  0.6321  0.3680 -0.7468
10596TIP3    H253280   3.904   3.551  36.275  0.1261  1.1809  0.5796
10597TIP3   OH253281   1.162   1.734   1.690 -0.2091  1.1643  0.1926
10597TIP3    H153282   1.174   1.798   1.761  1.8230  0.6357  0.4028
10597TIP3    H253283   1.250   1.722   1.654 -0.7992 -0.4056 -0.8294
10598TIP3   OH253284   2.186   3.289   5.756 -0.2022  0.3087 -0.7154
10598TIP3    H153285   2.098   3.261   5.781 -0.2252 -0.0120 -1.1522
10598TIP3    H253286   2.228   3.210   5.721 -0.1625  0.7394 -1.6666
10599TIP3   OH253287   2.905   2.794  43.902  0.4643  0.0320 -0.1988
10599TIP3    H153288   2.888   2.710  43.944  0.6394 -0.9334 -1.9374
10599TIP3    H253289   2.950   2.846  43.969 -1.5462 -0.4438  1.6300
10600TIP3   OH253290   2.309   3.392  36.208 -0.2913 -0.7536 -0.2849
10600TIP3    H153291   2.215   3.404  36.194 -0.9469 -2.9467  1.5218
10600TIP3    H253292   2.351   3.451  36.146 -2.8565  0.0452 -1.3769
10601TIP3   OH253293   2.892   3.239  36.360  0.5405  0.3354  0.2220
10601TIP3    H153294   2.799   3.249  36.381  0.1614  0.0791 -1.2109
10601TIP3    H253295   2.937   3.242  36.445 -0.7991  0.1804  0.9608
10602TIP3   OH253296   3.825   2.528  35.174 -0.0663  0.2137 -0.2907
10602TIP3    H153297   3.808   2.501  35.264 -1.1371 -0.5552 -0.7059
10602TIP3    H253298   3.832   2.624  35.179  0.5095  0.1320  0.6879
10603TIP3   OH253299   3.049   1.638   2.066 -0.1336  0.5656 -0.1005
10603TIP3    H153300   3.101   1.636   1.986  2.7414 -1.8097  1.6253
10603TIP3    H253301   3.096   1.699   2.124 -0.1149 -0.4361  0.9797
10604TIP3   OH253302   0.510   1.405  41.604 -0.3559 -0.0725 -0.2253
10604TIP3    H153303   0.551   1.485  41.638 -1.9120  1.1985 -1.2626
10604TIP3    H253304   0.523   1.341  41.674 -0.7070  1.5955  1.4481
10605TIP3   OH253305   2.975   0.952  12.128  0.1863  0.2378  0.1594
10605TIP3    H153306   2.953   1.040  12.097  0.9315 -0.1343 -1.5499
10605TIP3    H253307   3.029   0.967  12.205 -0.6788  1.2414  0.5950
10606TIP3   OH253308   3.214   0.765   3.140  0.4614 -0.1552  0.0170
10606TIP3    H153309   3.126   0.792   3.115  0.2124  0.5822  1.5843
10606TIP3    H253310   3.271   0.801   3.072 -0.5941 -2.6715 -2.3910
10607TIP3   OH253311   3.825   4.082  11.169  0.0683 -0.0734 -0.6573
10607TIP3    H153312   3.839   3.989  11.189 -1.6681 -0.0698  0.7872
10607TIP3    H253313   3.856   4.091  11.079  0.1579 -2.0755 -0.8848
10608TIP3   OH253314   2.010   2.205   5.755 -0.0602  0.3708  0.1647
10608TIP3    H153315   1.973   2.262   5.823  1.0075  0.6082  0.5649
10608TIP3    H253316   2.104   2.224   5.756  0.2552 -1.0624 -0.0251
10609TIP3   OH253317   2.910   0.722  39.908  0.1280  0.1635  0.0516
10609TIP3    H153318   2.926   0.732  40.002 -3.8293  1.0984  0.8150
10609TIP3    H253319   2.867   0.638  39.900  2.8047 -1.1982 -1.4698
10610TIP3   OH253320   3.011   0.992  30.697  0.1247  0.5935 -0.0308
10610TIP3    H153321   3.100   1.015  30.670 -0.5456  2.3454 -0.9116
10610TIP3    H253322   2.970   0.956  30.618  0.4401 -1.6716  0.7467
10611TIP3   OH253323   3.217   1.925   6.797 -0.3453 -0.0450  0.0806
10611TIP3    H153324   3.178   1.997   6.748  0.1266 -0.4836 -0.9727
10611TIP3    H253325   3.176   1.846   6.761 -0.4685 -0.3460  0.8502
10612TIP3   OH253326   0.286   2.417   7.039  0.4103 -0.0602 -0.2088
10612TIP3    H153327   0.239   2.441   6.959  0.3491  0.5440  0.0052
10612TIP3    H253328   0.237   2.343   7.074 -1.1488  1.3162  0.6812
10613TIP3   OH253329   0.336   3.753  42.546 -0.7605  0.2887 -0.3949
10613TIP3    H153330   0.426   3.731  42.520 -0.3835  1.1079  0.1697
10613TIP3    H253331   0.298   3.669  42.572 -0.7239 -0.3440 -2.2566
10614TIP3   OH253332   1.494   2.672  14.060 -0.2809 -0.0998  0.3004
10614TIP3    H153333   1.575   2.640  14.020 -0.3118 -0.3880  0.4642
10614TIP3    H253334   1.522   2.738  14.122 -0.1229 -0.5620  0.7301
10615TIP3   OH253335   0.795   2.267  10.400 -0.2749 -0.0099  0.1353
10615TIP3    H153336   0.764   2.230  10.317 -3.9641 -0.4137  1.4899
10615TIP3    H253337   0.840   2.195  10.444  0.4348 -0.2120 -0.9000
10616TIP3   OH253338   3.730   0.743  12.294 -0.0321  0.1354  0.1341
10616TIP3    H153339   3.822   0.719  12.281 -0.1880 -0.0566 -0.6564
10616TIP3    H253340   3.732   0.811  12.361  0.8169  1.2409 -0.9828
10617TIP3   OH253341   4.004   3.876  14.937  0.2387  0.5361  0.1903
10617TIP3    H153342   3.925   3.837  14.974  0.6570 -0.7498 -0.2148
10617TIP3    H253343   4.051   3.910  15.012  0.2961 -0.5826  0.6819
10618TIP3   OH253344   1.284   2.274  47.091 -0.7529  0.8929 -0.2687
10618TIP3    H153345   1.334   2.237  47.165 -2.8372 -0.7715  0.3915
10618TIP3    H253346   1.339   2.346  47.059  1.3224  0.1454  1.3814
10619TIP3   OH253347   0.643   2.875  12.408  0.0944 -0.4815 -0.2699
10619TIP3    H153348   0.644   2.788  12.369  0.8176 -0.8413  0.5324
10619TIP3    H253349   0.725   2.881  12.457 -0.5537  0.1445  0.7748
10620TIP3   OH253350   2.753   3.071  32.460 -0.0626  0.3348 -0.4565
10620TIP3    H153351   2.709   3.148  32.423 -0.6047 -0.7062 -2.0916
10620TIP3    H253352   2.699   3.047  32.535 -0.2609  1.1596 -0.3190
10621TIP3   OH253353   1.559   2.598  16.582  0.5096 -0.0029 -0.2767
10621TIP3    H153354   1.578   2.655  16.507  2.2518  1.6874  1.3639
10621TIP3    H253355   1.639   2.547  16.594  0.3722 -0.0083  0.6517
10622TIP3   OH253356   2.816   2.108  11.315  0.4111 -0.0952  0.4105
10622TIP3    H153357   2.792   2.053  11.240  0.6084 -0.6757  0.7695
10622TIP3    H253358   2.732   2.141  11.348  0.3270  0.1940 -0.0865
10623TIP3   OH253359   0.000   0.785  42.065 -0.7036 -0.2471  0.0722
10623TIP3    H153360  -0.094   0.770  42.077 -1.0076  0.5927 -1.1128
10623TIP3    H253361   0.027   0.835  42.142 -0.8455 -1.9129  1.2598
10624TIP3   OH253362   4.085   3.462  41.980 -0.6918 -0.1634 -0.0560
10624TIP3    H153363   4.050   3.530  41.921 -2.0430 -0.7097  0.0897
10624TIP3    H253364   4.107   3.509  42.060  0.4139  0.4573 -0.7078
10625TIP3   OH253365   3.392   0.327  32.009 -0.0046  0.2396 -0.6325
10625TIP3    H153366   3.374   0.257  31.945  0.3191  0.2474 -0.7325
10625TIP3    H253367   3.333   0.308  32.082  0.3251 -0.3359 -0.5124
10626TIP3   OH253368   3.267   3.423   5.404  0.5026  0.3139  0.2685
10626TIP3    H153369   3.265   3.368   5.482  0.5558 -1.6412 -1.0345
10626TIP3    H253370   3.352   3.467   5.408  1.2271 -1.0457  0.5093
10627TIP3   OH253371   0.632   2.857  32.446  0.3382 -0.4693 -0.3451
10627TIP3    H153372   0.643   2.783  32.386 -0.0568  0.2291 -1.3000
10627TIP3    H253373   0.540   2.855  32.469  0.5039 -0.7767  0.3028
10628TIP3   OH253374   3.844   0.655  43.455 -0.6192 -0.0306  0.0624
10628TIP3    H153375   3.823   0.591  43.387  3.0830 -3.5608  1.8174
10628TIP3    H253376   3.794   0.627  43.531  0.1167 -0.1497  0.5167
10629TIP3   OH253377   3.201   2.462  38.649 -0.7686  0.2300 -0.0932
10629TIP3    H153378   3.148   2.405  38.705 -1.5398  0.0349 -0.9894
10629TIP3    H253379   3.245   2.521  38.710 -1.8515  0.2562  0.7095
10630TIP3   OH253380   3.915   1.536  42.294 -0.7969  0.0170  0.0390
10630TIP3    H153381   3.851   1.471  42.324 -0.9558 -0.1357 -0.6100
10630TIP3    H253382   3.861   1.609  42.263 -0.6430  0.0646 -0.1122
10631TIP3   OH253383   0.900   1.318  13.199 -0.1597  0.0876 -0.0337
10631TIP3    H153384   0.853   1.357  13.273 -1.5947 -0.4251 -0.6538
10631TIP3    H253385   0.942   1.240  13.236  0.3081  0.5999  0.5452
10632TIP3   OH253386   3.551   3.879   0.028  0.0052 -1.0889  0.5016
10632TIP3    H153387   3.560   3.784   0.035 -1.1809 -1.2357  0.3894
10632TIP3    H253388   3.638   3.911   0.005  0.4835 -2.1195  0.8464
10633TIP3   OH253389   1.812   3.312   2.047 -0.4775  0.2818  0.0432
10633TIP3    H153390   1.896   3.324   2.092 -0.3218  1.2722 -0.4716
10633TIP3    H253391   1.821   3.229   2.002 -0.7565 -0.8985  2.0504
10634TIP3   OH253392   0.752   1.524  15.821  0.0867 -0.5605 -0.4032
10634TIP3    H153393   0.769   1.618  15.826  0.3386 -0.6452  0.8798
10634TIP3    H253394   0.806   1.486  15.890 -1.3259 -1.4405  0.2882
10635TIP3   OH253395   2.246   1.398  39.038 -0.2407 -0.8210  0.2296
10635TIP3    H153396   2.333   1.365  39.060  1.1669  1.8386 -0.8706
10635TIP3    H253397   2.231   1.370  38.948  2.6788  4.1635 -2.2137
10636TIP3   OH253398   1.769   1.359  44.422 -0.1578 -0.0020  0.3217
10636TIP3    H153399   1.768   1.348  44.517  0.0297  2.1429  0.6150
10636TIP3    H253400   1.679   1.340  44.394 -0.3075 -0.2473  0.9580
10637TIP3   OH253401   0.310   1.315   8.367 -0.7319  0.4125  0.3077
10637TIP3    H153402   0.299   1.302   8.461 -2.2473 -1.9045 -0.1106
10637TIP3    H253403   0.262   1.396   8.347  0.4687  1.4911  1.6303
10638TIP3   OH253404   4.052   3.020  47.233 -0.3002 -0.2256  0.4045
10638TIP3    H153405   3.964   3.045  47.259  0.3489  0.4120  2.1814
10638TIP3    H253406   4.048   2.926  47.219 -1.8544  0.1282 -2.3252
10639TIP3   OH253407   3.965   0.617   9.926 -0.6549  0.1506  0.6873
10639TIP3    H153408   3.876   0.586   9.908  0.3520 -1.4290 -2.4129
10639TIP3    H253409   4.014   0.538   9.948  0.4127  0.6492  0.1704
10640TIP3   OH253410   3.201   1.822  33.192  0.1390  0.0371  0.7188
10640TIP3    H153411   3.118   1.792  33.228  0.7481 -0.7901  1.4747
10640TIP3    H253412   3.197   1.917  33.196 -0.6533 -0.0072  1.0110
10641TIP3   OH253413   0.833   3.593  36.679 -0.0673  0.1703  0.0527
10641TIP3    H153414   0.745   3.623  36.701 -0.4858 -0.8053 -0.2081
10641TIP3    H253415   0.828   3.570  36.586  0.7401  1.0247 -0.2134
10642TIP3   OH253416   3.918   2.949  40.267  0.0041 -0.0441 -0.1032
10642TIP3    H153417   3.958   2.951  40.181  0.4789 -1.6205  0.0531
10642TIP3    H253418   3.851   3.017  40.264  0.7762  0.6986 -1.3152
10643TIP3   OH253419   3.211   2.634  35.644  0.5916  0.1947 -0.0708
10643TIP3    H153420   3.272   2.663  35.576  0.7811 -0.0607 -0.0119
10643TIP3    H253421   3.149   2.706  35.653 -1.1747 -0.8590 -2.5469
10644TIP3   OH253422   1.046   1.700  37.023 -0.2628  0.2568  0.0551
10644TIP3    H153423   1.003   1.781  36.994  0.7368  0.2108 -1.6884
10644TIP3    H253424   1.025   1.636  36.956 -1.0953 -1.0066  1.4517
10645TIP3   OH253425   1.688   0.161  25.901  0.0424  0.6057 -0.1383
10645TIP3    H153426   1.753   0.231  25.908  0.0465  0.5119  0.7786
10645TIP3    H253427   1.726   0.101  25.835  0.2799  1.1905 -0.5436
10646TIP3   OH253428   3.588   2.926  40.122 -0.1996 -0.1893  0.0228
10646TIP3    H153429   3.527   2.999  40.127 -1.2791 -1.0929  0.5490
10646TIP3    H253430   3.614   2.910  40.213  1.0258  0.3250 -0.2126
10647TIP3   OH253431   3.266   0.742  37.076  0.2361  0.4106 -0.1485
10647TIP3    H153432   3.207   0.811  37.043 -1.5624 -0.9781  0.0262
10647TIP3    H253433   3.247   0.737  37.170  2.5898  1.7180  0.4907
10648TIP3   OH253434   0.105   2.349  32.455 -0.3061 -0.0656  0.0028
10648TIP3    H153435   0.142   2.404  32.525 -1.2129  0.5927 -0.0204
10648TIP3    H253436   0.125   2.259  32.483  0.1827  0.2248  0.6268
10649TIP3   OH253437   3.267   0.237  43.075 -0.6239  0.4961  0.0456
10649TIP3    H153438   3.330   0.187  43.127 -0.6766  0.2842 -0.0944
10649TIP3    H253439   3.319   0.306  43.034 -0.1861 -0.6132 -1.3314
10650TIP3   OH253440   3.011   0.362   6.103  0.7957 -0.7210 -0.3013
10650TIP3    H153441   3.043   0.348   6.192 -1.1444 -1.9236  0.2595
10650TIP3    H253442   2.917   0.374   6.112  0.6456 -0.1403 -2.1433
10651TIP3   OH253443   3.996   0.804   5.551  0.2111 -0.5561  0.6527
10651TIP3    H153444   4.081   0.768   5.575  0.4683  0.8504  2.0322
10651TIP3    H253445   3.943   0.795   5.630 -0.3315  0.2529  0.3946
10652TIP3   OH253446   1.402   3.521  14.689  0.0681 -0.0290  0.1217
10652TIP3    H153447   1.454   3.452  14.648  0.7192 -0.6581  1.8759
10652TIP3    H253448   1.463   3.565  14.748 -1.0432  0.0897  1.2353
10653TIP3   OH253449   0.435   2.250  12.565 -0.4652  0.3188  0.0308
10653TIP3    H153450   0.433   2.345  12.555 -2.5858  0.4931  1.4832
10653TIP3    H253451   0.485   2.236  12.646  0.8076  0.0814 -0.7626
10654TIP3   OH253452   2.349   0.150  42.695 -0.3576 -0.0982 -0.1448
10654TIP3    H153453   2.360   0.055  42.689  0.4912 -0.0114 -0.0748
10654TIP3    H253454   2.257   0.162  42.718 -1.2432 -0.7949 -2.9435
10655TIP3   OH253455   3.807   1.842  33.118 -0.5393 -0.1481 -0.3865
10655TIP3    H153456   3.806   1.869  33.209 -0.1547 -0.2297 -0.3580
10655TIP3    H253457   3.735   1.779  33.111 -0.2311 -0.5432 -0.0175
10656TIP3   OH253458   0.385   2.277  38.142 -0.1564  0.4757 -0.2593
10656TIP3    H153459   0.305   2.251  38.096  0.0175 -1.4010  0.3868
10656TIP3    H253460   0.434   2.329  38.079 -0.6317 -0.7073 -1.6525
10657TIP3   OH253461   1.006   3.750  11.301  0.3495  0.4323 -0.4031
10657TIP3    H153462   0.953   3.703  11.236  0.0534 -2.4726  1.7366
10657TIP3    H253463   1.004   3.841  11.272 -1.6027 -0.3535 -3.1890
10658TIP3   OH253464   3.726   3.292  38.232  0.3444  0.1982  0.3632
10658TIP3    H153465   3.793   3.278  38.299  2.1604  0.6630 -1.2453
10658TIP3    H253466   3.643   3.275  38.276  1.5095 -0.3207  2.4760
10659TIP3   OH253467   2.238   3.069  31.784 -0.6361 -0.0875  0.0906
10659TIP3    H153468   2.266   3.122  31.709 -0.1690 -1.2949 -0.6170
10659TIP3    H253469   2.278   2.984  31.769 -1.6460 -0.7461  1.0278
10660TIP3   OH253470   1.944   4.034  43.353  0.1447 -0.3222 -0.0539
10660TIP3    H153471   2.021   4.030  43.296 -0.3423  0.4077 -0.7997
10660TIP3    H253472   1.930   4.128  43.367  0.6947 -0.5035  1.9127
10661TIP3   OH253473   0.430   0.462  13.056  0.7052  0.1839  0.1636
10661TIP3    H153474   0.503   0.405  13.029 -0.2066 -1.6986  1.4616
10661TIP3    H253475   0.437   0.538  12.998  1.4044 -1.6623 -2.3797
10662TIP3   OH253476   3.296   3.859  32.258  0.2941 -0.2975  0.2146
10662TIP3    H153477   3.251   3.887  32.337 -1.5151 -0.9008 -0.5417
10662TIP3    H253478   3.329   3.771  32.278  2.0302  0.5005  1.0766
10663TIP3   OH253479   1.549   2.808  36.571  0.1661  0.5419 -0.7300
10663TIP3    H153480   1.460   2.840  36.555 -0.5741 -1.2321 -0.4157
10663TIP3    H253481   1.584   2.868  36.637 -0.9470  1.0058 -0.5305
10664TIP3   OH253482   1.393   1.093  35.735  0.3462 -0.5210  0.2235
10664TIP3    H153483   1.343   1.035  35.792  0.5837  0.6689  1.7106
10664TIP3    H253484   1.330   1.159  35.706  0.7611  0.3185  1.1721
10665TIP3   OH253485   0.439   2.052  13.736 -0.0641  0.3241  0.5564
10665TIP3    H153486   0.473   2.123  13.682 -1.3253  1.6243  1.3847
10665TIP3    H253487   0.516   2.015  13.779  0.6698  0.8482 -0.2681
10666TIP3   OH253488   2.612   3.471  42.779 -0.1021  0.2638 -0.3983
10666TIP3    H153489   2.619   3.487  42.873  0.6011 -0.2111 -0.3622
10666TIP3    H253490   2.664   3.392  42.764  0.9825  1.1136 -1.3899
10667TIP3   OH253491   2.315   1.666  15.534 -0.5661 -0.2947  0.3284
10667TIP3    H153492   2.345   1.643  15.622  1.1192 -0.3363 -0.2206
10667TIP3    H253493   2.308   1.583  15.488 -1.5393 -0.2823  0.4363
10668TIP3   OH253494   3.111   3.955  28.607  0.2467  0.8944  0.3638
10668TIP3    H153495   3.061   3.959  28.689 -0.8355 -0.1031 -0.2171
10668TIP3    H253496   3.067   4.019  28.550  0.1850  0.6490  0.1361
10669TIP3   OH253497   1.927   0.210  42.044 -0.2856  0.2170  0.1191
10669TIP3    H153498   1.870   0.285  42.026 -0.3845 -0.5450 -3.5066
10669TIP3    H253499   1.867   0.140  42.069 -0.9005 -0.1033 -2.0124
10670TIP3   OH253500   2.050   3.019  39.042  0.1569 -0.2278  0.4481
10670TIP3    H153501   2.038   3.001  38.948 -1.5473  0.7593  0.4367
10670TIP3    H253502   2.038   3.113  39.050  3.5017  0.2746  1.2646
10671TIP3   OH253503   2.625   0.156  47.174 -0.1327 -0.0326  0.0383
10671TIP3    H153504   2.694   0.202  47.222  0.1609  0.0825 -0.4905
10671TIP3    H253505   2.555   0.146  47.238 -0.1935  1.1261  0.1695
10672TIP3   OH253506   3.109   2.050  31.073  0.1275  0.6504  0.2963
10672TIP3    H153507   3.130   1.956  31.076  2.2873  1.0867  0.2709
10672TIP3    H253508   3.097   2.074  31.165  0.1075  0.4752  0.3401
10673TIP3   OH253509   3.744   0.419   7.646 -0.1789 -0.1085 -0.2086
10673TIP3    H153510   3.661   0.384   7.613 -1.2752  2.0954 -0.0357
10673TIP3    H253511   3.807   0.402   7.577 -1.7672  1.8297 -2.2992
10674TIP3   OH253512   1.207   3.287  46.650  0.2200  0.1830  0.0394
10674TIP3    H153513   1.272   3.316  46.586  0.0571  0.9061  0.1953
10674TIP3    H253514   1.155   3.221  46.603 -0.7960  1.6774 -1.0658
10675TIP3   OH253515   3.020   1.140  37.352 -0.2536 -0.1188 -0.3717
10675TIP3    H153516   2.994   1.227  37.384  3.9407  0.6026  1.6719
10675TIP3    H253517   2.995   1.080  37.422  1.7993  0.3484  0.8467
10676TIP3   OH253518   1.847   4.031  42.804 -0.3665 -0.1124  0.1694
10676TIP3    H153519   1.906   3.959  42.781 -2.2873 -1.4581 -0.8424
10676TIP3    H253520   1.865   4.098  42.739 -1.4061 -1.4080 -1.5530
10677TIP3   OH253521   3.645   1.657  45.860  0.0074 -0.0463 -0.0578
10677TIP3    H153522   3.602   1.644  45.775 -1.1480  1.9462  0.1579
10677TIP3    H253523   3.634   1.750  45.878 -0.6660 -0.5960  2.7744
10678TIP3   OH253524   2.167   0.670   4.758 -0.3667 -0.3237 -0.4505
10678TIP3    H153525   2.233   0.602   4.774  1.1763  1.3868  0.9066
10678TIP3    H253526   2.097   0.651   4.821  0.1025 -0.5827  0.0014
10679TIP3   OH253527   3.413   3.965  46.781 -0.2098  0.0796  0.2973
10679TIP3    H153528   3.390   3.975  46.874  0.4165 -1.0512  0.5901
10679TIP3    H253529   3.329   3.960  46.736 -0.5907 -2.0103  1.1189
10680TIP3   OH253530   3.308   0.785   0.039 -0.0237  0.0519  0.6213
10680TIP3    H153531   3.277   0.873   0.064 -3.0814 -1.3917  2.4745
10680TIP3    H253532   3.364   0.758   0.112  3.9759  1.5963 -1.5186
10681TIP3   OH253533   2.522   1.601  40.578  0.1161  0.2284 -0.3688
10681TIP3    H153534   2.489   1.527  40.527 -0.4212 -0.5214  1.0116
10681TIP3    H253535   2.603   1.568  40.619  0.2817  0.6544 -0.3490
10682TIP3   OH253536   0.221   0.411  26.718  0.8369  0.5928 -0.1813
10682TIP3    H153537   0.218   0.421  26.813  0.5939 -0.1691 -0.1057
10682TIP3    H253538   0.129   0.415  26.690  0.7495 -0.9405 -0.1847
10683TIP3   OH253539   0.472   3.335  32.429 -0.6190 -0.4558  0.5108
10683TIP3    H153540   0.545   3.341  32.491  0.3949 -0.2874 -0.6607
10683TIP3    H253541   0.463   3.242  32.410  1.2227 -0.2759 -1.5183
10684TIP3   OH253542   2.506   1.179  15.609  0.3457  0.6904  0.0370
10684TIP3    H153543   2.423   1.173  15.563 -0.6959  2.1502  1.6168
10684TIP3    H253544   2.549   1.095  15.591 -2.9430 -1.6265  1.9396
10685TIP3   OH253545   1.626   0.591  35.566  0.2895  0.4244 -0.2758
10685TIP3    H153546   1.642   0.499  35.543 -2.1357  0.0648 -0.7905
10685TIP3    H253547   1.573   0.587  35.646 -0.4394  1.3421 -0.6958
10686TIP3   OH253548   3.558   1.181   1.291  0.1792  0.0148 -0.2986
10686TIP3    H153549   3.603   1.138   1.364 -0.1260  0.3880  0.1151
10686TIP3    H253550   3.493   1.118   1.262 -0.1551  0.1237  0.1981
10687TIP3   OH253551   2.243   1.040  11.424  0.0781 -0.4045 -0.1194
10687TIP3    H153552   2.294   1.121  11.414  1.2730 -0.5267  3.3655
10687TIP3    H253553   2.152   1.068  11.416  0.4934  1.2149  0.3480
10688TIP3   OH253554   1.196   2.523  15.500 -0.4291 -0.1625 -0.6287
10688TIP3    H153555   1.203   2.568  15.585  0.8563 -1.1143 -0.2008
10688TIP3    H253556   1.286   2.509  15.472 -0.8232 -0.8249 -1.6400
10689TIP3   OH253557   3.501   2.490   1.972 -0.1281 -0.2627  0.5592
10689TIP3    H153558   3.556   2.452   1.903 -1.3435  0.8822 -1.1090
10689TIP3    H253559   3.560   2.500   2.047  1.7280  0.1312 -0.8785
10690TIP3   OH253560   3.816   1.327  38.027 -0.2833  0.7139 -0.7700
10690TIP3    H153561   3.780   1.248  38.069  0.2623  0.8697  0.0157
10690TIP3    H253562   3.801   1.313  37.933 -2.3016  0.7390 -0.4996
10691TIP3   OH253563   0.660   2.505  10.221  0.3341  0.1866 -0.1420
10691TIP3    H153564   0.753   2.484  10.208 -0.1635 -0.9420 -2.1649
10691TIP3    H253565   0.619   2.487  10.137 -1.8707 -0.0579  0.9255
10692TIP3   OH253566   3.794   2.898  13.885 -0.3781  0.0872 -0.3310
10692TIP3    H153567   3.850   2.831  13.848 -2.5336 -0.5752 -2.6480
10692TIP3    H253568   3.802   2.887  13.980  0.8487 -2.0731 -0.6363
10693TIP3   OH253569   2.920   0.874  33.014 -0.3126 -0.1414 -0.4039
10693TIP3    H153570   2.975   0.921  32.952 -0.5162  0.2278 -0.3057
10693TIP3    H253571   2.982   0.837  33.077 -0.2553  1.6488  0.6581
10694TIP3   OH253572   0.034   3.805  44.013  0.6638  0.1250  0.1878
10694TIP3    H153573   0.057   3.735  44.075  0.6785 -1.0911 -1.1499
10694TIP3    H253574   0.112   3.813  43.957 -0.4080 -0.8668 -1.5184
10695TIP3   OH253575   0.983   3.367  42.498 -0.3053 -0.2174 -0.3260
10695TIP3    H153576   1.055   3.326  42.450  0.1674 -0.5440  0.6326
10695TIP3    H253577   0.998   3.343  42.589 -1.6742 -0.3621 -0.1047
10696TIP3   OH253578   2.543   3.495  40.773 -0.2213  0.6043 -0.2228
10696TIP3    H153579   2.575   3.408  40.799 -1.3718 -0.0495 -0.9104
10696TIP3    H253580   2.498   3.527  40.851  1.0791  1.0521  0.3777
10697TIP3   OH253581   0.085   2.901  33.443 -0.1215 -0.3391  0.5120
10697TIP3    H153582   0.107   2.809  33.452 -1.0352 -0.5216  1.0276
10697TIP3    H253583   0.136   2.945  33.510  1.2042 -0.2953 -0.4747
10698TIP3   OH253584   3.808   0.550   6.825  0.6498 -0.0057  0.0468
10698TIP3    H153585   3.856   0.620   6.779 -0.1031  0.5745  0.1239
10698TIP3    H253586   3.785   0.589   6.909 -0.4450 -0.0794 -0.2082
10699TIP3   OH253587   3.532   0.979  41.012  0.0318  0.6321  0.5509
10699TIP3    H153588   3.606   0.936  41.055  0.6170  0.5905 -0.4935
10699TIP3    H253589   3.465   0.912  41.008 -0.4811  0.9544  2.4336
10700TIP3   OH253590   0.427   3.534  27.693 -0.1508 -0.5115  0.1792
10700TIP3    H153591   0.369   3.500  27.761  0.3381  1.1215  1.4960
10700TIP3    H253592   0.385   3.615  27.664  0.9689  0.2092  0.4984
10701TIP3   OH253593   2.686   1.998  36.562  0.4867 -0.1125 -0.3835
10701TIP3    H153594   2.645   2.047  36.490  1.7942 -0.6587 -1.5601
10701TIP3    H253595   2.666   1.906  36.542  0.5104 -0.2405  0.1809
10702TIP3   OH253596   3.926   2.924  15.545 -0.1271 -0.1625 -0.3483
10702TIP3    H153597   4.010   2.921  15.590  0.0301 -0.8105 -0.6787
10702TIP3    H253598   3.921   3.012  15.508 -0.8355  0.8719  2.0236
10703TIP3   OH253599   3.856   3.338  37.592 -0.5018 -0.0581 -0.3044
10703TIP3    H153600   3.867   3.402  37.521 -0.5322  0.2033 -0.0766
10703TIP3    H253601   3.856   3.391  37.672  0.0375 -0.3989 -0.0745
10704TIP3   OH253602   3.412   4.083   9.156 -0.5829  0.3983  0.5025
10704TIP3    H153603   3.322   4.104   9.180 -1.6670 -1.4882 -1.5434
10704TIP3    H253604   3.407   3.996   9.118  1.8424  0.8814 -1.1483
10705TIP3   OH253605   1.308   2.877  35.586 -0.6174  0.0166  0.4103
10705TIP3    H153606   1.259   2.795  35.582 -0.5387 -0.1038  1.4460
10705TIP3    H253607   1.388   2.861  35.536 -1.6169  0.2259 -1.3311
10706TIP3   OH253608   3.487   2.311  13.860  0.9130 -0.3814 -0.2667
10706TIP3    H153609   3.567   2.360  13.882 -0.4345  1.5970  0.4937
10706TIP3    H253610   3.433   2.318  13.939 -0.0697 -1.6107 -0.8070
10707TIP3   OH253611   2.978   3.790  46.355  0.4750  0.1490 -0.0902
10707TIP3    H153612   2.992   3.862  46.416 -1.0771  1.5196 -1.2863
10707TIP3    H253613   3.048   3.728  46.376  0.5255  0.9611  2.4494
10708TIP3   OH253614   1.829   2.170  33.520 -0.5034  0.0240 -0.8213
10708TIP3    H153615   1.791   2.250  33.482 -2.2816  0.2733  1.2520
10708TIP3    H253616   1.791   2.099  33.468 -1.1385  0.4299 -0.9229
10709TIP3   OH253617   1.633   3.489  40.089  0.0470 -0.3444  0.3963
10709TIP3    H153618   1.679   3.408  40.112 -0.4145 -1.0306 -0.9949
10709TIP3    H253619   1.673   3.517  40.007  0.0791  0.7619  0.7756
10710TIP3   OH253620   1.745   3.638   3.024  0.1666 -0.0569 -0.2439
10710TIP3    H153621   1.741   3.646   2.929  0.5455  0.5961 -0.2081
10710TIP3    H253622   1.822   3.583   3.040  0.3691  0.2084 -0.2986
10711TIP3   OH253623   3.805   3.477   5.494 -0.0744 -0.2663  0.5332
10711TIP3    H153624   3.770   3.526   5.568  0.2117 -0.5166  0.8404
10711TIP3    H253625   3.812   3.387   5.526 -1.2571 -0.6606 -0.2460
10712TIP3   OH253626   0.203   1.190  45.391  0.1051 -0.1417  0.1979
10712TIP3    H153627   0.274   1.134  45.423  0.6633  0.1348 -0.5359
10712TIP3    H253628   0.234   1.223  45.307  0.2600  2.1432  1.0869
10713TIP3   OH253629   1.239   3.437   9.727 -0.0530 -0.3512  0.5184
10713TIP3    H153630   1.295   3.504   9.766 -0.5455  0.3586  0.0217
10713TIP3    H253631   1.283   3.354   9.747  0.1492  0.0577  1.8145
10714TIP3   OH253632   3.524   3.727  35.489 -0.3253  0.5286 -0.1257
10714TIP3    H153633   3.551   3.656  35.430  0.6219 -0.1539  1.0858
10714TIP3    H253634   3.439   3.698  35.524  1.1502 -1.2778  2.2429
10715TIP3   OH253635   3.551   2.264  19.380 -0.6663  0.1592 -0.0997
10715TIP3    H153636   3.614   2.193  19.365 -1.6391 -0.7538  0.0554
10715TIP3    H253637   3.480   2.246  19.319 -1.7551 -0.0239  1.1942
10716TIP3   OH253638   3.199   1.810  38.635 -0.0305  0.3103  0.2684
10716TIP3    H153639   3.256   1.881  38.604 -1.2473  0.3763 -2.0442
10716TIP3    H253640   3.258   1.749  38.678  1.6174  0.9517 -0.9771
10717TIP3   OH253641   3.933   0.687  42.752  0.0724 -0.4147 -0.2054
10717TIP3    H153642   4.004   0.728  42.703 -1.3417  0.2736 -1.7874
10717TIP3    H253643   3.861   0.750  42.746 -0.4419 -0.7084  2.0763
10718TIP3   OH253644   2.777   0.752   4.239  0.2875 -0.5048  0.3114
10718TIP3    H153645   2.766   0.663   4.272  1.2384 -0.3987  0.9338
10718TIP3    H253646   2.860   0.750   4.192 -0.5796 -0.4065 -1.3100
10719TIP3   OH253647   2.938   1.064  44.396  0.1013 -0.0334 -0.0343
10719TIP3    H153648   2.924   1.158  44.384 -0.2302 -0.2372 -1.5245
10719TIP3    H253649   2.851   1.030  44.419  0.4278  0.1431  1.5607
10720TIP3   OH253650   0.823   0.614   3.190 -0.1355 -0.9345 -0.3805
10720TIP3    H153651   0.755   0.643   3.251 -0.9548  2.1218 -2.5027
10720TIP3    H253652   0.901   0.664   3.217 -0.2352 -0.3364 -1.1707
10721TIP3   OH253653   0.246   3.154  46.509  0.6497  0.0960  0.3745
10721TIP3    H153654   0.244   3.059  46.517  1.0863 -0.3610 -3.2896
10721TIP3    H253655   0.321   3.181  46.563  2.0064 -1.9506 -0.3792
10722TIP3   OH253656   1.712   2.918   3.248 -0.2591 -0.4577  0.1683
10722TIP3    H153657   1.715   2.822   3.255 -2.3957 -0.5434  0.5011
10722TIP3    H253658   1.652   2.935   3.175 -0.4848  0.6238  0.5844
10723TIP3   OH253659   3.885   2.702  13.688 -0.7183 -0.5753 -0.5215
10723TIP3    H153660   3.966   2.667  13.724  0.0105  1.6990  0.2275
10723TIP3    H253661   3.834   2.625  13.664  1.2272 -2.0817 -0.0646
10724TIP3   OH253662   2.972   0.439   1.465  0.5485  0.1594 -0.2458
10724TIP3    H153663   2.977   0.384   1.387  1.9680  0.2537 -0.2551
10724TIP3    H253664   3.041   0.504   1.452  0.1553  0.7628  0.6418
10725TIP3   OH253665   0.961   0.685  31.491 -0.3484 -0.2427 -0.3144
10725TIP3    H153666   1.033   0.668  31.429  0.3478 -0.6369  0.5794
10725TIP3    H253667   0.900   0.740  31.442  1.3887  1.5762 -0.5562
10726TIP3   OH253668   3.927   2.551  46.525  0.2657 -0.2428 -0.0556
10726TIP3    H153669   3.852   2.583  46.476  0.7355  2.7870  1.0143
10726TIP3    H253670   3.900   2.556  46.617  1.9985  1.8347  0.4225
10727TIP3   OH253671   0.254   4.101  14.652  0.0140  0.1029 -0.3824
10727TIP3    H153672   0.192   4.039  14.614  0.5811 -0.0837 -1.0148
10727TIP3    H253673   0.317   4.048  14.699  0.7886  0.1431 -1.3393
10728TIP3   OH253674   0.527   3.202   0.569  0.1893  0.7199 -0.1269
10728TIP3    H153675   0.602   3.210   0.629 -0.5285  2.3328  0.6098
10728TIP3    H253676   0.494   3.291   0.560 -0.9005  0.2150 -1.4343
10729TIP3   OH253677   1.507   2.734  10.930 -0.6670 -0.3171  0.0918
10729TIP3    H153678   1.533   2.680  10.855 -0.1855 -0.9195  0.6890
10729TIP3    H253679   1.412   2.741  10.921 -0.7280 -1.1754 -0.0561
10730TIP3   OH253680   3.244   3.634  45.482  0.0419  0.2247  0.0152
10730TIP3    H153681   3.198   3.559  45.443 -0.3936  1.1262 -1.2939
10730TIP3    H253682   3.236   3.620  45.576  1.5627 -2.3150 -0.1149
10731TIP3   OH253683   0.846   2.334  16.041  0.3961  0.0622  0.0476
10731TIP3    H153684   0.933   2.307  16.012 -0.2506 -3.8033  1.2178
10731TIP3    H253685   0.796   2.345  15.960  1.6957  1.5823 -0.5999
10732TIP3   OH253686   2.778   1.900  40.930 -0.1836  0.5690  0.2553
10732TIP3    H153687   2.729   1.959  40.987 -0.8017  0.0288  0.3066
10732TIP3    H253688   2.719   1.884  40.857 -1.2301 -2.1439  1.5484
10733TIP3   OH253689   1.351   3.580   6.540 -0.1288  0.7675  0.3557
10733TIP3    H153690   1.389   3.615   6.621  0.2633  0.0187  0.5020
10733TIP3    H253691   1.338   3.487   6.557 -2.4652  1.0693  0.4505
10734TIP3   OH253692   2.295   2.261  12.118 -0.4463  0.3433  0.1826
10734TIP3    H153693   2.215   2.256  12.064  0.7277  1.2691 -1.7454
10734TIP3    H253694   2.364   2.286  12.056  1.0416  1.2466  2.1095
10735TIP3   OH253695   2.571   0.113   7.501  0.3742  0.3338 -0.1814
10735TIP3    H153696   2.556   0.198   7.543  1.0391  0.8575 -0.9593
10735TIP3    H253697   2.496   0.101   7.443 -0.9525 -0.7560  1.6442
10736TIP3   OH253698   1.351   3.771  13.454 -0.2232 -0.2688 -0.5770
10736TIP3    H153699   1.376   3.841  13.393 -0.8968  0.7119  0.2250
10736TIP3    H253700   1.414   3.779  13.526 -1.3343  0.6630  0.3284
10737TIP3   OH253701   3.563   2.910  34.849  0.0038  0.2314  0.2430
10737TIP3    H153702   3.634   2.955  34.804  1.1402 -0.5389  1.2377
10737TIP3    H253703   3.596   2.893  34.937 -0.0316 -3.2391 -0.2717
10738TIP3   OH253704   1.389   3.085  40.562 -0.6448 -0.5650  0.3493
10738TIP3    H153705   1.411   3.088  40.655 -1.9545  0.4814  0.6654
10738TIP3    H253706   1.338   3.005  40.553  1.1778 -1.7565  0.0773
10739TIP3   OH253707   0.045   3.185  43.588  0.1539 -0.0291 -0.1006
10739TIP3    H153708  -0.011   3.191  43.666  1.6915 -0.1118  1.0520
10739TIP3    H253709   0.043   3.092  43.565 -1.2351  0.1677 -0.9165
10740TIP3   OH253710   1.406   2.305  34.091 -0.2738  0.8431  0.2829
10740TIP3    H153711   1.428   2.275  34.003  0.5071  0.4453  0.6043
10740TIP3    H253712   1.316   2.336  34.084 -0.5778 -0.1389 -0.4255
10741TIP3   OH253713   3.477   3.474  46.206 -0.0605  0.2662 -0.0123
10741TIP3    H153714   3.391   3.483  46.164 -0.3207  0.4408  0.5383
10741TIP3    H253715   3.538   3.513  46.144 -0.6899  2.4991  0.6677
10742TIP3   OH253716   2.120   3.977  14.446 -0.4655  0.1332  0.1717
10742TIP3    H153717   2.181   4.033  14.399 -0.5218  2.8049  2.9594
10742TIP3    H253718   2.174   3.932  14.511 -1.2035  1.5263  1.8094
10743TIP3   OH253719   1.706   2.791  14.570  0.3665 -0.3233 -0.1572
10743TIP3    H153720   1.719   2.885  14.586  0.7441 -0.6196  1.5203
10743TIP3    H253721   1.749   2.774  14.487  1.0050  0.8433 -0.0887
10744TIP3   OH253722   3.915   0.735   3.521  0.1352 -0.3162 -0.3615
10744TIP3    H153723   3.894   0.760   3.431 -1.2155  0.7635  0.2107
10744TIP3    H253724   3.965   0.655   3.513  2.1022  0.9844 -2.1877
10745TIP3   OH253725   3.014   0.523  31.709 -0.2987 -1.0372 -0.1900
10745TIP3    H153726   2.935   0.536  31.656 -0.2014  0.1544 -0.0803
10745TIP3    H253727   3.066   0.459  31.660 -0.5707 -0.5473 -1.1424
10746TIP3   OH253728   1.408   3.939  13.247  0.5274  0.0178  0.3383
10746TIP3    H153729   1.383   4.031  13.245  1.5988  0.4241 -3.5371
10746TIP3    H253730   1.501   3.939  13.222  0.9265 -2.0623  1.5696
10747TIP3   OH253731   3.564   0.240  37.406  0.3166 -0.1018  0.2181
10747TIP3    H153732   3.643   0.205  37.446  1.6305 -0.4452 -2.4527
10747TIP3    H253733   3.593   0.275  37.321 -1.8065  2.8931  0.5432
10748TIP3   OH253734   3.889   1.094  47.358 -0.3566  0.1501  0.4407
10748TIP3    H153735   3.813   1.088  47.300  1.0226 -0.5560 -1.3645
10748TIP3    H253736   3.924   1.006  47.362  2.1507  0.9597 -1.3296
10749TIP3   OH253737   4.062   3.962  42.980 -0.6465  0.2854  0.5173
10749TIP3    H153738   4.026   3.894  43.038  0.9671  0.7044  2.0894
10749TIP3    H253739   4.145   3.926  42.949  0.3211  1.5717  1.5184
10750TIP3   OH253740   1.060   1.426   2.146 -0.1441 -0.0408 -0.1280
10750TIP3    H153741   1.155   1.413   2.139 -0.0568 -0.6611  1.6473
10750TIP3    H253742   1.023   1.360   2.088  0.5060 -0.6708  0.1584
10751TIP3   OH253743   1.867   3.913  35.150  0.0680 -0.4183  0.3172
10751TIP3    H153744   1.940   3.855  35.168 -0.5204 -1.3054 -0.0999
10751TIP3    H253745   1.891   3.995  35.193  1.3976 -0.6164 -0.0031
10752TIP3   OH253746   2.720   2.750   7.085 -0.0782  0.2620 -0.1281
10752TIP3    H153747   2.630   2.783   7.077 -0.7578 -1.7748 -1.6798
10752TIP3    H253748   2.767   2.791   7.012 -0.6830 -1.3503 -1.4763
10753TIP3   OH253749   0.146   3.793  37.702  0.2406  0.4305 -0.2378
10753TIP3    H153750   0.198   3.765  37.626  0.7108  1.9680 -0.5093
10753TIP3    H253751   0.196   3.762  37.778 -0.1455 -0.9683 -0.5194
10754TIP3   OH253752   0.866   1.561   9.636 -0.1590 -0.2137 -0.0313
10754TIP3    H153753   0.849   1.467   9.640  0.7768 -0.3966  0.0359
10754TIP3    H253754   0.801   1.594   9.574 -2.2575 -0.4446  1.9242
10755TIP3   OH253755   1.393   0.202  36.731  0.2280  0.3392 -0.0029
10755TIP3    H153756   1.480   0.229  36.758  0.4797 -0.6617  0.2332
10755TIP3    H253757   1.407   0.140  36.660 -0.3727  1.5994 -1.2639
10756TIP3   OH253758   1.585   1.225   1.669 -0.0126  0.0491  0.0456
10756TIP3    H153759   1.583   1.169   1.592  3.0149 -2.2775  1.4157
10756TIP3    H253760   1.558   1.168   1.741  2.3497  0.4724  1.3886
10757TIP3   OH253761   2.511   2.271  40.332 -0.2450  0.4730 -0.0555
10757TIP3    H153762   2.516   2.175  40.340  0.4651  0.3958 -1.1711
10757TIP3    H253763   2.480   2.300  40.417 -2.3503 -0.8803 -0.2797
10758TIP3   OH253764   1.882   2.986  32.080  0.1366 -0.6002 -0.0178
10758TIP3    H153765   1.972   3.017  32.091 -0.1974  0.9910 -1.3634
10758TIP3    H253766   1.832   3.038  32.144  0.1116 -1.2918  0.5410
10759TIP3   OH253767   2.433   1.301  41.142 -0.3821  0.3202 -0.0847
10759TIP3    H153768   2.443   1.363  41.069 -1.4907 -0.3630 -0.8579
10759TIP3    H253769   2.362   1.243  41.113 -1.5398  0.6335  1.9457
10760TIP3   OH253770   2.136   1.217  32.100 -0.0547 -0.3570 -0.1521
10760TIP3    H153771   2.081   1.289  32.131  0.7800 -0.2775  1.2296
10760TIP3    H253772   2.196   1.200  32.173  1.0829 -1.1120 -1.2332
10761TIP3   OH253773   3.446   2.306   3.758  0.1483  0.3146 -0.5167
10761TIP3    H153774   3.477   2.280   3.671  0.7659 -0.0102 -0.2065
10761TIP3    H253775   3.507   2.374   3.786  1.2598 -1.0328  0.5251
10762TIP3   OH253776   3.321   1.015   1.239  0.2674 -0.1723  0.4165
10762TIP3    H153777   3.328   0.978   1.327  0.5805 -0.0361  0.4505
10762TIP3    H253778   3.254   0.961   1.196  2.3714 -2.3964 -0.3255
10763TIP3   OH253779   2.086   1.657   1.489  0.2898 -0.1566 -0.0305
10763TIP3    H153780   2.095   1.567   1.458 -0.9411 -0.5797  0.7831
10763TIP3    H253781   2.000   1.685   1.459  1.0174  1.1118 -1.0825
10764TIP3   OH253782   0.370   3.062  35.542  0.4041  0.2699 -0.0191
10764TIP3    H153783   0.350   3.020  35.459 -0.0780  0.2909  0.0785
10764TIP3    H253784   0.465   3.056  35.551  0.6679  1.7148 -1.3578
10765TIP3   OH253785   4.086   3.626  39.679 -0.0826  0.5628  0.0272
10765TIP3    H153786   4.108   3.712  39.715 -1.0578  1.8582 -2.2227
10765TIP3    H253787   4.165   3.573  39.692  1.3786  2.4940 -0.4979
10766TIP3   OH253788   1.277   0.296  46.366  0.0389 -0.0732 -0.5173
10766TIP3    H153789   1.338   0.240  46.415 -2.0124 -0.9491  1.1818
10766TIP3    H253790   1.258   0.368  46.427  2.2897  2.3917 -2.4923
10767TIP3   OH253791   0.028   3.825  41.246  0.2322 -0.5815  0.7238
10767TIP3    H153792  -0.061   3.846  41.219  0.3361 -1.0518  0.0120
10767TIP3    H253793   0.057   3.758  41.184 -0.6565 -4.1509  3.7441
10768TIP3   OH253794   0.729   0.760  11.330 -0.0743  0.2691  0.1395
10768TIP3    H153795   0.702   0.669  11.316 -0.4099  0.5168 -0.8851
10768TIP3    H253796   0.647   0.807  11.348 -0.0134  0.5331 -0.2638
10769TIP3   OH253797   2.814   2.228   0.143  0.3246 -0.4453 -0.3572
10769TIP3    H153798   2.721   2.206   0.150  0.8902 -3.5589 -1.1477
10769TIP3    H253799   2.816   2.307   0.090 -1.8113 -1.2708 -1.8041
10770TIP3   OH253800   0.085   2.757  45.193  0.1343 -0.0657  0.3478
10770TIP3    H153801   0.090   2.836  45.247  1.2950 -0.9658  1.6202
10770TIP3    H253802   0.105   2.787  45.104 -0.8570  1.2841  0.5453
10771TIP3   OH253803   2.911   1.219  35.878  0.0028  0.2138  0.1467
10771TIP3    H153804   2.921   1.300  35.829  0.6078 -0.6298 -1.2143
10771TIP3    H253805   2.992   1.211  35.928 -0.8111  1.3091  1.7046
10772TIP3   OH253806   1.222   3.316  44.927  0.1314 -0.8426 -0.1554
10772TIP3    H153807   1.246   3.255  44.857  2.1235  0.3620 -0.5933
10772TIP3    H253808   1.194   3.396  44.880 -0.7271 -0.7814  0.4329
10773TIP3   OH253809   0.184   0.814  37.237 -0.6089 -0.1482  0.2037
10773TIP3    H153810   0.112   0.769  37.192 -0.8483 -0.4112  0.8351
10773TIP3    H253811   0.154   0.823  37.327  0.2121 -0.4083  0.5172
10774TIP3   OH253812   3.278   2.556  35.277  0.7021  0.3537 -0.9077
10774TIP3    H153813   3.263   2.649  35.298  0.2367 -0.0419  0.6290
10774TIP3    H253814   3.196   2.526  35.240  0.5747  0.3528 -0.6275
10775TIP3   OH253815   2.764   3.844  40.879 -1.1037 -0.4859  0.2885
10775TIP3    H153816   2.854   3.877  40.889 -0.0888 -2.2310 -2.0281
10775TIP3    H253817   2.748   3.792  40.958  0.5412 -1.3256  0.1193
10776TIP3   OH253818   1.666   0.452  30.368 -0.0740  0.2700 -0.4772
10776TIP3    H153819   1.722   0.425  30.295  0.3119 -0.4367  0.0694
10776TIP3    H253820   1.726   0.465  30.442 -0.7203 -1.7020  0.4575
10777TIP3   OH253821   3.397   1.958   0.609  0.1541  0.1241 -0.7535
10777TIP3    H153822   3.464   2.010   0.565  0.2190 -0.4551 -1.3602
10777TIP3    H253823   3.361   2.016   0.676  0.3614  0.8734 -1.2886
10778TIP3   OH253824   2.371   2.791   8.038  0.6041  0.6744 -0.4438
10778TIP3    H153825   2.291   2.754   8.075  0.1969  1.1875 -0.7884
10778TIP3    H253826   2.431   2.797   8.112  0.2578  0.4690 -0.1396
10779TIP3   OH253827   3.693   2.757   7.186 -0.0466  0.0874 -0.4574
10779TIP3    H153828   3.760   2.786   7.124  0.4075  0.1167  0.0440
10779TIP3    H253829   3.742   2.732   7.264 -0.7490  2.3218  0.8034
10780TIP3   OH253830   0.553   2.158  36.084 -0.3605 -0.0756 -0.2258
10780TIP3    H153831   0.593   2.113  36.158 -1.3858  0.5982  0.7648
10780TIP3    H253832   0.517   2.087  36.030 -0.1428 -0.5411  0.2260
10781TIP3   OH253833   1.569   3.957   2.841 -0.0546 -0.2078 -0.4837
10781TIP3    H153834   1.576   4.052   2.832 -0.5639 -0.2423 -1.4106
10781TIP3    H253835   1.479   3.936   2.814  0.2521 -1.0111 -0.9529
10782TIP3   OH253836   1.625   1.395  36.654  0.5179 -0.0655  0.3957
10782TIP3    H153837   1.551   1.394  36.714  0.2834 -1.5248  0.1205
10782TIP3    H253838   1.616   1.477  36.605 -1.7590 -0.8408 -0.6178
10783TIP3   OH253839   2.387   3.320  41.656 -1.0250 -0.6294 -0.3964
10783TIP3    H153840   2.463   3.265  41.678  1.3437  2.0212 -1.3784
10783TIP3    H253841   2.364   3.294  41.567 -0.8695 -1.0379 -0.3200
10784TIP3   OH253842   1.804   0.956   0.995  0.4646  0.1512 -0.4621
10784TIP3    H153843   1.763   1.012   0.930 -1.6073  0.4791  1.0258
10784TIP3    H253844   1.839   0.882   0.945 -2.0122 -0.1863 -1.8842
10785TIP3   OH253845   3.356   1.243   8.103  0.6796 -0.6271  0.0440
10785TIP3    H153846   3.315   1.170   8.057 -0.8427  0.6204 -0.6867
10785TIP3    H253847   3.339   1.319   8.047  0.8852  0.5489  1.5105
10786TIP3   OH253848   2.742   0.430  44.879  0.5151  0.3673  0.0130
10786TIP3    H153849   2.714   0.482  44.803 -2.2418 -1.2990 -0.2775
10786TIP3    H253850   2.662   0.419  44.930  0.4381 -4.7001 -0.7057
10787TIP3   OH253851   3.735   0.941   4.326  0.0781 -0.1086 -0.5243
10787TIP3    H153852   3.742   1.027   4.368 -1.2204 -1.1278  1.9506
10787TIP3    H253853   3.694   0.960   4.242 -1.8312  1.5802  0.6786
10788TIP3   OH253854   2.469   2.449   2.699  0.0045  0.7044 -0.1444
10788TIP3    H153855   2.452   2.395   2.776 -1.4749  1.0979 -0.1603
10788TIP3    H253856   2.390   2.440   2.645  0.3054  1.7815 -0.8008
10789TIP3   OH253857   2.726   0.238  37.186 -0.5376 -0.0176  0.4722
10789TIP3    H153858   2.799   0.184  37.215 -0.3761 -0.3355 -0.4918
10789TIP3    H253859   2.657   0.176  37.165 -1.0315  0.2695  1.1834
10790TIP3   OH253860   3.690   0.318   9.134 -0.3783  0.1751  0.0814
10790TIP3    H153861   3.665   0.399   9.178 -0.0362  0.3600 -0.0660
10790TIP3    H253862   3.611   0.291   9.087 -1.0756 -0.5537  1.5990
10791TIP3   OH253863   1.784   3.142  38.779 -0.3496 -0.3401  0.1839
10791TIP3    H153864   1.859   3.098  38.737  0.6845  1.8490 -0.3953
10791TIP3    H253865   1.728   3.168  38.706  0.5161  1.8045  0.2036
10792TIP3   OH253866   3.723   2.577  39.261  0.0466 -0.2236  0.4960
10792TIP3    H153867   3.729   2.532  39.345  4.2642  1.5339  1.3638
10792TIP3    H253868   3.679   2.659  39.281  1.9935  0.6619  1.3039
10793TIP3   OH253869   1.775   0.674  25.969 -0.0616 -0.1149 -0.2818
10793TIP3    H153870   1.753   0.728  25.893  1.9124 -0.1466 -0.9348
10793TIP3    H253871   1.857   0.711  26.002 -1.3197  0.4921  2.4545
10794TIP3   OH253872   2.138   2.047  31.145 -0.1494 -0.6583  0.5382
10794TIP3    H153873   2.071   1.980  31.126 -1.0479  0.2603  0.3890
10794TIP3    H253874   2.214   1.996  31.174 -1.2837 -1.6962  1.8856
10795TIP3   OH253875   1.343   2.432  11.987 -0.1278  0.4915 -0.1695
10795TIP3    H153876   1.320   2.369  12.055 -1.8335  1.5079  0.2628
10795TIP3    H253877   1.349   2.381  11.907 -2.5621 -0.1337 -0.0305
10796TIP3   OH253878   3.453   3.923  42.525 -0.4603  0.3027 -0.2694
10796TIP3    H153879   3.381   3.907  42.464 -1.9867 -1.0997  1.7542
10796TIP3    H253880   3.432   4.008  42.564 -0.4944  0.3522 -0.3954
10797TIP3   OH253881   0.161   0.795  12.769  0.1449 -0.2776  0.5140
10797TIP3    H153882   0.232   0.742  12.806  1.0041  0.7042  0.3098
10797TIP3    H253883   0.088   0.782  12.830  0.2109 -1.9536  0.2879
10798TIP3   OH253884   3.249   1.833  32.757  0.4097  0.8674 -0.3294
10798TIP3    H153885   3.200   1.841  32.675  0.2754  0.9928 -0.2390
10798TIP3    H253886   3.212   1.902  32.813 -0.4337 -0.0825  0.3116
10799TIP3   OH253887   1.315   4.005   3.976 -0.2448 -0.4074  0.3248
10799TIP3    H153888   1.345   4.054   3.899  0.9337  0.3223  1.2099
10799TIP3    H253889   1.240   3.954   3.944  0.3660 -0.3286 -1.3651
10800TIP3   OH253890   1.805   0.971  32.817 -0.0082 -0.1124  0.4475
10800TIP3    H153891   1.797   1.063  32.791  1.0344 -0.6079 -1.8658
10800TIP3    H253892   1.899   0.960  32.835  0.2136 -1.1130 -1.1138
10801TIP3   OH253893   1.492   2.010  31.452  0.1492 -0.4503  0.9756
10801TIP3    H153894   1.443   1.928  31.447 -0.0037 -0.2946 -0.5861
10801TIP3    H253895   1.558   2.002  31.383 -1.2947  1.6180 -0.7623
10802TIP3   OH253896   2.504   1.395   8.716 -0.3748  0.4622  0.0882
10802TIP3    H153897   2.493   1.328   8.783 -1.3527  1.0000  0.4784
10802TIP3    H253898   2.503   1.478   8.765  0.0403  0.8079 -0.4741
10803TIP3   OH253899   0.042   2.913   8.535 -0.3706 -0.8467 -0.0182
10803TIP3    H153900   0.101   2.948   8.601  0.6537 -0.1530 -1.2484
10803TIP3    H253901  -0.043   2.907   8.578  0.0700  0.4439  1.0743
10804TIP3   OH253902   1.464   2.697  40.150 -0.1974 -0.1556  0.0892
10804TIP3    H153903   1.528   2.626  40.147  2.6496  2.2436 -0.4846
10804TIP3    H253904   1.406   2.680  40.076  0.1973 -2.0119  0.1609
10805TIP3   OH253905   0.980   3.715  37.440 -0.3354 -0.0507  0.1400
10805TIP3    H153906   0.971   3.809  37.459  1.9085  0.6046 -1.5911
10805TIP3    H253907   1.075   3.700  37.437 -0.6434 -2.1775 -0.5359
10806TIP3   OH253908   0.088   3.761   0.861  0.0822  0.1444 -0.6463
10806TIP3    H153909   0.168   3.812   0.867  0.1418  0.0647 -0.7793
10806TIP3    H253910   0.027   3.817   0.813 -0.1832  0.5118  0.0953
10807TIP3   OH253911   0.708   3.969  42.357 -0.1655 -0.0245 -0.0143
10807TIP3    H153912   0.743   3.936  42.439 -1.9277 -0.1079  0.7423
10807TIP3    H253913   0.632   4.022  42.382  0.0459  1.0611 -1.5011
10808TIP3   OH253914   2.429   0.321  13.807  0.1264 -0.2961 -0.2178
10808TIP3    H153915   2.350   0.268  13.822  0.6195 -2.4861 -4.0014
10808TIP3    H253916   2.404   0.382  13.738  0.9974  1.0796  0.6319
10809TIP3   OH253917   0.342   3.985  32.790  0.0040  0.4601  0.0510
10809TIP3    H153918   0.388   3.922  32.734  0.9200  1.7001 -0.6198
10809TIP3    H253919   0.299   4.045  32.730  0.2489  1.2762  0.6738
10810TIP3   OH253920   0.768   2.100   6.746  0.7240  0.7630 -0.5880
10810TIP3    H153921   0.748   2.065   6.659  0.6587  0.1832 -0.3479
10810TIP3    H253922   0.838   2.164   6.730  1.5425 -0.1773 -0.9367
10811TIP3   OH253923   1.342   1.309  39.719 -0.1287 -0.3182  0.2172
10811TIP3    H153924   1.357   1.398  39.688 -0.4630  0.6731  2.7015
10811TIP3    H253925   1.255   1.312  39.759 -0.2696 -1.8607  0.0851
10812TIP3   OH253926   2.046   1.513  10.078  0.2141 -0.9395  0.3754
10812TIP3    H153927   2.088   1.453  10.139 -0.7022 -1.3207  0.6512
10812TIP3    H253928   2.059   1.474   9.992 -1.9710 -2.5624  0.7101
10813TIP3   OH253929   0.523   0.775  32.664 -0.7652  0.0016  0.5201
10813TIP3    H153930   0.524   0.748  32.572  0.1326 -2.1537  1.0906
10813TIP3    H253931   0.441   0.823  32.674 -0.7118  0.6246 -1.4716
10814TIP3   OH253932   3.548   0.386  13.211  0.4012  0.1329 -0.2679
10814TIP3    H153933   3.460   0.347  13.213  0.4236  0.1018  0.2678
10814TIP3    H253934   3.545   0.453  13.280  0.8088  0.1036 -0.2226
10815TIP3   OH253935   1.954   2.809  47.582 -0.6659 -0.8545  0.1084
10815TIP3    H153936   1.951   2.720  47.549  0.9846 -1.3463  1.1640
10815TIP3    H253937   1.996   2.802  47.668 -0.6780  0.9065  0.3059
10816TIP3   OH253938   1.629   0.834  15.988  0.1300 -0.2005 -0.1073
10816TIP3    H153939   1.713   0.798  15.961  0.4054  0.2268  0.1707
10816TIP3    H253940   1.630   0.830  16.083 -0.6201 -1.1996 -0.1214
10817TIP3   OH253941   2.721   1.239   6.142 -0.1158 -0.3251 -0.5100
10817TIP3    H153942   2.738   1.227   6.049 -0.9961  1.4377 -0.9388
10817TIP3    H253943   2.641   1.291   6.146  0.6476  0.8296  1.1975
10818TIP3   OH253944   3.529   3.872  25.545 -0.5257 -0.4863 -0.0694
10818TIP3    H153945   3.519   3.825  25.462  1.0558 -1.7332  0.3982
10818TIP3    H253946   3.529   3.964  25.520 -0.1242 -0.8375 -1.4735
10819TIP3   OH253947   1.229   1.306  13.268  0.3091  0.1523 -0.2332
10819TIP3    H153948   1.202   1.390  13.305 -0.5139 -0.3307  0.2748
10819TIP3    H253949   1.149   1.254  13.264  1.1220 -1.3192  1.3278
10820TIP3   OH253950   2.190   4.081   3.522 -0.0271 -0.0078 -0.1509
10820TIP3    H153951   2.271   4.129   3.540  0.1186 -0.1168 -0.5103
10820TIP3    H253952   2.129   4.148   3.491  0.2709 -0.1014 -0.9480
10821TIP3   OH253953   1.410   3.977  36.706 -0.1143 -0.5410  0.0983
10821TIP3    H153954   1.389   3.998  36.615  0.3640  0.9663  0.3138
10821TIP3    H253955   1.378   3.887  36.718 -0.9203 -0.4651 -1.3056
10822TIP3   OH253956   3.617   2.069   1.970  0.0781  0.1782 -0.3748
10822TIP3    H153957   3.659   2.086   2.055 -0.1576  0.8637 -0.3932
10822TIP3    H253958   3.683   2.020   1.920  0.3989  0.1937  0.0261
10823TIP3   OH253959   0.908   1.326  31.519 -0.2684 -0.3015  0.1970
10823TIP3    H153960   0.917   1.385  31.444  0.7680  0.7643  1.1152
10823TIP3    H253961   0.920   1.238  31.482 -3.0927 -0.1138 -1.4087
10824TIP3   OH253962   1.052   0.963   9.794 -0.2837  0.0143 -0.1133
10824TIP3    H153963   1.028   0.907   9.868 -2.1748  2.1774  1.0194
10824TIP3    H253964   1.122   1.019   9.827 -0.4547  0.3217 -0.2629
10825TIP3   OH253965   2.465   3.930  46.133 -0.4410  0.0403 -0.8751
10825TIP3    H153966   2.461   3.937  46.229  0.7192  0.0248 -0.8053
10825TIP3    H253967   2.559   3.921  46.114 -0.5801  0.9294 -2.0802
10826TIP3   OH253968   0.141   2.849  14.313  0.0866 -0.5736  0.2074
10826TIP3    H153969   0.126   2.871  14.405 -1.7538  0.2684 -0.2394
10826TIP3    H253970   0.104   2.761  14.303 -1.5278  0.1099 -0.1198
10827TIP3   OH253971   3.984   2.069  21.451  0.3191  0.2394 -0.3131
10827TIP3    H153972   4.031   1.986  21.446  0.0159  0.0662 -0.3673
10827TIP3    H253973   4.009   2.106  21.535 -1.2456 -0.9745  0.7723
10828TIP3   OH253974   3.161   1.450  13.866  0.2960  0.2333 -0.0589
10828TIP3    H153975   3.126   1.436  13.778 -2.2587  3.8890  0.1577
10828TIP3    H253976   3.115   1.386  13.921  0.5084 -0.7890 -1.0258
10829TIP3   OH253977   3.825   0.145  26.827 -0.1444  0.5897  0.8598
10829TIP3    H153978   3.781   0.063  26.850 -1.9656  0.5819 -2.1047
10829TIP3    H253979   3.761   0.192  26.774  2.0934  2.4117 -0.4052
10830TIP3   OH253980   1.798   2.748  39.969 -0.0881 -0.1596 -0.2305
10830TIP3    H153981   1.883   2.790  39.962  0.1245 -0.6619 -0.7736
10830TIP3    H253982   1.779   2.745  40.063  0.5290 -0.1222 -0.1055
10831TIP3   OH253983   1.778   3.345  31.873 -0.0113 -0.1428 -0.1667
10831TIP3    H153984   1.734   3.262  31.891  0.7079 -0.2370  1.3770
10831TIP3    H253985   1.862   3.320  31.834  0.6606 -0.2500  1.2568
10832TIP3   OH253986   0.084   0.200   9.681  0.0681  0.1395 -0.1089
10832TIP3    H153987   0.134   0.257   9.740  1.7515  0.0578 -1.3604
10832TIP3    H253988   0.057   0.127   9.736  0.7978  0.5109  0.7797
10833TIP3   OH253989   1.184   0.468   9.248 -0.5693  0.7108  0.1466
10833TIP3    H153990   1.213   0.543   9.196 -1.4826  1.6620  0.9585
10833TIP3    H253991   1.249   0.459   9.317 -0.1100  0.3381 -0.3320
10834TIP3   OH253992   3.493   3.165   8.734 -0.0326 -0.2246 -1.2774
10834TIP3    H153993   3.476   3.207   8.818  0.9111 -0.2506 -1.0675
10834TIP3    H253994   3.414   3.113   8.717  0.1108 -0.8809 -0.0057
10835TIP3   OH253995   3.496   2.461  35.619 -0.3196  0.2489 -0.2544
10835TIP3    H153996   3.487   2.440  35.712  1.3174  0.2216 -0.0644
10835TIP3    H253997   3.492   2.556  35.615 -2.3152  0.1967 -0.4312
10836TIP3   OH253998   3.033   3.937  46.572  0.2461  0.6063  0.3101
10836TIP3    H153999   3.019   4.029  46.550 -2.1583  0.6209  1.5209
10836TIP3    H254000   3.085   3.939  46.652  1.8090  0.7941 -0.6633
10837TIP3   OH254001   1.917   0.433  12.146 -0.6207  0.4294 -0.7044
10837TIP3    H154002   1.893   0.340  12.155  2.5620 -0.4057  1.1243
10837TIP3    H254003   1.869   0.477  12.217 -0.8550 -0.1573 -0.4901
10838TIP3   OH254004   0.307   1.591  42.185  0.0540  0.3871  0.1148
10838TIP3    H154005   0.384   1.603  42.240  2.8754 -2.7866 -2.7286
10838TIP3    H254006   0.253   1.528  42.233  0.1518  1.1231  1.2321
10839TIP3   OH254007   2.869   3.905  33.181  0.1116 -0.7472  0.3325
10839TIP3    H154008   2.859   3.998  33.160  2.1288 -0.7866 -1.0896
10839TIP3    H254009   2.834   3.859  33.105  1.2594 -1.0701 -0.0185
10840TIP3   OH254010   2.172   0.388  42.141  0.0927  0.2783  0.3467
10840TIP3    H154011   2.120   0.316  42.178 -0.6800  1.3633  1.4568
10840TIP3    H254012   2.185   0.364  42.050 -0.6497 -0.9892  0.5487
10841TIP3   OH254013   2.852   2.675  35.851 -0.0649 -0.3173  0.2632
10841TIP3    H154014   2.878   2.763  35.821 -2.5109  0.6184  0.6540
10841TIP3    H254015   2.862   2.620  35.774  0.3006  0.5750 -0.3554
10842TIP3   OH254016   0.206   2.580  42.891 -0.2597 -0.3665 -0.4445
10842TIP3    H154017   0.287   2.631  42.887 -0.0747 -0.1995  2.7427
10842TIP3    H254018   0.233   2.490  42.875  0.2964 -0.1276 -0.8644
10843TIP3   OH254019   3.718   1.773  35.630  0.1911  0.0141  0.4021
10843TIP3    H154020   3.644   1.834  35.624 -0.2389 -0.3682  1.4714
10843TIP3    H254021   3.794   1.829  35.646  0.1256  0.4012 -0.5728
10844TIP3   OH254022   4.098   1.202  45.200 -0.2491  0.3517 -0.2381
10844TIP3    H154023   4.164   1.149  45.245  1.1229  0.8905 -1.5307
10844TIP3    H254024   4.130   1.209  45.110 -1.8487  1.0280 -0.7821
10845TIP3   OH254025   2.869   0.920  33.857 -0.2406  0.2252 -0.1996
10845TIP3    H154026   2.921   0.985  33.905 -1.4356  0.2164  1.1760
10845TIP3    H254027   2.924   0.841  33.856  0.9240  1.0030 -1.2745
10846TIP3   OH254028   1.108   1.970  40.566 -0.1926  0.1349 -0.1937
10846TIP3    H154029   1.064   1.906  40.621  1.6948 -4.1659 -3.1548
10846TIP3    H254030   1.050   1.983  40.491  0.6492 -0.3674 -0.9530
10847TIP3   OH254031   1.641   2.908  11.115  0.2030 -0.4539  0.4695
10847TIP3    H154032   1.609   2.990  11.079  0.4896 -0.8230 -0.6680
10847TIP3    H254033   1.582   2.841  11.078  0.3613 -0.8203  0.8704
10848TIP3   OH254034   1.108   1.851  33.740  0.2425  0.8658  0.1013
10848TIP3    H154035   1.144   1.835  33.653 -0.8310 -0.2016 -0.1710
10848TIP3    H254036   1.181   1.888  33.790  1.2844  0.1556 -0.8513
10849TIP3   OH254037   3.288   1.766  46.234  0.0122 -0.1404 -0.0383
10849TIP3    H154038   3.318   1.823  46.164  1.0093 -0.5561  0.0390
10849TIP3    H254039   3.198   1.794  46.251  0.9090  2.3719  0.9809
10850TIP3   OH254040   0.332   3.015  34.044 -0.9987  0.5206  0.5596
10850TIP3    H154041   0.306   2.945  33.984 -1.0057  0.2684  0.8606
10850TIP3    H254042   0.305   3.095  33.999  3.4849  0.8130 -2.2911
10851TIP3   OH254043   0.395   0.519  38.647  0.4054  0.3158 -0.2511
10851TIP3    H154044   0.428   0.448  38.591 -1.1547 -0.7384  0.1147
10851TIP3    H254045   0.341   0.475  38.713 -1.2050  1.8912 -0.4415
10852TIP3   OH254046   1.788   3.865  39.293 -0.3091  0.0568 -0.3246
10852TIP3    H154047   1.828   3.924  39.356 -0.2158  0.0217 -0.3494
10852TIP3    H254048   1.762   3.921  39.220  0.2580 -0.0008 -0.5810
10853TIP3   OH254049   1.908   0.182  36.732  0.4823 -0.0876  0.2092
10853TIP3    H154050   1.911   0.086  36.737 -0.6165 -0.2911 -1.8835
10853TIP3    H254051   1.998   0.209  36.751  0.7738 -1.4992  1.0380
10854TIP3   OH254052   0.765   1.960  42.421  0.3111  0.0403  0.1582
10854TIP3    H154053   0.694   2.009  42.379  0.7112 -0.0295 -0.6165
10854TIP3    H254054   0.823   2.028  42.456 -0.2934  0.0966  1.0815
10855TIP3   OH254055   0.736   3.924   9.788  0.2354 -0.1865 -0.7541
10855TIP3    H154056   0.678   3.986   9.744 -0.6591 -0.3868  0.0944
10855TIP3    H254057   0.817   3.927   9.738  0.7025  2.6597 -0.0055
10856TIP3   OH254058   3.222   3.044   8.219 -0.1328 -0.1112 -0.9403
10856TIP3    H154059   3.228   3.013   8.128 -4.6041 -1.8487 -0.9230
10856TIP3    H254060   3.207   2.964   8.270 -0.8498  1.0936  0.8295
10857TIP3   OH254061   3.936   0.341   6.647 -0.5713  0.0048  0.4021
10857TIP3    H154062   3.926   0.374   6.736 -0.3634 -0.8146  0.7318
10857TIP3    H254063   3.963   0.418   6.596 -1.2163  0.5966  0.9323
10858TIP3   OH254064   3.338   3.583  40.305 -0.1856  0.2584  0.3699
10858TIP3    H154065   3.261   3.600  40.360 -1.1462 -0.0323 -0.8472
10858TIP3    H254066   3.404   3.644  40.337 -1.3403  1.4248  0.5895
10859TIP3   OH254067   3.015   0.916  31.172  0.8736 -0.2892  0.1729
10859TIP3    H154068   2.962   0.880  31.244 -0.5179 -1.5952 -1.4204
10859TIP3    H254069   3.105   0.914  31.205  0.0509  1.8415  2.9226
10860TIP3   OH254070   2.822   0.920   7.955  0.0220  0.1172 -0.1353
10860TIP3    H154071   2.771   0.991   7.917  0.6288  0.2180 -0.7979
10860TIP3    H254072   2.810   0.928   8.049 -0.5360  0.6210 -0.2485
10861TIP3   OH254073   2.853   2.683  37.123 -0.4240  0.4892 -0.2013
10861TIP3    H154074   2.910   2.610  37.146 -1.7977 -0.7567 -0.5741
10861TIP3    H254075   2.768   2.642  37.108 -1.4661  2.3055  0.5154
10862TIP3   OH254076   0.704   3.356   0.732 -0.1705  0.1977 -0.0769
10862TIP3    H154077   0.683   3.331   0.822 -0.6922  2.4694  0.4892
10862TIP3    H254078   0.798   3.340   0.724 -0.3331 -1.1301  0.4698
10863TIP3   OH254079   2.458   3.940  44.320  0.3423 -0.1276 -0.2094
10863TIP3    H154080   2.420   4.022  44.350  0.7875 -0.3084  0.9086
10863TIP3    H254081   2.507   3.963  44.241  1.9225  1.0515  1.0414
10864TIP3   OH254082   2.327   1.182   1.559 -0.2784 -0.1367 -0.1137
10864TIP3    H154083   2.280   1.103   1.531  1.1541 -1.1936  0.3840
10864TIP3    H254084   2.365   1.159   1.644  1.2850  0.6118 -0.5767
10865TIP3   OH254085   2.859   1.148  10.435 -0.1446 -0.0686  0.2891
10865TIP3    H154086   2.916   1.153  10.358 -0.4498 -0.1799  0.0528
10865TIP3    H254087   2.871   1.059  10.469  1.0223  0.4070  1.1786
10866TIP3   OH254088   1.479   3.250   1.511 -0.5930 -0.1611 -0.1191
10866TIP3    H154089   1.516   3.213   1.431 -0.1597  1.7783 -0.8559
10866TIP3    H254090   1.544   3.230   1.579 -0.7663 -1.4480 -0.3012
10867TIP3   OH254091   0.943   2.499  15.115 -0.5373  0.0045 -0.3185
10867TIP3    H154092   0.932   2.443  15.192 -1.4495  1.2447  0.5030
10867TIP3    H254093   0.880   2.466  15.052 -0.2577 -0.6012 -0.2890
10868TIP3   OH254094   0.961   0.959  31.728  0.5965  0.0801  0.3155
10868TIP3    H154095   0.970   1.014  31.806 -0.4925 -0.5355  0.8961
10868TIP3    H254096   0.990   0.872  31.756  2.1831  0.2846 -0.5632
10869TIP3   OH254097   1.219   0.956   2.190 -0.1204 -0.0510 -0.0330
10869TIP3    H154098   1.228   0.886   2.124 -3.9154 -2.5670  1.7635
10869TIP3    H254099   1.227   0.911   2.274 -1.2176  1.9704  1.2223
10870TIP3   OH254100   0.330   2.101  19.449 -0.6890  0.4007 -0.0095
10870TIP3    H154101   0.403   2.158  19.424 -0.1458 -0.8413 -1.4508
10870TIP3    H254102   0.258   2.130  19.393 -1.1317  1.2163  0.9657
10871TIP3   OH254103   0.790   1.447   3.339  0.3585  0.5556  0.0532
10871TIP3    H154104   0.740   1.498   3.275  1.5232  1.6130 -0.0544
10871TIP3    H254105   0.875   1.490   3.343  0.9256 -0.5805  0.9924
10872TIP3   OH254106   0.540   1.037  15.358  0.0403  0.6605 -0.5424
10872TIP3    H154107   0.480   1.001  15.293  0.4607  0.5000 -0.8495
10872TIP3    H254108   0.515   0.995  15.440  0.9497 -0.8869 -1.0079
10873TIP3   OH254109   1.219   2.901  47.524 -0.3682 -0.4514 -0.3466
10873TIP3    H154110   1.135   2.937  47.551 -0.2064 -1.1404  1.1267
10873TIP3    H254111   1.277   2.915  47.598  1.0147  0.5402 -1.5442
10874TIP3   OH254112   2.981   0.087  34.968 -0.1735 -0.9704 -0.0658
10874TIP3    H154113   2.906   0.143  34.989  1.4288  1.8507 -1.2042
10874TIP3    H254114   2.953   0.037  34.892 -0.9927 -0.0909 -0.3690
10875TIP3   OH254115   3.036   0.988  32.784 -0.2852  0.1038  0.5041
10875TIP3    H154116   2.999   1.023  32.703  2.0146  1.1214 -0.2130
10875TIP3    H254117   3.109   0.932  32.754  1.1196  1.1353  1.8348
10876TIP3   OH254118   2.757   1.844   4.876 -0.0984 -0.3408 -0.4360
10876TIP3    H154119   2.671   1.826   4.839  0.1594  1.1044 -1.8768
10876TIP3    H254120   2.739   1.883   4.961 -0.7892 -1.6569  0.0448
10877TIP3   OH254121   1.244   1.525   7.930 -0.6642 -0.4054 -0.5353
10877TIP3    H154122   1.194   1.601   7.961 -2.7110 -1.2863 -1.4542
10877TIP3    H254123   1.295   1.558   7.856 -1.0014  0.2352 -0.4899
10878TIP3   OH254124   2.065   1.402  32.429 -0.2345  0.1139 -0.0361
10878TIP3    H154125   2.000   1.332  32.436  0.6622 -0.6391  0.9768
10878TIP3    H254126   2.022   1.479  32.467 -0.9661 -0.0525 -0.5026
10879TIP3   OH254127   2.307   0.070  11.329  0.0754  0.0620 -0.0729
10879TIP3    H154128   2.342   0.152  11.364  1.1844  0.8940 -2.8415
10879TIP3    H254129   2.219   0.093  11.298 -0.1664 -0.1856  0.4166
10880TIP3   OH254130   3.509   3.766  39.402  0.4375 -0.9252 -0.1462
10880TIP3    H154131   3.598   3.755  39.368  0.9101 -0.6792  0.9653
10880TIP3    H254132   3.501   3.699  39.470 -0.1913 -0.8524 -0.1421
10881TIP3   OH254133   1.212   0.689  39.728  0.2773 -0.1805  0.0988
10881TIP3    H154134   1.155   0.744  39.781 -0.2409  0.8365 -1.4459
10881TIP3    H254135   1.213   0.604  39.773 -1.2989  0.1988  0.9179
10882TIP3   OH254136   3.228   4.058  43.312  0.6690 -0.2939  0.6814
10882TIP3    H154137   3.194   3.972  43.291 -1.1906  0.1674  1.6172
10882TIP3    H254138   3.162   4.120  43.282  2.4460  0.9320 -0.9578
10883TIP3   OH254139   3.244   0.821  11.660  0.2647 -0.1660 -0.3112
10883TIP3    H154140   3.254   0.835  11.754 -1.3467 -1.6228  0.1290
10883TIP3    H254141   3.315   0.872  11.621 -0.5917  2.7016  1.5084
10884TIP3   OH254142   1.837   2.960   0.126  0.2419 -0.3096 -0.1278
10884TIP3    H154143   1.772   2.906   0.080 -0.2055 -0.0283  0.1659
10884TIP3    H254144   1.920   2.917   0.108  0.3681  0.9096 -2.9369
10885TIP3   OH254145   1.470   2.298  19.164  0.2064  0.2729  1.0066
10885TIP3    H154146   1.425   2.369  19.210 -1.3368 -0.0857  0.1040
10885TIP3    H254147   1.546   2.339  19.124 -1.1804  1.6605 -0.3125
10886TIP3   OH254148   0.873   2.065  44.740  0.0066 -0.3615  0.2097
10886TIP3    H154149   0.802   2.057  44.804 -0.5832 -0.1281 -0.4065
10886TIP3    H254150   0.837   2.121  44.671  0.9430  0.1312  0.1001
10887TIP3   OH254151   2.854   2.309  12.721  0.2660  0.0706  0.2335
10887TIP3    H154152   2.761   2.293  12.740  0.2282 -0.6275 -0.4414
10887TIP3    H254153   2.901   2.267  12.792  0.0750 -0.2078  0.1970
10888TIP3   OH254154   0.279   3.274  15.078  0.3896  0.1512  0.0012
10888TIP3    H154155   0.261   3.329  15.155 -0.1805  1.1695 -0.8410
10888TIP3    H254156   0.300   3.336  15.008  0.5375 -0.7451 -0.7706
10889TIP3   OH254157   0.526   2.781   9.967  0.4036 -0.1688  0.0981
10889TIP3    H154158   0.615   2.762   9.998  0.0420 -0.5271  0.9525
10889TIP3    H254159   0.522   2.876   9.963  0.6689 -0.1349  0.5643
10890TIP3   OH254160   3.477   3.795   4.529  0.4117  0.3241  0.2961
10890TIP3    H154161   3.429   3.841   4.598  1.0201 -1.9217  2.3953
10890TIP3    H254162   3.419   3.723   4.503  0.4885  0.7284 -1.0752
10891TIP3   OH254163   0.487   1.047  13.904 -0.0835  0.6284 -0.1152
10891TIP3    H154164   0.509   1.025  13.994  2.0278 -0.1395 -0.7453
10891TIP3    H254165   0.565   1.090  13.869 -1.6781  3.0863 -0.9544
10892TIP3   OH254166   1.392   4.059  11.668 -0.3237  0.1669  0.5987
10892TIP3    H154167   1.347   4.010  11.599  1.7527  1.0477 -1.5100
10892TIP3    H254168   1.454   3.996  11.706  0.8382  0.5329 -0.6394
10893TIP3   OH254169   4.075   0.302   9.147  0.3617  0.0922  0.0752
10893TIP3    H154170   4.026   0.303   9.229  0.2005 -0.4466 -0.0130
10893TIP3    H254171   4.073   0.393   9.117 -1.1078 -0.0139 -0.2274
10894TIP3   OH254172   1.895   2.471   4.706  0.5962 -0.7662 -0.1598
10894TIP3    H154173   1.867   2.451   4.795 -0.1898 -0.9711 -0.4485
10894TIP3    H254174   1.973   2.526   4.717  0.0307 -0.1191  0.6531
10895TIP3   OH254175   2.675   3.903  11.021 -0.4608  0.9535 -0.3153
10895TIP3    H154176   2.718   3.891  11.106 -0.4300  0.0203 -0.4543
10895TIP3    H254177   2.622   3.982  11.032 -1.6034  0.0316  1.0464
10896TIP3   OH254178   3.532   1.494  13.999 -0.4011 -0.4208 -0.5468
10896TIP3    H154179   3.539   1.416  14.054  0.3721  1.2658  1.8975
10896TIP3    H254180   3.601   1.552  14.030 -3.1595  2.7322  0.3786
10897TIP3   OH254181   2.719   3.612   8.700  0.3135  0.0279  0.0376
10897TIP3    H154182   2.651   3.643   8.640  1.9686  1.0982 -1.3923
10897TIP3    H254183   2.708   3.667   8.778  0.5477  1.3582 -0.8252
10898TIP3   OH254184   3.755   0.229  14.806  0.1236 -0.2213 -0.1661
10898TIP3    H154185   3.693   0.234  14.878  2.7723  0.2208  2.2576
10898TIP3    H254186   3.807   0.151  14.823  0.4551 -0.4508 -1.9801
10899TIP3   OH254187   2.130   2.232  16.583  0.1486  0.5077 -0.3330
10899TIP3    H154188   2.211   2.248  16.632 -0.6819 -1.2801  1.7779
10899TIP3    H254189   2.063   2.279  16.632 -0.3875  0.5045 -1.0456
10900TIP3   OH254190   0.767   2.931  32.179 -0.5345  0.1583  0.6372
10900TIP3    H154191   0.695   2.877  32.210  0.7996 -1.2382  1.4734
10900TIP3    H254192   0.842   2.871  32.175  0.1075  0.9900 -2.3279
10901TIP3   OH254193   1.098   0.894  44.088  0.2084 -0.3342 -0.1436
10901TIP3    H154194   1.081   0.925  43.999 -0.9638 -1.3586 -0.2981
10901TIP3    H254195   1.150   0.815  44.077 -0.9386 -1.1307  0.0065
10902TIP3   OH254196   3.763   1.609   5.013 -0.3519  0.2511 -0.1079
10902TIP3    H154197   3.797   1.523   4.987 -1.9449 -0.1370 -1.1028
10902TIP3    H254198   3.840   1.660   5.036  0.7487 -1.0133 -0.8391
10903TIP3   OH254199   1.546   3.616   4.015 -0.6356 -0.1714 -0.3252
10903TIP3    H154200   1.604   3.605   4.090 -1.6457  1.4393  0.7505
10903TIP3    H254201   1.493   3.693   4.037 -0.4621  0.8085 -3.0115
10904TIP3   OH254202   3.865   3.060   5.135 -0.2445 -0.3216  0.7104
10904TIP3    H154203   3.793   3.073   5.073 -0.4290 -0.1057  0.9675
10904TIP3    H254204   3.845   2.975   5.176 -0.2093 -0.3882  0.5895
10905TIP3   OH254205   3.020   2.720  46.389  0.0954  0.7039  0.7113
10905TIP3    H154206   3.052   2.744  46.476 -2.5851  0.7678  1.8075
10905TIP3    H254207   2.927   2.745  46.391 -0.3837 -0.5924 -1.6828
10906TIP3   OH254208   0.115   0.209  39.673 -0.1957  0.2227  0.0452
10906TIP3    H154209   0.060   0.161  39.611 -0.7147  0.7903  0.0562
10906TIP3    H254210   0.067   0.290  39.690 -0.0048  0.1361  1.0925
10907TIP3   OH254211   2.814   3.382  25.425 -0.4457  0.1716  0.4422
10907TIP3    H154212   2.868   3.355  25.499 -0.8347 -1.6933  0.0942
10907TIP3    H254213   2.757   3.307  25.408 -1.1857  1.0153 -0.9982
10908TIP3   OH254214   2.134   0.426  39.628 -0.7814  0.3857  0.6343
10908TIP3    H154215   2.135   0.453  39.720 -2.6879  2.6605  0.0835
10908TIP3    H254216   2.045   0.446  39.598 -0.1305 -0.0328 -1.7910
10909TIP3   OH254217   3.922   2.138  32.658 -0.3456 -0.2637  0.3707
10909TIP3    H154218   3.926   2.044  32.637 -1.9754 -0.3547  0.3511
10909TIP3    H254219   3.831   2.154  32.679 -0.0459  1.2930  0.6134
10910TIP3   OH254220   3.644   4.040  10.239  0.2829  0.1499  0.0061
10910TIP3    H154221   3.711   4.033  10.171 -1.3259 -2.2088 -1.4815
10910TIP3    H254222   3.631   3.951  10.270 -2.6999  0.3141 -0.4095
10911TIP3   OH254223   0.838   0.415   9.261  0.7615  0.2328 -0.5143
10911TIP3    H154224   0.787   0.377   9.189  0.2074  0.2123 -0.1212
10911TIP3    H254225   0.924   0.430   9.224  0.7162 -0.5226 -0.9609
10912TIP3   OH254226   1.242   2.502  35.149  0.9003  0.0973  0.2170
10912TIP3    H154227   1.183   2.452  35.093  0.9336 -0.4912  0.7011
10912TIP3    H254228   1.185   2.565  35.193  0.4235 -1.1100  1.4251
10913TIP3   OH254229   0.538   1.770   1.914 -0.2768 -0.1247  0.0363
10913TIP3    H154230   0.549   1.783   1.820 -0.3792  0.7757  0.1405
10913TIP3    H254231   0.460   1.821   1.937 -0.3167 -0.4232  0.5875
10914TIP3   OH254232   1.913   2.682   1.049  0.3541  0.5373 -0.5777
10914TIP3    H154233   1.858   2.716   0.979  1.1268  1.4344 -0.7825
10914TIP3    H254234   1.984   2.637   1.003 -0.0434 -0.3578 -0.3254
10915TIP3   OH254235   3.448   2.979  15.172 -0.2171 -0.5516  0.3697
10915TIP3    H154236   3.470   2.888  15.154  2.9112  0.0031  0.9234
10915TIP3    H254237   3.422   3.014  15.087  2.2646 -1.0697 -0.6988
10916TIP3   OH254238   1.366   1.129  46.567 -0.1167  0.2068  0.3172
10916TIP3    H154239   1.389   1.220  46.586  1.6569 -0.3375  0.9193
10916TIP3    H254240   1.371   1.123  46.471  1.4887  0.3575  0.3551
10917TIP3   OH254241   3.194   1.871   7.599 -0.0999 -0.2540  0.3119
10917TIP3    H154242   3.278   1.843   7.562 -1.2153 -0.6356 -2.1004
10917TIP3    H254243   3.203   1.853   7.693  2.8925  0.7693  0.3370
10918TIP3   OH254244   0.051   1.817  34.623 -0.2613  0.2919 -0.1568
10918TIP3    H154245  -0.017   1.884  34.630 -0.3043  0.4814 -1.8740
10918TIP3    H254246   0.074   1.796  34.713 -2.2041  0.6160  0.4598
10919TIP3   OH254247   0.134   1.506  12.069 -0.0787  0.1150  0.1380
10919TIP3    H154248   0.076   1.481  12.141 -1.2911  3.3346  0.4604
10919TIP3    H254249   0.136   1.602  12.073  2.2551  0.2665 -2.2723
10920TIP3   OH254250   2.006   0.767  43.764 -0.1189 -0.1594 -0.0514
10920TIP3    H154251   2.047   0.738  43.682 -1.1915  0.0874 -0.6980
10920TIP3    H254252   2.022   0.862  43.766  1.0160 -0.3490  0.6862
10921TIP3   OH254253   0.536   2.256  47.628 -0.6107  0.1291 -0.3442
10921TIP3    H154254   0.481   2.297  47.694 -0.9306  1.0770 -1.1677
10921TIP3    H254255   0.571   2.177  47.670  0.5973  1.6017  1.5637
10922TIP3   OH254256   0.331   1.776  46.922 -0.1899 -0.2566  0.4812
10922TIP3    H154257   0.280   1.850  46.957 -0.1548 -0.2841  0.5927
10922TIP3    H254258   0.269   1.703  46.921 -0.3327 -0.1345  0.0162
10923TIP3   OH254259   0.315   0.534  14.990  0.2610  0.2944  0.8126
10923TIP3    H154260   0.301   0.442  15.012 -0.1366 -0.2204 -1.3069
10923TIP3    H254261   0.371   0.531  14.912 -1.4243  1.7353 -0.5357
10924TIP3   OH254262   3.831   2.061  13.086  0.0193 -0.8723  0.1098
10924TIP3    H154263   3.841   2.071  12.991  1.4332  2.0541  0.4445
10924TIP3    H254264   3.880   1.982  13.107  1.4254 -0.4620 -1.4006
10925TIP3   OH254265   2.686   3.247  32.251 -0.1521  0.2370 -0.6832
10925TIP3    H154266   2.634   3.194  32.191 -0.5947  1.3365 -1.3033
10925TIP3    H254267   2.631   3.323  32.270  0.3125  0.3029  0.4870
10926TIP3   OH254268   0.684   2.581   1.644  0.2453  0.5595 -0.0231
10926TIP3    H154269   0.608   2.529   1.670 -0.3560  1.2893 -0.2825
10926TIP3    H254270   0.652   2.637   1.573  0.8304  1.3666  0.3329
10927TIP3   OH254271   2.308   0.805  40.447  0.6668 -0.1014  0.0707
10927TIP3    H154272   2.250   0.762  40.510  1.7564  2.2691  2.9054
10927TIP3    H254273   2.339   0.733  40.391  0.3173 -2.5812  2.7828
10928TIP3   OH254274   0.068   1.122   1.356 -0.1491 -0.1357 -0.1947
10928TIP3    H154275   0.133   1.085   1.415 -0.8571  0.3438  0.9226
10928TIP3    H254276   0.113   1.129   1.271  1.2504  0.1775  0.5418
10929TIP3   OH254277   2.338   3.677  11.069 -0.0688  0.1400 -0.1446
10929TIP3    H154278   2.392   3.631  11.132 -1.1688 -0.8275  0.1252
10929TIP3    H254279   2.396   3.691  10.994  0.5441 -0.9360  0.0996
10930TIP3   OH254280   0.365   0.913  40.832  0.4184 -0.0887 -0.2761
10930TIP3    H154281   0.437   0.912  40.769  0.7623  0.0325  0.1098
10930TIP3    H254282   0.349   0.821  40.851  0.6431 -0.1060 -0.1671
10931TIP3   OH254283   2.134   3.472  41.641 -0.0333  0.3892 -0.2245
10931TIP3    H154284   2.203   3.538  41.636 -0.9034  1.3456  0.0038
10931TIP3    H254285   2.181   3.388  41.640  0.9909  0.9138 -2.5848
10932TIP3   OH254286   0.235   3.943  38.912 -0.3696  0.1608 -0.1283
10932TIP3    H154287   0.295   3.979  38.977 -0.0910 -0.0786 -0.2507
10932TIP3    H254288   0.150   3.981  38.933 -0.7292 -1.4877  1.6394
10933TIP3   OH254289   2.228   1.815   0.064 -0.0582  0.1011 -0.2908
10933TIP3    H154290   2.287   1.817   0.139  0.8298  0.7986 -0.9850
10933TIP3    H254291   2.241   1.728   0.026 -0.8465 -0.4270  0.6022
10934TIP3   OH254292   3.760   2.371  34.582 -0.1814  0.2658  0.2415
10934TIP3    H154293   3.761   2.276  34.596  0.3164  0.2554  0.1612
10934TIP3    H254294   3.849   2.391  34.551 -0.9727  0.4187 -2.0881
10935TIP3   OH254295   0.318   1.391  37.041 -0.1860  0.0981  0.1501
10935TIP3    H154296   0.318   1.460  36.974 -1.1282  2.1281  2.1342
10935TIP3    H254297   0.226   1.375  37.060  0.0566 -0.7829  0.6383
10936TIP3   OH254298   1.522   2.513  45.237 -0.2200 -0.3724 -0.2519
10936TIP3    H154299   1.588   2.551  45.179 -0.5487 -0.3536 -0.6135
10936TIP3    H254300   1.439   2.550  45.206 -0.2725  0.7058  1.0758
10937TIP3   OH254301   0.578   0.449  26.116 -0.1738  0.7636 -0.3512
10937TIP3    H154302   0.556   0.542  26.116 -0.4971  0.6910 -0.1945
10937TIP3    H254303   0.523   0.412  26.046  0.3809  0.7833 -0.8104
10938TIP3   OH254304   2.868   2.791   7.953 -0.5295  0.2286  0.0424
10938TIP3    H154305   2.902   2.741   8.027 -0.9897 -0.7506 -0.3791
10938TIP3    H254306   2.933   2.859   7.937  0.5532 -0.7570  0.1200
10939TIP3   OH254307   0.026   3.793   5.156  0.7241  0.1347  0.2524
10939TIP3    H154308  -0.015   3.875   5.182 -0.1554  0.1402 -1.0826
10939TIP3    H254309   0.072   3.764   5.235 -2.0628 -0.0166  1.9889
10940TIP3   OH254310   0.651   0.342  12.895 -0.1961 -0.7071  0.7343
10940TIP3    H154311   0.686   0.255  12.878  2.3999 -0.1715  2.5751
10940TIP3    H254312   0.717   0.402  12.860 -2.6230  0.6507 -1.8455
10941TIP3   OH254313   1.741   1.965  44.069 -0.6638  0.3413  0.1365
10941TIP3    H154314   1.655   2.004  44.057 -0.5991  0.1905 -0.9066
10941TIP3    H254315   1.772   2.001  44.152 -1.6271  0.5731  0.4141
10942TIP3   OH254316   1.004   2.556   5.010 -0.4535 -0.3084 -0.0667
10942TIP3    H154317   1.049   2.623   5.062  0.6808 -0.4683 -0.8031
10942TIP3    H254318   1.075   2.503   4.975 -1.1684  0.0010 -2.0594
10943TIP3   OH254319   0.319   1.014   4.768 -0.3729 -0.6834 -0.0400
10943TIP3    H154320   0.319   1.093   4.822 -0.6903 -0.8912  0.2737
10943TIP3    H254321   0.371   0.951   4.818 -0.5743 -0.8412 -0.0295
10944TIP3   OH254322   2.040   2.421  43.128  0.3997 -0.2010  0.2932
10944TIP3    H154323   1.984   2.383  43.060  0.7944  2.0149 -1.3987
10944TIP3    H254324   1.981   2.441  43.200 -0.3868 -0.8890 -0.1527
10945TIP3   OH254325   0.640   2.799   0.612  0.1637 -0.2611 -0.1626
10945TIP3    H154326   0.601   2.713   0.595 -1.7592  0.9513 -2.5532
10945TIP3    H254327   0.708   2.808   0.545  0.2088  0.1759 -0.0552
10946TIP3   OH254328   0.386   2.984  38.217 -0.3894 -0.7598  0.1597
10946TIP3    H154329   0.333   3.032  38.155 -0.9858 -1.3816  0.1818
10946TIP3    H254330   0.352   3.008  38.303 -0.3043 -0.7712  0.1955
10947TIP3   OH254331   2.243   3.499   6.708 -0.0500 -0.6102  1.1879
10947TIP3    H154332   2.313   3.437   6.688  0.0799 -0.0544 -0.1716
10947TIP3    H254333   2.278   3.553   6.778  0.7888 -0.4883  0.6799
10948TIP3   OH254334   1.591   1.790   4.809 -0.2761  0.0800 -0.2767
10948TIP3    H154335   1.665   1.777   4.750  0.8041 -0.5991  1.1750
10948TIP3    H254336   1.629   1.785   4.897 -2.0759 -0.4736  0.5068
10949TIP3   OH254337   0.534   1.183  42.063 -0.2665  0.0984 -0.0470
10949TIP3    H154338   0.592   1.219  42.130  0.1409  0.5236 -0.6205
10949TIP3    H254339   0.454   1.161  42.110  0.9718 -2.2892  1.1560
10950TIP3   OH254340   0.388   2.119   4.141  0.4321 -0.5493  0.2281
10950TIP3    H154341   0.437   2.092   4.219  0.6029 -0.9771 -0.0234
10950TIP3    H254342   0.296   2.107   4.166  0.4004  0.9630  0.9597
10951TIP3   OH254343   0.717   1.841  11.151 -0.2122 -0.2416  0.1484
10951TIP3    H154344   0.745   1.753  11.128 -0.9104 -0.4500  0.0875
10951TIP3    H254345   0.690   1.880  11.068  2.3484  0.8873 -0.2558
10952TIP3   OH254346   0.397   0.340   0.117 -0.1306  0.7004  0.0440
10952TIP3    H154347   0.452   0.413   0.144  0.4944  0.4332 -0.4914
10952TIP3    H254348   0.444   0.262   0.146 -0.4675  0.4885  0.0253
10953TIP3   OH254349   1.947   1.380  46.360  0.2257 -0.0632  0.2543
10953TIP3    H154350   1.930   1.313  46.294  1.9062  0.1313 -0.4330
10953TIP3    H254351   2.003   1.337  46.424  1.4902  0.6883 -0.2960
10954TIP3   OH254352   1.265   1.173  45.082  0.2580  0.1640  0.1375
10954TIP3    H154353   1.195   1.160  45.147  0.6138 -1.1587  0.2939
10954TIP3    H254354   1.314   1.248  45.115 -2.7746  3.1646 -1.5458
10955TIP3   OH254355   1.821   3.698  39.779 -0.0051 -0.0621 -0.0789
10955TIP3    H154356   1.746   3.744  39.818  0.0346 -0.2658  0.2414
10955TIP3    H254357   1.813   3.608  39.811  1.8984  0.5108  2.1733
10956TIP3   OH254358   1.285   3.547  36.992  0.6730 -0.0056 -0.3243
10956TIP3    H154359   1.328   3.569  37.075 -0.2361  0.1127  0.1235
10956TIP3    H254360   1.210   3.495  37.017  0.0510  0.5305 -1.0272
10957TIP3   OH254361   1.209   2.062   0.592  0.6759  0.4294 -0.6625
10957TIP3    H154362   1.148   2.098   0.656  1.8310  0.0068  0.7274
10957TIP3    H254363   1.153   2.035   0.519 -0.4778  2.6765 -0.7083
10958TIP3   OH254364   3.480   1.794   1.548  0.2528  0.1567 -0.0979
10958TIP3    H154365   3.388   1.776   1.526  0.5518 -0.0623 -1.2642
10958TIP3    H254366   3.522   1.807   1.463  1.5087 -0.7479  0.3580
10959TIP3   OH254367   0.531   1.584  35.998  0.0292  0.3722 -0.5098
10959TIP3    H154368   0.477   1.597  35.920 -1.0885 -0.2592  0.1340
10959TIP3    H254369   0.469   1.581  36.070  1.0504  0.9701  0.4229
10960TIP3   OH254370   2.494   1.087  45.603  0.0521  0.0835  0.0868
10960TIP3    H154371   2.404   1.055  45.592  1.0841 -3.1193 -0.0429
10960TIP3    H254372   2.528   1.038  45.677  1.6643  1.4042  0.2737
10961TIP3   OH254373   2.952   2.485  43.770 -0.3228 -0.0837  0.1495
10961TIP3    H154374   2.879   2.469  43.830  0.1230 -0.9486  0.4750
10961TIP3    H254375   3.029   2.492  43.827 -0.0492  0.1730 -0.2422
10962TIP3   OH254376   3.439   2.030  34.222 -0.0895  0.3412 -0.4583
10962TIP3    H154377   3.444   1.944  34.265 -2.9074  0.6472  0.7183
10962TIP3    H254378   3.526   2.067  34.235 -0.0435 -0.5513  3.0837
10963TIP3   OH254379   0.295   2.053   3.561 -0.0770  0.2394  0.4280
10963TIP3    H154380   0.337   2.026   3.480  1.3186  2.1695  0.4442
10963TIP3    H254381   0.247   1.975   3.590  0.1895 -0.7939 -1.7038
10964TIP3   OH254382   1.939   0.361  41.531 -0.4492  0.0237  0.4996
10964TIP3    H154383   2.018   0.398  41.569  0.2468 -0.0393 -0.8518
10964TIP3    H254384   1.919   0.285  41.587  0.0852  0.3940  1.2047
10965TIP3   OH254385   3.902   0.644  10.698 -0.0415 -0.6377  0.4196
10965TIP3    H154386   3.995   0.665  10.704 -0.3048  0.0726  2.8251
10965TIP3    H254387   3.900   0.566  10.642  1.9235 -0.4039 -0.0787
10966TIP3   OH254388   0.381   0.978   6.494 -0.0523 -0.6310  0.0803
10966TIP3    H154389   0.381   0.957   6.401 -0.1039  0.4059 -0.1700
10966TIP3    H254390   0.462   0.940   6.528  0.0141 -0.9281 -0.4094
10967TIP3   OH254391   0.725   3.448   1.616 -0.5100 -0.2404  0.2562
10967TIP3    H154392   0.786   3.384   1.653 -0.4987 -1.1010 -1.1754
10967TIP3    H254393   0.653   3.396   1.580 -0.7746  0.5791 -0.4532
10968TIP3   OH254394   1.441   3.289  35.073 -0.5076 -0.4171  0.1771
10968TIP3    H154395   1.510   3.339  35.029 -0.1729  0.1315  1.2797
10968TIP3    H254396   1.416   3.222  35.010  0.2031  0.1192 -0.7021
10969TIP3   OH254397   1.689   2.683   7.016 -0.5661 -0.2275  0.8361
10969TIP3    H154398   1.690   2.603   7.069 -0.2217 -1.5568 -1.0792
10969TIP3    H254399   1.612   2.673   6.959  1.3669 -0.9177 -1.8192
10970TIP3   OH254400   1.887   0.057  14.041 -0.1466 -0.0720 -0.1553
10970TIP3    H154401   1.879   0.098  13.955 -1.0611 -0.9746 -0.5188
10970TIP3    H254402   1.943  -0.019  14.028  0.9239  0.6094  0.3637
10971TIP3   OH254403   3.281   3.516   0.589  0.6024 -0.5414  0.3396
10971TIP3    H154404   3.354   3.471   0.631  1.7775  1.2061  0.2467
10971TIP3    H254405   3.269   3.596   0.641 -0.3838 -0.1592 -0.4433
10972TIP3   OH254406   2.571   0.689  11.839 -1.4128  0.7903  0.3442
10972TIP3    H154407   2.555   0.780  11.864 -2.1185  1.2546 -1.6440
10972TIP3    H254408   2.497   0.666  11.782 -0.1060 -0.2851 -0.9907
10973TIP3   OH254409   0.350   3.103  41.951  0.3385 -0.4092 -0.4111
10973TIP3    H154410   0.428   3.120  41.898  1.9158  0.4532  2.0389
10973TIP3    H254411   0.277   3.126  41.893  1.8495 -0.9709 -2.6866
10974TIP3   OH254412   1.188   0.075  36.381  0.2366 -0.7275 -0.1084
10974TIP3    H154413   1.132  -0.001  36.393 -0.3072 -0.3683 -0.3647
10974TIP3    H254414   1.129   0.150  36.390  0.6330 -0.3520 -0.6056
10975TIP3   OH254415   3.664   1.158  20.201 -0.7226 -0.8130 -0.3470
10975TIP3    H154416   3.671   1.126  20.290 -0.2103  0.7690  0.2190
10975TIP3    H254417   3.754   1.161  20.169 -0.7154  0.3364 -0.2580
10976TIP3   OH254418   3.161   2.241  42.195  0.4114  0.1644  0.3220
10976TIP3    H154419   3.134   2.150  42.207 -1.0477  0.6286  0.8119
10976TIP3    H254420   3.248   2.235  42.156 -0.4175 -1.4401 -1.4305
10977TIP3   OH254421   1.925   2.712  32.881  0.4506 -0.3610  0.0342
10977TIP3    H154422   1.835   2.679  32.894 -0.1748  1.5199  0.7962
10977TIP3    H254423   1.921   2.763  32.801  0.6738  0.2744  0.4243
10978TIP3   OH254424   3.788   1.286   5.951 -0.2301  0.0159 -0.8330
10978TIP3    H154425   3.802   1.229   6.027 -1.3793  0.9964  0.1676
10978TIP3    H254426   3.869   1.337   5.944 -0.5565  0.7686  0.5271
10979TIP3   OH254427   3.097   3.471  47.308 -0.0738  0.1640  0.4137
10979TIP3    H154428   3.137   3.488  47.223 -0.3506  1.5243  0.5241
10979TIP3    H254429   3.010   3.435  47.287 -0.5133  1.3735  0.0828
10980TIP3   OH254430   3.965   2.574   7.625 -0.8191  0.3074  0.1179
10980TIP3    H154431   3.962   2.514   7.700  0.0643 -0.5124 -0.4702
10980TIP3    H254432   3.991   2.658   7.662 -2.9912  0.6249  1.0993
10981TIP3   OH254433   2.736   1.574  44.699  0.0123 -0.0462  0.2278
10981TIP3    H154434   2.759   1.577  44.792 -0.8225  0.9075  0.4243
10981TIP3    H254435   2.815   1.603  44.653  0.4997 -0.7367  0.6196
10982TIP3   OH254436   3.456   0.326  39.420  0.4811  0.7645 -0.4257
10982TIP3    H154437   3.396   0.255  39.395  3.0832 -1.5870 -0.5220
10982TIP3    H254438   3.428   0.351  39.508  0.3873 -1.5729  0.2931
10983TIP3   OH254439   3.995   0.073   8.438 -0.4714  0.2387 -0.1676
10983TIP3    H154440   4.046   0.142   8.480  0.7284 -1.2347  0.8670
10983TIP3    H254441   3.922   0.058   8.497  0.4916 -0.9054  0.7702
10984TIP3   OH254442   3.859   2.995   4.524 -0.3231  0.2384  0.5895
10984TIP3    H154443   3.918   2.931   4.484 -1.1567  0.3175 -0.8446
10984TIP3    H254444   3.791   3.009   4.458  0.5695  3.7043  0.2233
10985TIP3   OH254445   3.830   1.164  19.801 -0.0791  0.0481 -0.7058
10985TIP3    H154446   3.818   1.208  19.886  0.2728  2.1507 -1.6700
10985TIP3    H254447   3.908   1.110  19.814 -1.5964 -1.8939  1.0838
10986TIP3   OH254448   2.864   2.436  12.209  0.1315 -0.4249  0.0047
10986TIP3    H154449   2.864   2.341  12.214 -1.4738 -0.4973 -0.6398
10986TIP3    H254450   2.851   2.456  12.116 -1.4961  0.3528  0.3434
10987TIP3   OH254451   3.088   2.254  41.770  0.4289  0.0538  0.7164
10987TIP3    H154452   3.073   2.194  41.842 -0.5484 -0.0001  0.4829
10987TIP3    H254453   3.175   2.291  41.786  0.9147 -1.1953  1.0188
10988TIP3   OH254454   3.511   1.800  13.849  0.1176 -0.2931 -0.4019
10988TIP3    H154455   3.498   1.885  13.807  1.8677  0.3912  0.3659
10988TIP3    H254456   3.475   1.811  13.937  0.3487 -0.3594 -0.3007
10989TIP3   OH254457   0.208   1.983  45.715 -0.0416 -0.4671  0.0234
10989TIP3    H154458   0.145   1.922  45.677 -0.3329 -1.3947  1.8675
10989TIP3    H254459   0.155   2.055  45.749  0.0282 -0.5325  0.2766
10990TIP3   OH254460   2.238   2.053  11.114  0.1378  0.0528  0.0244
10990TIP3    H154461   2.184   2.071  11.037 -0.5312  0.3228  0.5435
10990TIP3    H254462   2.180   2.006  11.174  0.5845  0.0435  0.4586
10991TIP3   OH254463   1.614   1.518  45.064  0.2927 -0.3538  0.2428
10991TIP3    H154464   1.588   1.543  44.975 -1.7911  0.5589  1.0521
10991TIP3    H254465   1.690   1.573  45.083  1.8390 -1.7352 -1.5130
10992TIP3   OH254466   2.033   0.009  33.017 -0.0878 -0.2472  0.0385
10992TIP3    H154467   2.110   0.067  33.018  0.2408 -0.6740  1.0422
10992TIP3    H254468   1.990   0.029  32.934  1.3438 -0.3208 -0.7724
10993TIP3   OH254469   0.927   3.412  33.392  0.2783 -0.7000  0.1442
10993TIP3    H154470   0.923   3.381  33.483  0.1011  0.9728  0.7478
10993TIP3    H254471   0.838   3.400  33.359  0.5562 -2.1659 -0.1391
10994TIP3   OH254472   3.254   3.278  10.668 -0.4505 -0.2685  0.2962
10994TIP3    H154473   3.282   3.275  10.759 -0.6260  0.5262  0.3788
10994TIP3    H254474   3.179   3.336  10.667 -0.7153 -0.6092 -0.2934
10995TIP3   OH254475   3.510   2.008   9.517 -0.4275  0.7983 -0.3706
10995TIP3    H154476   3.552   2.029   9.600 -1.5678 -1.4867  0.8756
10995TIP3    H254477   3.446   2.078   9.504  0.2872  1.5954  0.2574
10996TIP3   OH254478   0.669   2.938   4.647 -0.6587  0.2598 -0.1982
10996TIP3    H154479   0.635   2.853   4.675 -1.3080  0.6054  0.0864
10996TIP3    H254480   0.764   2.931   4.658 -0.7882 -0.0766  0.8302
10997TIP3   OH254481   1.840   1.188   7.216 -0.7882  0.0995 -0.0376
10997TIP3    H154482   1.877   1.273   7.236 -0.7029  0.1216 -0.2857
10997TIP3    H254483   1.879   1.164   7.132  0.4340 -0.8956  0.7754
10998TIP3   OH254484   3.879   3.156  29.850 -0.0050 -0.1264 -0.7500
10998TIP3    H154485   3.804   3.117  29.895  0.2101  2.2229  1.8891
10998TIP3    H254486   3.951   3.149  29.912  0.5392  2.5601 -0.9492
10999TIP3   OH254487   3.148   3.634  35.887  0.4042 -0.0047 -0.0839
10999TIP3    H154488   3.237   3.599  35.892 -0.2911 -1.8199  0.5557
10999TIP3    H254489   3.149   3.712  35.942  1.7963  0.4921 -0.7789
11000TIP3   OH254490   0.933   0.268  41.865 -0.4430 -0.3309 -0.2176
11000TIP3    H154491   0.972   0.241  41.782  2.1765 -0.1748  0.8702
11000TIP3    H254492   0.924   0.187  41.915 -0.3268 -0.2135 -0.0039
11001TIP3   OH254493   2.606   2.535   9.160 -0.0305 -0.1627  0.2578
11001TIP3    H154494   2.557   2.552   9.240 -2.5331  0.1295 -1.2178
11001TIP3    H254495   2.633   2.443   9.167 -1.5136 -0.5843  0.8372
11002TIP3   OH254496   1.188   3.677  41.001 -0.3246 -0.3713  0.1142
11002TIP3    H154497   1.232   3.668  40.917 -2.5424 -0.2346 -1.1428
11002TIP3    H254498   1.107   3.626  40.991  0.1017 -1.7766  2.7895
11003TIP3   OH254499   0.636   0.178  37.936  0.1014  0.0401 -0.0694
11003TIP3    H154500   0.642   0.242  37.866 -0.1668  1.8406  1.4789
11003TIP3    H254501   0.691   0.105  37.907 -0.2922  0.5516 -2.2817
11004TIP3   OH254502   3.540   0.922  40.613 -0.2711  0.7547 -0.1340
11004TIP3    H154503   3.514   0.918  40.705 -1.0219  0.6006 -0.3486
11004TIP3    H254504   3.625   0.878  40.611  0.4891  2.1248  0.7285
11005TIP3   OH254505   1.978   0.501  36.914  0.2659 -0.4823 -0.5311
11005TIP3    H154506   1.917   0.531  36.847 -0.9659 -1.0744  0.2870
11005TIP3    H254507   1.983   0.573  36.977 -0.9038 -1.0561  0.2498
11006TIP3   OH254508   4.076   3.007  13.533  0.5099 -0.3172 -0.4984
11006TIP3    H154509   4.005   3.041  13.588 -1.7115 -1.9273 -2.1603
11006TIP3    H254510   4.069   3.059  13.452  1.9360  0.1798 -0.3289
11007TIP3   OH254511   0.279   1.710   8.886  0.3006  0.0293  0.5258
11007TIP3    H154512   0.350   1.725   8.824  0.9700 -2.2437  0.6686
11007TIP3    H254513   0.311   1.747   8.968  0.2808  1.1481  0.0599
11008TIP3   OH254514   0.877   3.003   9.271  0.4032 -0.2297 -0.1389
11008TIP3    H154515   0.867   3.098   9.280  0.1859 -0.2707  0.0782
11008TIP3    H254516   0.846   2.968   9.355 -2.7412 -0.7233 -1.3418
11009TIP3   OH254517   1.600   2.010  12.757  0.2608  0.0967  0.0562
11009TIP3    H154518   1.594   2.104  12.776  2.2368 -0.0312  1.5762
11009TIP3    H254519   1.621   2.006  12.664 -0.0907  1.1351 -0.0840
11010TIP3   OH254520   2.191   2.663  11.645 -0.0408  0.1313 -0.2008
11010TIP3    H154521   2.153   2.659  11.558 -2.2776 -1.2603  0.7525
11010TIP3    H254522   2.172   2.752  11.676  0.6943  0.6017 -1.0760
11011TIP3   OH254523   3.216   0.493   0.564 -0.5986 -0.0489  0.5753
11011TIP3    H154524   3.138   0.524   0.519  0.3123  0.8491 -0.4720
11011TIP3    H254525   3.254   0.427   0.505  0.9857  1.6398 -0.4236
11012TIP3   OH254526   3.236   3.940  13.442 -0.0706 -0.4454  0.0872
11012TIP3    H154527   3.235   3.848  13.468  1.2195 -1.1449 -2.0488
11012TIP3    H254528   3.317   3.950  13.391  0.0723  2.0021  0.6639
11013TIP3   OH254529   1.253   0.235  33.660 -0.3487 -0.5292 -0.2917
11013TIP3    H154530   1.255   0.299  33.731 -0.3401 -2.4548  1.5502
11013TIP3    H254531   1.341   0.237  33.623  0.4043 -1.1490  1.3704
11014TIP3   OH254532   1.090   3.044   4.979 -0.5906  0.5912  0.2346
11014TIP3    H154533   1.044   3.122   4.951  2.3546  2.9588  1.4034
11014TIP3    H254534   1.165   3.038   4.921 -0.3741 -0.9669  0.6303
11015TIP3   OH254535   2.837   0.479   7.155  0.1239 -0.1758  0.1125
11015TIP3    H154536   2.918   0.525   7.134 -0.7186  1.2271 -0.2138
11015TIP3    H254537   2.813   0.510   7.242  1.5124 -2.9637  1.6359
11016TIP3   OH254538   3.602   2.538   3.806 -0.9986  0.5708  0.2643
11016TIP3    H154539   3.660   2.592   3.752  0.0760 -0.8511 -0.0778
11016TIP3    H254540   3.601   2.582   3.891 -1.0841  1.7411 -0.3228
11017TIP3   OH254541   2.394   1.449  14.210  1.0356  0.2039  0.2985
11017TIP3    H154542   2.454   1.461  14.136  0.9154 -2.1906 -0.2628
11017TIP3    H254543   2.444   1.397  14.273  0.3921  0.3662  0.9559
11018TIP3   OH254544   1.178   3.922  33.657  0.3678  0.3632  0.3566
11018TIP3    H154545   1.095   3.953  33.693 -0.4905 -0.2313 -1.0185
11018TIP3    H254546   1.242   3.987  33.684 -0.7202  1.3300  0.6605
11019TIP3   OH254547   1.063   3.864  36.873  0.4765  0.2147  0.5953
11019TIP3    H154548   1.138   3.898  36.921 -0.1508  0.9185  1.1114
11019TIP3    H254549   1.089   3.867  36.781  0.3009  2.5703  0.5715
11020TIP3   OH254550   1.425   1.894  47.097  0.0502  0.2828 -0.0728
11020TIP3    H154551   1.488   1.850  47.154  0.5991  1.6151  0.3834
11020TIP3    H254552   1.362   1.935  47.156  0.1949  1.0496 -0.4305
11021TIP3   OH254553   1.471   2.098  41.564  0.5143  0.7355  0.7060
11021TIP3    H154554   1.473   2.007  41.534  0.8976  0.6730  0.9287
11021TIP3    H254555   1.519   2.147  41.496 -1.8000  1.1636 -0.7543
11022TIP3   OH254556   3.227   1.206  37.589  0.2345  0.9083  0.3503
11022TIP3    H154557   3.187   1.279  37.636 -0.4953  0.9878 -0.3758
11022TIP3    H254558   3.180   1.202  37.506  1.5181  0.7872 -0.3955
11023TIP3   OH254559   3.248   0.205   0.025 -0.4711  0.2430 -0.1353
11023TIP3    H154560   3.328   0.257   0.033  0.1137 -0.6553 -0.0644
11023TIP3    H254561   3.277   0.121  -0.011 -1.1835 -0.5861  1.1465
11024TIP3   OH254562   3.408   2.426  17.970  0.1060  0.1791 -0.1248
11024TIP3    H154563   3.484   2.455  18.021  0.9369  1.1090 -1.8266
11024TIP3    H254564   3.429   2.449  17.880 -1.8307 -0.3640 -0.7611
11025TIP3   OH254565   1.390   0.583  46.030  0.2678 -0.6346  0.5282
11025TIP3    H154566   1.405   0.595  45.936 -0.3896 -1.7302  0.2648
11025TIP3    H254567   1.476   0.562  46.066  0.4036 -0.9035  0.0512
11026TIP3   OH254568   3.111   3.298   2.644 -0.2009 -0.4407 -0.0644
11026TIP3    H154569   3.165   3.223   2.670 -0.7117 -0.5024  0.8239
11026TIP3    H254570   3.129   3.365   2.710 -1.9579 -0.8056  0.8237
11027TIP3   OH254571   3.033   2.728  37.384 -0.1623 -0.0249 -0.1628
11027TIP3    H154572   2.953   2.677  37.397 -0.1447 -0.1090 -0.3772
11027TIP3    H254573   3.063   2.702  37.297  0.3497 -0.3427  0.1070
11028TIP3   OH254574   2.013   2.254   0.927 -0.1803 -0.0092 -0.0900
11028TIP3    H154575   2.058   2.191   0.983 -1.2823 -1.1330 -0.4155
11028TIP3    H254576   2.055   2.338   0.946  0.6812 -0.6741  1.0642
11029TIP3   OH254577   2.383   3.522  12.127 -0.3798 -0.3751  0.2583
11029TIP3    H154578   2.371   3.435  12.167 -1.5119 -0.1981  0.3383
11029TIP3    H254579   2.416   3.503  12.039 -0.8973 -0.9078  0.1702
11030TIP3   OH254580   2.986   3.493  28.191 -0.5303 -0.4133 -0.3309
11030TIP3    H154581   2.924   3.476  28.119  0.3460 -1.1504 -0.9439
11030TIP3    H254582   3.009   3.406  28.224 -0.8613 -0.0808  0.8023
11031TIP3   OH254583   1.305   3.342  36.437  0.7219  0.1249  0.0337
11031TIP3    H154584   1.213   3.320  36.451  0.7474 -0.3487 -0.5310
11031TIP3    H254585   1.344   3.336  36.525  0.3281 -0.2047  0.1898
11032TIP3   OH254586   0.186   3.131  47.209 -0.2548 -0.1699  0.1279
11032TIP3    H154587   0.184   3.227  47.207 -0.3906 -0.1728  0.1122
11032TIP3    H254588   0.096   3.106  47.230 -0.0642 -0.2789  0.8269
11033TIP3   OH254589   1.220   3.116  43.990  0.0633  0.0422 -0.2984
11033TIP3    H154590   1.209   3.022  43.974  1.3109 -0.2444  0.4283
11033TIP3    H254591   1.315   3.128  43.998 -0.0378  1.4594 -0.8868
11034TIP3   OH254592   1.493   3.073   4.654  0.0664 -0.2966 -0.0925
11034TIP3    H154593   1.553   3.074   4.728  1.3221 -2.3989 -0.9854
11034TIP3    H254594   1.541   3.116   4.583 -0.8265  0.9954  0.0405
11035TIP3   OH254595   3.472   1.113  45.122 -0.6247 -0.0703 -0.7856
11035TIP3    H154596   3.512   1.041  45.170 -0.9717 -0.7414 -1.4747
11035TIP3    H254597   3.539   1.181  45.120 -0.8529  0.2821  1.2507
11036TIP3   OH254598   3.195   3.075  34.505 -0.0420  0.3684  0.0236
11036TIP3    H154599   3.239   3.159  34.520  2.3067 -0.9245  0.8500
11036TIP3    H254600   3.146   3.059  34.586 -1.6687  1.5297 -0.6698
11037TIP3   OH254601   1.756   1.048   2.763  0.6392  0.1868 -0.6209
11037TIP3    H154602   1.797   1.119   2.813 -0.9655  0.7211  0.0265
11037TIP3    H254603   1.756   0.973   2.823  0.5667  0.2183 -0.5818
11038TIP3   OH254604   3.625   2.731  14.348 -0.3101  0.1425 -0.4110
11038TIP3    H154605   3.670   2.703  14.428  0.8193 -1.1039 -1.4316
11038TIP3    H254606   3.696   2.758  14.290 -1.0784  0.4723 -1.2080
11039TIP3   OH254607   0.381   2.377  36.336 -0.3694 -0.6173  0.0892
11039TIP3    H154608   0.360   2.468  36.317 -0.2314 -0.5164  0.3988
11039TIP3    H254609   0.461   2.382  36.389 -0.3519 -0.9187  0.0938
11040TIP3   OH254610   3.917   0.304  46.899 -0.0606 -0.5352 -0.0230
11040TIP3    H154611   3.894   0.279  46.809 -1.3027 -0.5989  0.2946
11040TIP3    H254612   3.958   0.390  46.890 -1.3807  0.0746 -0.5514
11041TIP3   OH254613   0.088   1.798  45.214 -0.5231  0.1381  0.3104
11041TIP3    H154614   0.027   1.766  45.281  0.7957  0.4775  1.7131
11041TIP3    H254615   0.078   1.893  45.215 -2.5400  0.0508 -2.0295
11042TIP3   OH254616   1.163   2.558   2.892 -0.0129 -0.6155  0.8378
11042TIP3    H154617   1.072   2.529   2.889  0.0990 -0.8942 -0.1724
11042TIP3    H254618   1.171   2.604   2.976 -1.2696  0.0726  0.5957
11043TIP3   OH254619   1.329   0.318  12.041 -0.6178 -0.1362 -0.5324
11043TIP3    H154620   1.347   0.396  12.093  1.2201 -0.8694  0.0312
11043TIP3    H254621   1.279   0.350  11.966 -0.2316  1.5084 -0.1349
11044TIP3   OH254622   1.853   2.188  10.167  0.4209 -0.1372  0.7728
11044TIP3    H154623   1.901   2.161  10.089 -0.8133 -1.4983  0.4267
11044TIP3    H254624   1.791   2.254  10.135  0.5248 -0.0374  0.7779
11045TIP3   OH254625   3.205   3.074  43.663  0.4421  0.5948  0.0166
11045TIP3    H154626   3.139   3.140  43.642  1.4549  2.2486  1.7293
11045TIP3    H254627   3.236   3.098  43.750  2.3764 -0.8974 -0.2012
11046TIP3   OH254628   0.272   1.690  38.464  0.3394  0.2935  0.3616
11046TIP3    H154629   0.181   1.662  38.473  0.7422 -0.6090  1.8801
11046TIP3    H254630   0.324   1.621  38.505  1.6516  1.3294  0.5456
11047TIP3   OH254631   2.638   2.685  32.146  0.2300  0.4769 -0.0563
11047TIP3    H154632   2.566   2.712  32.090  0.0713  0.5553  0.1841
11047TIP3    H254633   2.608   2.702  32.235  1.2642  2.3233 -0.0011
11048TIP3   OH254634   3.317   3.151  12.395  0.2576  0.4183  0.1931
11048TIP3    H154635   3.290   3.061  12.376  0.9598  0.3178 -0.3759
11048TIP3    H254636   3.413   3.148  12.391  0.3449  0.9215  1.4193
11049TIP3   OH254637   2.493   1.407  17.318  0.4890 -0.5431 -0.0343
11049TIP3    H154638   2.461   1.473  17.380  0.4756 -0.9661  0.4124
11049TIP3    H254639   2.582   1.435  17.297  0.3731 -0.2100 -0.0930
11050TIP3   OH254640   3.107   0.791  43.022  0.0856  0.6331 -0.1584
11050TIP3    H154641   3.171   0.745  43.076 -0.2557  0.9553  0.5356
11050TIP3    H254642   3.022   0.757  43.050 -0.0330 -0.2240 -1.4799
11051TIP3   OH254643   2.356   2.997  12.813 -0.1432 -0.4821 -0.5882
11051TIP3    H154644   2.349   3.078  12.763  0.5526 -0.3826 -0.5368
11051TIP3    H254645   2.446   2.968  12.799 -0.1516 -0.8326  0.0319
11052TIP3   OH254646   0.386   2.800  36.810 -0.0823 -0.1317  0.3580
11052TIP3    H154647   0.467   2.767  36.771  0.7438  0.3106  1.6392
11052TIP3    H254648   0.385   2.765  36.899 -0.5812  1.0020  0.8325
11053TIP3   OH254649   2.797   1.884  10.142 -0.1399  0.0009  0.0263
11053TIP3    H154650   2.859   1.919  10.206  0.9091 -0.7901 -0.5389
11053TIP3    H254651   2.825   1.921  10.058 -1.7538  1.3609  0.0244
11054TIP3   OH254652   2.989   4.092  15.184  0.8291 -0.2699 -0.2945
11054TIP3    H154653   2.983   4.140  15.102  0.4677 -0.9087 -0.6454
11054TIP3    H254654   2.937   4.014  15.170  2.0637 -1.1758 -0.0232
11055TIP3   OH254655   2.965   3.875  12.610  0.4704  0.0594  0.1642
11055TIP3    H154656   2.898   3.807  12.607  0.1098  0.4350 -0.4850
11055TIP3    H254657   2.967   3.904  12.701  0.4215 -0.6095  0.3836
11056TIP3   OH254658   1.717   2.850   6.664  0.4965  0.0579 -0.8178
11056TIP3    H154659   1.649   2.907   6.701  0.9305 -0.5964  1.1106
11056TIP3    H254660   1.674   2.807   6.590 -0.5633  1.1256 -0.8621
11057TIP3   OH254661   2.571   4.008  42.233 -0.5194  0.5081 -0.0018
11057TIP3    H154662   2.566   3.985  42.140  0.3777  1.3005 -0.2666
11057TIP3    H254663   2.549   3.927  42.279  0.1191 -0.2007 -0.9053
11058TIP3   OH254664   0.149   2.406   9.855 -0.1751  0.5552 -0.1736
11058TIP3    H154665   0.060   2.431   9.878 -0.2991  0.2757 -0.3405
11058TIP3    H254666   0.199   2.418   9.936 -0.4079  0.5121 -0.0199
11059TIP3   OH254667   3.854   2.405  47.665  0.1326  0.2927 -0.2845
11059TIP3    H154668   3.863   2.389  47.571  1.5326 -0.1353 -0.1031
11059TIP3    H254669   3.874   2.499  47.675  0.1565  0.2986 -0.3929
11060TIP3   OH254670   0.005   1.653  38.508 -0.4329  0.2386  0.2355
11060TIP3    H154671   0.031   1.622  38.595  0.6741 -1.5817 -0.6863
11060TIP3    H254672  -0.053   1.585  38.474 -0.3345  0.6046 -0.6987
11061TIP3   OH254673   2.194   2.517  18.905 -0.4788  0.1131 -0.2473
11061TIP3    H154674   2.211   2.423  18.894  3.1106  0.2539  2.4389
11061TIP3    H254675   2.266   2.560  18.860 -1.6416  1.6487 -0.7395
11062TIP3   OH254676   3.813   2.109  32.963  0.0608 -0.5665 -0.1427
11062TIP3    H154677   3.730   2.065  32.945 -0.2387 -0.1052  0.0935
11062TIP3    H254678   3.879   2.049  32.929 -0.2787 -1.7506  1.1803
11063TIP3   OH254679   2.958   4.023  43.519  0.2672 -0.2478  0.1057
11063TIP3    H154680   2.995   3.944  43.479 -0.8774 -1.0291  0.5367
11063TIP3    H254681   2.868   4.026  43.486 -0.2824 -0.1739  1.5472
11064TIP3   OH254682   2.752   3.554  31.161  0.3482 -0.5080 -0.4802
11064TIP3    H154683   2.831   3.566  31.108 -0.4199  0.7102 -1.4073
11064TIP3    H254684   2.705   3.637  31.153 -1.2096 -1.3256 -0.2243
11065TIP3   OH254685   0.544   4.018  36.532  0.0316 -0.0752  0.7496
11065TIP3    H154686   0.617   3.973  36.575  0.9769  0.2399 -0.4679
11065TIP3    H254687   0.482   3.949  36.511  0.1585 -0.4072  1.4478
11066TIP3   OH254688   3.519   2.397  11.124  1.0318 -0.5294  0.2326
11066TIP3    H154689   3.490   2.464  11.186  1.6863  0.2850 -0.3227
11066TIP3    H254690   3.447   2.389  11.062  0.5884 -0.9837  0.7824
11067TIP3   OH254691   0.438   0.819   4.931 -0.4695 -0.4194  0.0999
11067TIP3    H154692   0.502   0.883   4.963 -1.3378 -0.1931  1.4393
11067TIP3    H254693   0.399   0.782   5.010 -2.0430 -0.5064 -0.6811
11068TIP3   OH254694   2.196   2.839  33.701  1.0714 -0.2438  0.1205
11068TIP3    H154695   2.199   2.744  33.705  0.8068 -0.2040  1.5299
11068TIP3    H254696   2.231   2.868  33.785 -1.9694  0.8363  1.1527
11069TIP3   OH254697   0.991   2.488   9.574  0.2104 -0.3304 -0.2151
11069TIP3    H154698   0.988   2.581   9.599 -0.8635 -0.7920  1.5616
11069TIP3    H254699   0.956   2.486   9.485 -0.4711  0.8994 -0.0001
11070TIP3   OH254700   4.033   2.031   4.401 -0.1546 -0.1180 -0.0876
11070TIP3    H154701   4.027   1.943   4.437 -1.7104 -0.2178 -0.5254
11070TIP3    H254702   3.955   2.040   4.347  0.3305  1.2918 -0.5914
11071TIP3   OH254703   3.500   3.718  28.193  0.1931  0.2094 -0.2897
11071TIP3    H154704   3.537   3.689  28.110  2.0504  0.0893  0.5177
11071TIP3    H254705   3.493   3.638  28.245  2.0775  0.6465  0.7363
11072TIP3   OH254706   0.269   3.438  42.634  0.5660 -0.2087  0.0906
11072TIP3    H154707   0.300   3.434  42.724 -0.4820  0.5922  0.5096
11072TIP3    H254708   0.174   3.428  42.641  0.3518  0.9518 -0.8065
11073TIP3   OH254709   2.379   0.650  40.236  0.1365 -0.1969  0.4824
11073TIP3    H154710   2.436   0.720  40.203  0.4264 -0.7322 -0.1803
11073TIP3    H254711   2.291   0.674  40.205 -0.0543  0.7266  1.6621
11074TIP3   OH254712   3.577   2.927  12.740  0.6217  0.0151  0.0063
11074TIP3    H154713   3.597   3.020  12.753 -0.2966  0.1599  0.4703
11074TIP3    H254714   3.539   2.900  12.824 -0.7052 -0.3417 -0.6914
11075TIP3   OH254715   2.488   3.242  31.264  0.6243 -0.1592  0.0337
11075TIP3    H154716   2.550   3.184  31.219  0.3260 -0.5269  0.0926
11075TIP3    H254717   2.468   3.310  31.201 -2.8468 -2.7321 -2.0038
11076TIP3   OH254718   0.603   0.408   9.718 -0.2916 -0.2944 -0.5316
11076TIP3    H154719   0.514   0.405   9.752  0.1347  2.5440  1.1519
11076TIP3    H254720   0.592   0.413   9.623 -1.9137 -0.3867 -0.3692
11077TIP3   OH254721   2.430   0.106  27.409  0.1089 -0.6287 -0.2683
11077TIP3    H154722   2.480   0.088  27.329  1.0203  0.2575  0.0890
11077TIP3    H254723   2.446   0.029  27.464  0.3848 -0.7374 -0.4915
11078TIP3   OH254724   2.912   3.610  37.441 -0.2039 -0.3854 -0.4963
11078TIP3    H154725   2.912   3.523  37.401  0.0509  0.6456 -2.9245
11078TIP3    H254726   2.823   3.643  37.425  0.3469  0.6207 -1.6463
11079TIP3   OH254727   1.714   0.171  12.886  0.7978  0.4899  0.0126
11079TIP3    H154728   1.749   0.116  12.816  0.1760 -0.0982  0.1454
11079TIP3    H254729   1.628   0.134  12.904  0.3908  1.4791  0.1584
11080TIP3   OH254730   3.442   2.998  42.289 -0.4917  0.2357  0.2706
11080TIP3    H154731   3.525   3.003  42.241  0.0420 -3.6791  0.5200
11080TIP3    H254732   3.376   3.025  42.225  0.6734  0.3041 -0.9455
11081TIP3   OH254733   1.029   0.908  39.347  0.2039  0.4910  0.7549
11081TIP3    H154734   1.086   0.838  39.380 -0.4422 -0.2038  0.4294
11081TIP3    H254735   0.941   0.873  39.355  0.0172 -0.0573 -2.3391
11082TIP3   OH254736   3.598   0.522  31.656 -0.3251 -0.3574  0.2218
11082TIP3    H154737   3.664   0.488  31.596 -0.3176 -0.0255  0.0430
11082TIP3    H254738   3.648   0.547  31.734  0.1191  2.0319 -0.7415
11083TIP3   OH254739   2.170   1.958  44.378  0.0228  0.1398 -0.2239
11083TIP3    H154740   2.191   1.940  44.470 -2.3553 -1.6097  0.0875
11083TIP3    H254741   2.236   1.910  44.328  1.3269  1.0881  0.5514
11084TIP3   OH254742   1.658   1.427  41.032  0.1188  0.4338 -0.1324
11084TIP3    H154743   1.625   1.478  40.958  0.5270 -0.2848 -0.8241
11084TIP3    H254744   1.585   1.371  41.058 -0.0310  0.7015  0.0264
11085TIP3   OH254745   3.964   3.691  37.982  0.0202  0.0389 -0.0405
11085TIP3    H154746   3.960   3.624  38.049  0.3996 -0.8145 -0.8496
11085TIP3    H254747   3.930   3.648  37.903  0.8424  0.6040 -0.7165
11086TIP3   OH254748   0.131   1.090   5.156  0.2084 -0.0483  0.1556
11086TIP3    H154749   0.124   1.184   5.141 -1.2557 -0.0542  0.6039
11086TIP3    H254750   0.057   1.053   5.108  1.6852 -1.1771 -1.3796
11087TIP3   OH254751   0.233   2.518  13.204  0.1039 -0.4044 -0.5591
11087TIP3    H154752   0.249   2.449  13.268 -0.8285 -1.6471 -1.6102
11087TIP3    H254753   0.156   2.487  13.155 -3.4723  3.4647  1.9320
11088TIP3   OH254754   2.755   4.088  39.196  0.7081 -0.2682 -0.2965
11088TIP3    H154755   2.718   4.118  39.113  0.6583  0.5442  0.0187
11088TIP3    H254756   2.680   4.054  39.245  0.5724  0.2220 -0.1617
11089TIP3   OH254757   0.918   0.137  32.275  0.3157 -0.6649 -0.0385
11089TIP3    H154758   0.959   0.150  32.361  0.0257 -0.8173  0.1254
11089TIP3    H254759   0.876   0.051  32.282  0.4126 -0.7395 -0.3819
11090TIP3   OH254760   1.967   0.109  31.184  0.2701 -0.5092  0.0281
11090TIP3    H154761   1.986   0.145  31.270 -1.5046  0.1967  0.1671
11090TIP3    H254762   2.040   0.049  31.166 -0.1801 -2.0442  2.7852
11091TIP3   OH254763   0.406   2.958  12.138  0.0603 -0.1113  0.1940
11091TIP3    H154764   0.366   2.888  12.085  1.1529 -0.6830  0.1045
11091TIP3    H254765   0.497   2.930  12.150  0.2583  0.8306  0.9802
11092TIP3   OH254766   1.613   2.605  40.591 -0.1681  0.2087 -0.4097
11092TIP3    H154767   1.597   2.699  40.589 -5.0257 -0.3547 -1.6267
11092TIP3    H254768   1.585   2.577  40.678  0.5320 -0.2159 -0.3103
11093TIP3   OH254769   2.950   3.804  40.252 -0.6324  0.7613  0.1512
11093TIP3    H154770   2.950   3.711  40.234 -0.0148  0.9331 -0.8074
11093TIP3    H254771   3.026   3.818  40.309 -0.4902  0.7368 -0.0334
11094TIP3   OH254772   0.797   0.127  28.780  0.6774  0.3041  0.1609
11094TIP3    H154773   0.809   0.147  28.687 -2.3876 -0.3126 -0.4944
11094TIP3    H254774   0.709   0.159  28.799 -0.2665 -2.9216  1.8209
11095TIP3   OH254775   2.270   2.902   6.014  0.4610  0.0065  0.3833
11095TIP3    H154776   2.181   2.892   5.979  1.0592 -1.1136 -0.8692
11095TIP3    H254777   2.270   2.850   6.095  0.5605 -1.8071 -0.7303
11096TIP3   OH254778   1.019   3.350  40.757  0.5050 -0.2325  0.1687
11096TIP3    H154779   1.108   3.354  40.792  0.7803 -0.1001 -0.5291
11096TIP3    H254780   0.971   3.296  40.821  1.1345 -0.4890  0.4413
11097TIP3   OH254781   0.361   1.025  12.389 -0.7066 -0.4914  0.4642
11097TIP3    H154782   0.434   1.037  12.328  0.6663 -0.3928  2.0665
11097TIP3    H254783   0.311   0.951  12.353  0.1170 -0.4905 -0.7180
11098TIP3   OH254784   0.806   1.403  13.458  0.0465 -0.1429  0.2438
11098TIP3    H154785   0.715   1.373  13.454  0.1374 -0.2478 -1.4434
11098TIP3    H254786   0.835   1.379  13.547 -1.7268  0.4384  1.0139
11099TIP3   OH254787   1.954   2.395  15.071  0.3301 -0.4136  0.0372
11099TIP3    H154788   1.901   2.371  14.995  0.1631 -1.5198  0.4827
11099TIP3    H254789   1.899   2.456  15.120  0.8679  1.1776 -1.2551
11100TIP3   OH254790   3.069   1.613  38.199  0.3652 -0.1074 -0.2342
11100TIP3    H154791   3.101   1.528  38.167  2.7674 -0.1365  1.9049
11100TIP3    H254792   3.108   1.622  38.286 -0.1031  3.0625 -0.2374
11101TIP3   OH254793   0.515   3.820   3.007 -0.4847  0.5940 -0.1114
11101TIP3    H154794   0.558   3.749   2.960 -0.0315  1.4509 -1.0520
11101TIP3    H254795   0.580   3.850   3.070 -0.0220  1.2595 -0.8773
11102TIP3   OH254796   3.132   1.243  45.584  0.0847  0.2228 -0.2635
11102TIP3    H154797   3.183   1.264  45.662 -1.1208 -1.5357  1.0808
11102TIP3    H254798   3.133   1.147  45.580 -0.5778  0.2510 -1.9490
11103TIP3   OH254799   3.521   1.796  43.321  0.3954 -0.1751  0.2043
11103TIP3    H154800   3.515   1.701  43.310 -0.6457 -0.1487  0.4430
11103TIP3    H254801   3.480   1.813  43.406 -0.5689  0.5968 -0.3917
11104TIP3   OH254802   1.580   1.624  15.716  0.2982 -0.4469  0.2210
11104TIP3    H154803   1.574   1.676  15.797 -1.9641  2.4380 -1.5963
11104TIP3    H254804   1.529   1.545  15.735 -1.9250  1.0836  1.1124
11105TIP3   OH254805   0.783   3.738  43.499 -0.3517 -0.1189 -0.1329
11105TIP3    H154806   0.691   3.714  43.509 -0.8867  1.6699 -0.5531
11105TIP3    H254807   0.801   3.726  43.406 -0.0579 -0.6923 -0.0135
11106TIP3   OH254808   0.911   3.964  42.778 -0.1321 -0.1573 -0.4367
11106TIP3    H154809   0.938   3.942  42.867  1.6172  1.1519 -0.5843
11106TIP3    H254810   0.883   4.055  42.783 -1.6400 -0.5730 -0.9271
11107TIP3   OH254811   1.960   1.897  46.118 -0.1946  0.2524  0.3761
11107TIP3    H154812   1.950   1.904  46.213  0.5161  0.7259  0.4252
11107TIP3    H254813   1.886   1.945  46.082 -0.0910  0.6559  0.6967
11108TIP3   OH254814   3.955   2.471  44.802  0.1749  0.1124  0.2685
11108TIP3    H154815   4.011   2.536  44.845  0.8706 -1.0821  1.2287
11108TIP3    H254816   4.016   2.405  44.769 -0.5840 -0.5209  0.1139
11109TIP3   OH254817   2.399   0.275   8.217 -0.5635  0.0739  0.1732
11109TIP3    H154818   2.326   0.285   8.278  0.3654 -0.4782  1.4008
11109TIP3    H254819   2.473   0.251   8.271 -0.0512 -1.9668 -1.3228
11110TIP3   OH254820   1.320   1.471  40.972 -0.5133  0.5057 -0.3472
11110TIP3    H154821   1.365   1.428  41.044  0.7758  2.7883  0.3295
11110TIP3    H254822   1.343   1.420  40.895  1.6329  0.4601  0.2773
11111TIP3   OH254823   0.583   2.581  44.696  0.3693  0.3537 -0.8302
11111TIP3    H154824   0.636   2.544  44.625  0.9247  0.4562 -0.4767
11111TIP3    H254825   0.598   2.676  44.691  0.6450  0.3349 -0.3928
11112TIP3   OH254826   0.537   0.383   6.161 -0.1783  0.3356  0.4103
11112TIP3    H154827   0.452   0.402   6.200 -0.3500 -2.0265  1.3447
11112TIP3    H254828   0.595   0.451   6.195 -0.8764 -0.2180  2.9284
11113TIP3   OH254829   2.030   0.220  44.194 -0.1110 -0.0279 -0.1551
11113TIP3    H154830   2.037   0.291  44.257 -1.3263 -0.2196  0.2221
11113TIP3    H254831   2.003   0.262  44.112 -0.8027 -0.0321  0.0624
11114TIP3   OH254832   0.377   1.957   0.214  0.2128  0.3372  0.2662
11114TIP3    H154833   0.366   1.878   0.161  1.5700  1.3561 -1.6596
11114TIP3    H254834   0.299   1.961   0.268 -0.9924 -1.0870 -1.2674
11115TIP3   OH254835   1.289   3.193   6.870 -0.7561 -0.5216  0.7879
11115TIP3    H154836   1.344   3.149   6.806  0.1823  0.1755  1.0950
11115TIP3    H254837   1.325   3.167   6.955 -0.0519  0.9570  0.9771
11116TIP3   OH254838   1.789   0.023  39.466  0.0083  0.6134  0.0256
11116TIP3    H154839   1.756   0.075  39.392  0.7669  0.0413 -0.7388
11116TIP3    H254840   1.781   0.081  39.541  0.3234  1.6564 -0.7193
11117TIP3   OH254841   1.633   3.476   0.347  0.2625 -0.6242 -0.1532
11117TIP3    H154842   1.683   3.407   0.392 -1.5290 -1.4648  0.6553
11117TIP3    H254843   1.541   3.450   0.358 -0.5571  2.2933  0.8716
11118TIP3   OH254844   3.066   2.702  10.021 -0.6668 -0.0017 -0.1037
11118TIP3    H154845   3.070   2.751   9.938  1.6426 -1.5112 -0.9840
11118TIP3    H254846   2.988   2.648  10.013 -0.1399 -0.5892 -1.6213
11119TIP3   OH254847   0.368   2.955  10.230  0.3479  0.3681  0.1555
11119TIP3    H154848   0.416   2.978  10.310  0.1446  1.1572  0.0600
11119TIP3    H254849   0.417   2.995  10.159 -1.5626  3.1283  0.2318
11120TIP3   OH254850   1.092   1.370  33.056 -0.7562  0.3814 -0.1280
11120TIP3    H154851   1.181   1.390  33.027 -0.8683 -1.0783 -1.6101
11120TIP3    H254852   1.044   1.451  33.042  0.0926  0.8539 -0.3891
11121TIP3   OH254853   2.373   3.722  39.290  0.4252 -0.4903 -0.1302
11121TIP3    H154854   2.404   3.633  39.270  0.6844 -0.7121  1.1627
11121TIP3    H254855   2.337   3.715  39.378  0.1782  0.6331 -0.1367
11122TIP3   OH254856   2.872   1.440  34.492 -0.0283  0.4150 -0.4215
11122TIP3    H154857   2.826   1.477  34.567  0.2303  0.1311 -0.1203
11122TIP3    H254858   2.807   1.383  34.450  0.4645 -1.1879  0.8710
11123TIP3   OH254859   3.108   0.684  34.221  0.3215  0.1425 -0.4813
11123TIP3    H154860   3.042   0.742  34.259  0.6807 -0.3236  0.9262
11123TIP3    H254861   3.190   0.714  34.259  0.8132  0.1398 -1.5142
11124TIP3   OH254862   0.942   1.645  33.003  1.3643 -0.3901 -0.0637
11124TIP3    H154863   0.935   1.639  32.908 -0.8267 -1.5359  0.1125
11124TIP3    H254864   0.855   1.624  33.035  2.4502 -1.6798  2.2832
11125TIP3   OH254865   3.945   3.915  10.337 -0.4192  0.3196  0.2617
11125TIP3    H154866   3.899   3.948  10.414 -1.1873  1.0960 -0.5084
11125TIP3    H254867   3.982   3.832  10.364 -0.0203  0.9453  1.7089
11126TIP3   OH254868   1.821   1.038  32.249  0.5009 -0.1938 -0.4652
11126TIP3    H154869   1.851   1.119  32.292  1.3966 -0.2815 -0.8846
11126TIP3    H254870   1.787   1.067  32.165  1.4163 -0.3032 -0.8860
11127TIP3   OH254871   2.503   0.521  38.533  1.1803  0.1906 -0.0006
11127TIP3    H154872   2.428   0.471  38.504  1.1728 -1.0509  1.9572
11127TIP3    H254873   2.466   0.601  38.570  0.7795 -0.4158  0.9567
11128TIP3   OH254874   0.284   0.369  11.721 -0.1110  0.3641  0.4607
11128TIP3    H154875   0.281   0.340  11.630 -1.7925 -0.1049  0.6136
11128TIP3    H254876   0.377   0.382  11.740  0.5097 -2.1130 -0.5232
11129TIP3   OH254877   0.837   1.013  46.598  0.1709 -0.0298  0.4686
11129TIP3    H154878   0.869   1.005  46.509 -2.1717  1.5867 -0.6129
11129TIP3    H254879   0.872   1.096  46.630 -0.0919  0.0477  0.5623
11130TIP3   OH254880   0.415   0.090  38.684 -0.1831  0.4887 -0.0491
11130TIP3    H154881   0.501   0.062  38.716  0.1011  1.6838  0.2908
11130TIP3    H254882   0.387   0.019  38.627  0.5012 -0.4709  0.7545
11131TIP3   OH254883   0.535   0.475  11.076  0.9083  0.8281  0.4224
11131TIP3    H154884   0.625   0.502  11.058  1.5400 -2.1412 -1.4810
11131TIP3    H254885   0.540   0.429  11.160  1.5632 -0.7758 -0.4568
11132TIP3   OH254886   1.290   2.476  20.570 -0.4819  0.4960  0.2678
11132TIP3    H154887   1.349   2.458  20.497 -0.4885  2.5707 -0.3063
11132TIP3    H254888   1.332   2.547  20.619 -2.4476  2.1022 -0.2053
11133TIP3   OH254889   2.999   4.108  39.326 -0.0525 -0.5316 -0.0682
11133TIP3    H154890   2.909   4.120  39.294  0.2464  0.9485 -0.4008
11133TIP3    H254891   3.051   4.097  39.246  0.3359  0.6213  0.0138
11134TIP3   OH254892   3.942   3.587  39.449 -0.4860 -0.1961 -0.0001
11134TIP3    H154893   4.024   3.603  39.496 -1.0496 -1.5432  1.5218
11134TIP3    H254894   3.957   3.623  39.362  1.8049 -0.6051  0.1649
11135TIP3   OH254895   0.853   2.462   6.389  0.1832 -0.1240  0.2747
11135TIP3    H154896   0.857   2.552   6.423 -0.3511 -0.4267  1.1824
11135TIP3    H254897   0.782   2.421   6.439 -0.7907 -0.5450 -1.3738
11136TIP3   OH254898   1.794   0.337  10.710  0.2741  0.0375  0.3310
11136TIP3    H154899   1.863   0.276  10.684 -0.3645  0.0633 -1.6778
11136TIP3    H254900   1.828   0.383  10.786  2.2694 -0.2949 -0.3092
11137TIP3   OH254901   0.563   2.128   5.003 -0.6074 -0.1444  0.4062
11137TIP3    H154902   0.528   2.083   4.926  1.6890  0.9521 -1.4058
11137TIP3    H254903   0.626   2.190   4.967 -1.1575  2.1141  3.0468
11138TIP3   OH254904   2.342   3.479  32.891  0.4383  0.1051 -0.2157
11138TIP3    H154905   2.271   3.414  32.892  1.2278 -0.7673 -0.1197
11138TIP3    H254906   2.410   3.441  32.947  2.2331 -0.5179 -2.6398
11139TIP3   OH254907   0.238   0.001  29.462  0.2404  0.5104  0.0324
11139TIP3    H154908   0.250  -0.092  29.443  2.3247  0.5446  0.9148
11139TIP3    H254909   0.257   0.009  29.556 -1.5622  1.5902  0.3447
11140TIP3   OH254910   0.375   3.520   0.573 -0.0005  0.3349  0.0245
11140TIP3    H154911   0.458   3.475   0.558  0.1136  0.5429  0.0186
11140TIP3    H254912   0.378   3.595   0.513 -0.0747  0.4936  0.2200
11141TIP3   OH254913   2.693   3.398  36.003 -0.1675 -0.2437  0.1998
11141TIP3    H154914   2.666   3.321  36.053 -0.7440  0.2082  0.6087
11141TIP3    H254915   2.771   3.430  36.048 -0.8061  0.2837  0.9568
11142TIP3   OH254916   0.820   0.762   0.162  0.0236 -0.0970 -0.9043
11142TIP3    H154917   0.851   0.846   0.129  1.5242 -0.3062 -0.1388
11142TIP3    H254918   0.841   0.764   0.255 -1.6639 -0.5796 -0.4916
11143TIP3   OH254919   2.483   1.710  46.373  0.6284 -0.2247  0.1336
11143TIP3    H154920   2.396   1.750  46.382  0.3278 -0.9710  0.6026
11143TIP3    H254921   2.465   1.618  46.356  1.3428 -0.7663  2.0991
11144TIP3   OH254922   2.710   1.408   9.099 -0.5342 -0.2178 -0.0606
11144TIP3    H154923   2.684   1.499   9.108 -1.8219 -0.6434  0.9440
11144TIP3    H254924   2.744   1.401   9.010 -1.4205  1.0022 -0.5270
11145TIP3   OH254925   1.611   0.498  33.889 -0.0504 -0.0633  0.0288
11145TIP3    H154926   1.666   0.425  33.857  1.3107  0.3405  1.3242
11145TIP3    H254927   1.642   0.574  33.840  1.2477  0.3393  1.3985
11146TIP3   OH254928   3.210   1.799   7.196  0.2114 -0.2565  0.4780
11146TIP3    H154929   3.234   1.855   7.269  1.3311 -0.3566  0.2118
11146TIP3    H254930   3.115   1.801   7.194  0.2043  0.8220  1.0986
11147TIP3   OH254931   3.033   2.759  12.562 -0.6599  0.0999  0.3222
11147TIP3    H154932   2.994   2.674  12.542 -1.4497  0.5134  0.0563
11147TIP3    H254933   3.120   2.739  12.596 -0.5306 -0.7702 -0.4979
11148TIP3   OH254934   3.867   3.725   0.438 -0.5719 -0.0208  0.1554
11148TIP3    H154935   3.934   3.728   0.506  0.1376  0.7391 -0.5556
11148TIP3    H254936   3.808   3.797   0.460 -1.3687 -0.8763  0.9555
11149TIP3   OH254937   2.342   3.916  10.744 -0.1176 -0.0447  0.2849
11149TIP3    H154938   2.293   3.941  10.822  0.4488  3.2464 -0.2517
11149TIP3    H254939   2.418   3.868  10.777 -0.6484 -0.0084  1.5978
11150TIP3   OH254940   0.082   3.654  43.416 -0.0453 -0.3936  0.9198
11150TIP3    H154941   0.106   3.561  43.414 -0.2925 -0.4848  1.7387
11150TIP3    H254942   0.109   3.684  43.503 -1.1425 -0.0219  1.1434
11151TIP3   OH254943   0.850   4.048  33.504  0.3099 -0.0901  0.1668
11151TIP3    H154944   0.813   4.018  33.587 -0.9326 -2.2051 -1.0805
11151TIP3    H254945   0.888   4.133  33.525  1.0112 -1.0199  3.1343
11152TIP3   OH254946   3.866   4.089  40.576  1.0745  0.2003 -0.2335
11152TIP3    H154947   3.781   4.098  40.619  0.6362  1.0920 -1.2713
11152TIP3    H254948   3.849   4.035  40.499  1.7358 -0.8109  0.2903
11153TIP3   OH254949   2.182   2.813  13.941  0.3323 -0.6121 -0.1155
11153TIP3    H154950   2.239   2.864  13.884 -1.2701  0.4955 -0.8093
11153TIP3    H254951   2.118   2.773  13.882 -0.0770 -1.2235  0.7113
11154TIP3   OH254952   2.748   0.606  38.403  0.7675  0.4907 -0.0727
11154TIP3    H154953   2.758   0.547  38.328 -0.4006  0.7148 -0.4219
11154TIP3    H254954   2.660   0.589  38.435  0.8634  1.1876  0.5785
11155TIP3   OH254955   1.924   1.293  16.225  0.5511 -0.0794 -0.3880
11155TIP3    H154956   2.008   1.302  16.271  0.6570 -0.1322 -0.5721
11155TIP3    H254957   1.914   1.374  16.176 -0.2077  0.5693  0.7907
11156TIP3   OH254958   1.361   0.265  46.786  0.6519  0.5457  0.3471
11156TIP3    H154959   1.376   0.177  46.820 -0.2075 -0.2882 -1.3468
11156TIP3    H254960   1.432   0.317  46.824  1.1415 -0.8336  1.4347
11157TIP3   OH254961   3.188   0.984  42.858 -0.4673 -0.0556  0.0073
11157TIP3    H154962   3.212   0.932  42.781 -1.1555 -1.2439  0.5644
11157TIP3    H254963   3.162   0.919  42.923  0.4394  0.9196  1.3740
11158TIP3   OH254964   3.952   1.152   0.345  0.4215 -0.4169  0.2285
11158TIP3    H154965   3.880   1.164   0.407  0.8931 -1.4467  1.0102
11158TIP3    H254966   3.929   1.071   0.298  0.4707 -0.0821 -0.3829
11159TIP3   OH254967   3.882   0.114  33.025  0.1767 -0.2983  0.4808
11159TIP3    H154968   3.814   0.148  33.084  0.4293 -1.0329  1.2198
11159TIP3    H254969   3.948   0.183  33.023  1.0301 -0.9817  2.5429
11160TIP3   OH254970   2.037   1.375  14.894 -0.3381  0.5601 -0.8487
11160TIP3    H154971   2.110   1.436  14.898  0.5606 -0.4915 -0.7113
11160TIP3    H254972   1.959   1.430  14.895  0.4104  1.6500  0.4695
11161TIP3   OH254973   2.615   1.922  40.079 -0.7994 -0.4035 -0.2347
11161TIP3    H154974   2.679   1.903  40.148 -0.5564  0.7837 -0.1156
11161TIP3    H254975   2.668   1.938  40.001 -0.9937 -0.3512 -0.3571
11162TIP3   OH254976   0.263   1.365   4.192  0.0976 -0.1364 -0.1383
11162TIP3    H154977   0.305   1.295   4.142  1.1714  0.7844 -0.5803
11162TIP3    H254978   0.189   1.393   4.138 -0.8961 -1.5206  0.4681
11163TIP3   OH254979   0.503   3.601   8.659  0.1073  0.0223  0.1179
11163TIP3    H154980   0.451   3.567   8.732 -0.1579  0.0160 -0.0729
11163TIP3    H254981   0.438   3.624   8.592  0.3195  0.4140  0.0432
11164TIP3   OH254982   3.221   1.210  13.171  0.2415 -0.0124 -0.5953
11164TIP3    H154983   3.167   1.169  13.238 -0.1679  0.6794 -0.4940
11164TIP3    H254984   3.310   1.178  13.188  0.0914 -0.0522  0.1144
11165TIP3   OH254985   0.920   0.840  36.549 -0.4815  0.4443 -0.1435
11165TIP3    H154986   0.949   0.863  36.637 -0.4079  0.3044 -0.1297
11165TIP3    H254987   0.888   0.750  36.556 -1.9715  0.9752  0.0816
11166TIP3   OH254988   1.058   1.430   4.720 -0.5048 -0.2437  0.3180
11166TIP3    H154989   0.972   1.406   4.686 -0.6297  0.4611  0.1271
11166TIP3    H254990   1.040   1.489   4.793 -0.2278 -1.3858  1.3663
11167TIP3   OH254991   0.106   1.121  37.819  0.0695 -0.0920 -0.4734
11167TIP3    H154992   0.138   1.105  37.730 -0.0754  0.9316 -0.7244
11167TIP3    H254993   0.021   1.163  37.806 -0.0009 -0.0313  0.1488
11168TIP3   OH254994   2.173   2.803  42.658  0.0576  0.4835  0.1071
11168TIP3    H154995   2.256   2.809  42.706  0.0617  0.5106  0.0968
11168TIP3    H254996   2.112   2.855  42.711  0.0157  0.3583  0.1852
11169TIP3   OH254997   0.005   2.226  11.494  0.4888  0.1237 -0.0688
11169TIP3    H154998  -0.055   2.227  11.420 -1.4771 -2.5868  1.3194
11169TIP3    H254999   0.092   2.238  11.455 -0.6068  0.5174 -2.5579
11170TIP3   OH255000   3.291   1.182  35.727 -0.4261 -0.5358  0.0643
11170TIP3    H155001   3.261   1.152  35.813  0.0981  0.6303  0.6815
11170TIP3    H255002   3.216   1.168  35.669 -1.1246 -0.4214  0.9292
11171TIP3   OH255003   0.685   2.896   1.909  0.2177  0.2984 -0.3177
11171TIP3    H155004   0.693   2.963   1.842  2.6614 -0.9887 -1.4286
11171TIP3    H255005   0.645   2.941   1.983  0.6626  2.6532 -1.4192
11172TIP3   OH255006   1.599   0.509  33.167  0.0037 -0.7102 -0.0743
11172TIP3    H155007   1.588   0.501  33.261 -0.3776 -0.0901 -0.0622
11172TIP3    H255008   1.527   0.458  33.130 -0.6619  0.1486 -0.0108
11173TIP3   OH255009   3.565   1.572  31.928 -0.3360  0.2962  0.0537
11173TIP3    H155010   3.514   1.524  31.994 -0.2959 -0.7694 -0.6626
11173TIP3    H255011   3.527   1.544  31.845  0.2798  0.8472 -0.4104
11174TIP3   OH255012   1.165   2.618  14.456  0.1721  0.3306  0.3271
11174TIP3    H155013   1.209   2.553  14.400  1.3422  1.3169  0.0512
11174TIP3    H255014   1.236   2.657  14.507 -0.5889  1.0262  0.8799
11175TIP3   OH255015   3.840   2.902   1.626 -0.4594 -0.2412  0.2536
11175TIP3    H155016   3.820   2.839   1.695 -1.9157  1.0252  1.0448
11175TIP3    H255017   3.771   2.968   1.632 -0.1245  0.3969 -1.8332
11176TIP3   OH255018   3.979   2.163   6.764  0.0522  0.1528  0.3525
11176TIP3    H155019   4.003   2.124   6.848  1.0529  0.7109  0.3425
11176TIP3    H255020   4.040   2.125   6.701 -0.4722 -0.0068 -0.0663
11177TIP3   OH255021   1.249   1.629  32.249 -0.0069  0.1192  0.1995
11177TIP3    H155022   1.215   1.643  32.338  1.2279  0.3390  0.6538
11177TIP3    H255023   1.249   1.716  32.210  1.5459  0.3929  0.7678
11178TIP3   OH255024   0.808   3.814  42.581  0.0656 -0.0098 -0.0027
11178TIP3    H155025   0.788   3.730  42.622 -1.1848 -0.0340 -0.6206
11178TIP3    H255026   0.820   3.875  42.654  0.4721 -0.6103  0.4368
11179TIP3   OH255027   2.440   0.366  15.504 -0.9258 -0.0728  0.6645
11179TIP3    H155028   2.532   0.365  15.529 -0.7291 -1.9668 -0.0042
11179TIP3    H255029   2.417   0.274  15.490 -2.7536  0.4011  0.2158
11180TIP3   OH255030   3.500   3.206  39.487  0.4777 -0.0240  0.4329
11180TIP3    H155031   3.540   3.287  39.520  1.2939 -0.5341  0.7190
11180TIP3    H255032   3.559   3.176  39.417 -0.8041  0.6048 -0.9731
11181TIP3   OH255033   1.220   2.706  38.288 -0.4119 -0.3714 -0.2807
11181TIP3    H155034   1.158   2.765  38.330  0.7093  0.3813  0.4046
11181TIP3    H255035   1.184   2.619  38.302 -0.5165 -0.0835  1.5617
11182TIP3   OH255036   3.448   2.872  37.248 -0.3274 -0.6271 -0.2312
11182TIP3    H155037   3.409   2.945  37.296 -1.0669  0.0099 -1.7268
11182TIP3    H255038   3.478   2.811  37.316  1.7504  1.7500  1.1249
11183TIP3   OH255039   4.015   3.191   1.686 -0.8861 -0.2545 -0.0035
11183TIP3    H155040   4.002   3.099   1.662 -0.4734 -0.4156  0.3542
11183TIP3    H255041   4.098   3.191   1.735 -1.1925  0.2163  0.5227
11184TIP3   OH255042   3.098   3.263  30.983  0.1682  0.8072  0.2054
11184TIP3    H155043   3.101   3.184  31.038 -0.5856  0.0518 -0.7992
11184TIP3    H255044   3.027   3.246  30.921 -0.4209  2.5494  0.3541
11185TIP3   OH255045   1.973   0.077  41.071 -0.6988 -0.4571  0.0403
11185TIP3    H155046   2.064   0.055  41.052 -0.5700 -0.8046  0.9703
11185TIP3    H255047   1.932  -0.008  41.090 -1.1052 -0.2575  0.0697
11186TIP3   OH255048   3.953   1.268   4.242  0.5024  0.4389 -0.1131
11186TIP3    H155049   4.020   1.202   4.226  0.2456 -0.0928  0.8979
11186TIP3    H255050   3.878   1.238   4.191  0.6652  0.4208 -0.3452
11187TIP3   OH255051   4.085   3.562   2.535 -0.1348 -0.5904 -0.0865
11187TIP3    H155052   4.111   3.620   2.606 -1.3670  1.4776 -1.2320
11187TIP3    H255053   4.151   3.576   2.467  0.9760 -2.4763  0.5320
11188TIP3   OH255054   2.596   1.491  40.979  0.3099 -0.0003 -0.0999
11188TIP3    H155055   2.655   1.416  40.971  0.5717  0.2279 -0.3068
11188TIP3    H255056   2.650   1.560  41.019 -0.3300 -0.3891  1.5251
11189TIP3   OH255057   2.503   3.444   6.618  0.4359 -0.4584 -0.3568
11189TIP3    H155058   2.475   3.418   6.530 -0.4358  0.6696 -0.4416
11189TIP3    H255059   2.563   3.375   6.646 -2.3785 -3.0068 -0.1775
11190TIP3   OH255060   2.193   2.655  16.117  0.2976 -0.0621 -0.1781
11190TIP3    H155061   2.198   2.606  16.199 -1.9535 -2.3934 -1.3005
11190TIP3    H255062   2.277   2.637  16.073  1.3225  0.8271  1.3248
11191TIP3   OH255063   3.259   0.294  41.185  0.0401 -0.3686 -0.1358
11191TIP3    H155064   3.340   0.243  41.186 -0.6189 -1.4573  0.7321
11191TIP3    H255065   3.264   0.349  41.263  0.4691  0.4686 -0.7347
11192TIP3   OH255066   3.991   1.912   9.924  0.3607  0.6732  0.2699
11192TIP3    H155067   3.945   1.966   9.988 -1.6611 -0.4094 -0.2005
11192TIP3    H255068   4.060   1.869   9.975 -1.6079 -0.6903  1.9484
11193TIP3   OH255069   2.436   3.993  38.697 -0.1739  0.8640 -0.4812
11193TIP3    H155070   2.510   4.002  38.638  0.4359 -0.9327 -0.0847
11193TIP3    H255071   2.373   3.940  38.648  0.0278 -0.0063  0.1627
11194TIP3   OH255072   3.697   0.944  10.305  0.8623 -0.3274  0.2544
11194TIP3    H155073   3.673   1.037  10.309  0.6415 -0.2565 -1.7144
11194TIP3    H255074   3.747   0.929  10.385  2.4854  1.9428 -0.2381
11195TIP3   OH255075   3.141   3.518  25.518 -0.4648 -0.3376 -0.1663
11195TIP3    H155076   3.085   3.442  25.530 -1.7964  0.4805 -0.8574
11195TIP3    H255077   3.147   3.528  25.423 -0.5174  0.5641 -0.0823
11196TIP3   OH255078   0.867   0.785  45.604  0.2932  0.4618 -1.1032
11196TIP3    H155079   0.861   0.707  45.659  1.2088  1.2345  0.1590
11196TIP3    H255080   0.925   0.760  45.532 -0.0530 -0.2436 -1.1472
11197TIP3   OH255081   3.586   3.931  45.235  0.0804 -0.3029 -0.3361
11197TIP3    H155082   3.524   3.862  45.209  0.3663 -0.5912 -0.2591
11197TIP3    H255083   3.672   3.889  45.230  0.2913  0.1588 -0.6541
11198TIP3   OH255084   2.722   2.254   1.794 -0.5353 -0.2034 -0.0387
11198TIP3    H155085   2.682   2.169   1.812  0.6719 -0.7211  0.2906
11198TIP3    H255086   2.663   2.295   1.730 -0.2663 -1.9906 -1.5279
11199TIP3   OH255087   0.463   1.722  47.571  0.2155  0.3781  0.0771
11199TIP3    H155088   0.540   1.726  47.515 -0.0191 -0.3720 -0.3116
11199TIP3    H255089   0.397   1.676  47.519  0.2614 -1.1140  1.2469
11200TIP3   OH255090   0.402   3.894  46.495  0.0256  0.1883  0.2154
11200TIP3    H155091   0.414   3.806  46.459  1.2527  0.0518  0.9173
11200TIP3    H255092   0.347   3.881  46.572  1.8333 -0.2800  1.4915
11201TIP3   OH255093   0.416   0.540  36.234 -0.3811 -0.0608  0.1079
11201TIP3    H155094   0.453   0.497  36.158  0.2274  1.3864 -0.4637
11201TIP3    H255095   0.464   0.623  36.240 -0.9878  0.2250  1.5740
11202TIP3   OH255096   0.914   2.986  37.216  0.5590 -0.5604 -0.3789
11202TIP3    H155097   0.912   3.081  37.222  0.1319 -0.6299  0.7080
11202TIP3    H255098   0.906   2.968  37.122  2.2309  0.5043 -0.7669
11203TIP3   OH255099   3.290   2.136  13.440  0.4221  0.3698  0.6919
11203TIP3    H155100   3.332   2.197  13.499 -0.5355 -0.8521  2.7416
11203TIP3    H255101   3.362   2.098  13.389  1.6128 -0.1964  2.6901
11204TIP3   OH255102   3.182   0.265  30.326  0.9992  0.0751 -1.0520
11204TIP3    H155103   3.128   0.189  30.345  0.8199  0.4769  0.0902
11204TIP3    H255104   3.266   0.246  30.367  0.7357  0.7737 -0.1547
11205TIP3   OH255105   3.677   1.623  33.713 -0.1853 -0.5420  0.5349
11205TIP3    H155106   3.650   1.632  33.621  2.1089 -0.4872 -0.1856
11205TIP3    H255107   3.675   1.529  33.729  1.5590 -0.7523 -0.3088
11206TIP3   OH255108   0.727   3.540   2.654 -0.3099  0.0506  0.0945
11206TIP3    H155109   0.799   3.599   2.633  0.0235 -0.2282  0.4493
11206TIP3    H255110   0.688   3.519   2.569 -0.4374  0.7826 -0.0321
11207TIP3   OH255111   2.930   1.922  22.210  0.5449  0.3123 -0.0951
11207TIP3    H155112   2.906   1.938  22.119  0.3183 -0.7918 -0.2457
11207TIP3    H255113   2.888   1.993  22.259  2.2503  2.0347 -1.0240
11208TIP3   OH255114   1.836   3.360  27.586 -0.4792  0.0271 -0.4202
11208TIP3    H155115   1.745   3.351  27.558 -0.7077  0.6489  0.1105
11208TIP3    H255116   1.851   3.284  27.642 -1.4394  1.1497  1.4771
11209TIP3   OH255117   0.922   1.576   6.042 -0.3794 -0.1523  0.7803
11209TIP3    H155118   0.906   1.589   5.949 -0.7162  0.6425  0.9461
11209TIP3    H255119   0.968   1.492   6.047 -1.0196 -0.5616 -0.0354
11210TIP3   OH255120   3.596   0.373  40.159  0.0082 -0.5318  0.1731
11210TIP3    H155121   3.629   0.317  40.088  0.2031 -1.1699  0.7593
11210TIP3    H255122   3.591   0.460  40.120 -1.0343 -1.0801 -0.9831
11211TIP3   OH255123   0.450   3.688   3.560 -0.0928  0.5322 -0.3307
11211TIP3    H155124   0.376   3.709   3.504  0.4422  0.4981 -1.0726
11211TIP3    H255125   0.462   3.593   3.549  0.2145  0.5792 -0.4089
11212TIP3   OH255126   0.604   1.486  44.265 -0.7944  0.1134  0.0228
11212TIP3    H155127   0.543   1.509  44.194 -1.4633  3.2683  1.4422
11212TIP3    H255128   0.688   1.474  44.222 -1.4946  0.3397 -1.4654
11213TIP3   OH255129   2.314   2.335  41.599 -0.3533  0.1423 -0.3984
11213TIP3    H155130   2.350   2.333  41.510  0.6981  1.7018 -0.0469
11213TIP3    H255131   2.389   2.317  41.655 -0.4073  1.9346  0.2901
11214TIP3   OH255132   0.678   0.486   3.679 -0.4835 -0.2722 -0.1338
11214TIP3    H155133   0.649   0.395   3.673 -0.3940 -0.3216  0.1535
11214TIP3    H255134   0.773   0.481   3.670 -0.5103 -0.1712 -0.4777
11215TIP3   OH255135   4.066   1.630  44.902 -1.0274  0.7296  0.5937
11215TIP3    H155136   4.116   1.567  44.850 -0.4646  0.4553  1.4405
11215TIP3    H255137   4.119   1.710  44.900 -2.1423  1.4864 -1.1795
11216TIP3   OH255138   3.314   1.037  44.698 -0.0599 -0.3639 -0.3283
11216TIP3    H155139   3.364   1.108  44.739  1.8380 -0.8475 -1.6737
11216TIP3    H255140   3.366   0.958  44.715 -0.9399 -1.0791 -0.8447
11217TIP3   OH255141   0.504   0.020   3.530 -0.6578  0.1729 -0.0478
11217TIP3    H155142   0.549  -0.047   3.582  0.0951  1.7690  1.4347
11217TIP3    H255143   0.417  -0.017   3.513 -0.2318 -1.2118  0.6434
11218TIP3   OH255144   3.485   0.083  43.173 -0.3157 -0.4553  0.3465
11218TIP3    H155145   3.524   0.095  43.260 -0.7624  1.8405  0.2981
11218TIP3    H255146   3.440  -0.001  43.178  0.2016 -0.6681  2.1246
11219TIP3   OH255147   0.346   0.569  38.078  0.1488 -0.1086 -0.0284
11219TIP3    H155148   0.427   0.521  38.094  1.7172  1.8764 -1.4520
11219TIP3    H255149   0.356   0.651  38.127 -0.4342  0.6936 -1.2030
11220TIP3   OH255150   3.602   1.684  42.001  0.7962  0.6588 -0.1413
11220TIP3    H155151   3.560   1.607  42.038  1.0758  0.6466  0.1573
11220TIP3    H255152   3.681   1.696  42.054  0.5166  1.4267  0.1081
11221TIP3   OH255153   0.287   3.675  35.955 -0.4846  0.5163 -0.5696
11221TIP3    H155154   0.205   3.642  35.992 -0.9214  1.8575 -0.2496
11221TIP3    H255155   0.317   3.740  36.019  2.8327 -2.4416  1.2726
11222TIP3   OH255156   1.746   2.830  31.914 -0.1929 -0.1715  0.7633
11222TIP3    H155157   1.788   2.851  31.830  0.6115 -1.0808  0.9162
11222TIP3    H255158   1.806   2.864  31.980 -1.4711  1.7455  1.0004
11223TIP3   OH255159   3.868   2.284   5.244  0.3555  0.5575 -0.2744
11223TIP3    H155160   3.850   2.223   5.172  0.7823  0.7234 -0.5312
11223TIP3    H255161   3.874   2.229   5.322  1.0472  0.2267 -0.5491
11224TIP3   OH255162   0.012   2.688  32.407 -0.0106 -0.3392  0.2465
11224TIP3    H155163   0.046   2.776  32.425  0.9575 -0.6343 -0.1018
11224TIP3    H255164  -0.012   2.653  32.493 -1.3065  0.6119  0.3058
11225TIP3   OH255165   3.584   3.473  33.212 -0.2235  0.0226 -0.4024
11225TIP3    H155166   3.626   3.558  33.228  1.7894 -1.0401  0.2830
11225TIP3    H255167   3.512   3.470  33.275  0.3791  0.7641  0.3491
11226TIP3   OH255168   1.912   2.984  39.671 -0.5500  0.0275  0.2701
11226TIP3    H155169   1.940   2.911  39.726 -1.6594  0.1257  0.9937
11226TIP3    H255170   1.981   3.050  39.683 -0.1778 -0.4126  0.6105
11227TIP3   OH255171   3.854   1.321  35.399  0.0689 -0.4571  0.2718
11227TIP3    H155172   3.882   1.280  35.317  1.9650  0.2833  0.4926
11227TIP3    H255173   3.797   1.392  35.371 -1.1299 -1.5747 -0.2507
11228TIP3   OH255174   1.407   3.390  10.802 -0.2401  0.2116  0.4436
11228TIP3    H155175   1.382   3.399  10.894 -0.8405 -1.7492  0.5227
11228TIP3    H255176   1.324   3.386  10.755  0.0521  0.5147 -0.1008
11229TIP3   OH255177   3.544   2.714   6.163 -0.8775  0.3038 -0.0948
11229TIP3    H155178   3.575   2.691   6.250  0.5634 -0.5298 -0.7748
11229TIP3    H255179   3.587   2.798   6.144 -1.5996  0.7427  0.1849
11230TIP3   OH255180   2.614   1.238  37.548 -0.2996  0.4765 -0.4422
11230TIP3    H155181   2.632   1.193  37.465 -1.2637 -0.8849  0.0549
11230TIP3    H255182   2.529   1.204  37.576 -0.1911  1.2420  0.8997
11231TIP3   OH255183   1.944   2.969   4.860  0.0443 -0.2397 -0.2255
11231TIP3    H155184   1.977   3.034   4.922 -0.2936  0.4344 -0.7366
11231TIP3    H255185   1.999   2.892   4.875  0.7763  0.3181  0.0603
11232TIP3   OH255186   2.590   0.978   4.468 -0.2223 -0.1393  0.3429
11232TIP3    H155187   2.560   0.913   4.531  1.2352 -0.9953  0.2015
11232TIP3    H255188   2.539   0.960   4.389 -1.2914  0.2485  0.9231
11233TIP3   OH255189   0.884   3.731  41.223  0.0293 -0.3130 -0.5582
11233TIP3    H155190   0.911   3.644  41.192  1.9693 -0.2389  0.7121
11233TIP3    H255191   0.826   3.713  41.296  2.1914 -0.6703  1.1838
11234TIP3   OH255192   2.456   1.883  38.469  0.6934  0.4438 -0.1127
11234TIP3    H155193   2.483   1.792  38.463 -0.0163  0.2188 -0.0235
11234TIP3    H255194   2.458   1.903  38.563 -0.1271  0.2074 -0.0369
11235TIP3   OH255195   0.517   1.945  41.483  0.0632  0.4113 -0.0250
11235TIP3    H155196   0.594   1.992  41.514 -0.3000  0.9333  0.0963
11235TIP3    H255197   0.489   1.993  41.405  0.0202  0.0610 -0.2325
11236TIP3   OH255198   1.871   2.641   8.964 -0.3289  0.2719 -0.3831
11236TIP3    H155199   1.826   2.682   9.037  1.1875  0.8577  0.2723
11236TIP3    H255200   1.843   2.692   8.887  1.4032  2.6075  0.3836
11237TIP3   OH255201   0.332   2.450  38.368  0.1479  0.4874  0.3009
11237TIP3    H155202   0.326   2.419  38.277 -0.0459 -1.1688  0.8375
11237TIP3    H255203   0.250   2.498  38.382 -0.0243  0.3698 -0.2680
11238TIP3   OH255204   0.129   1.486   3.535  0.7749 -0.1271  0.8147
11238TIP3    H155205   0.071   1.562   3.541 -0.2178 -0.8597  0.6633
11238TIP3    H255206   0.157   1.484   3.443  1.4513  0.5080  0.9946
11239TIP3   OH255207   0.042   1.443  37.007  1.0029 -0.1908  0.0659
11239TIP3    H155208   0.033   1.499  37.085  2.3805  1.4138 -0.8669
11239TIP3    H255209   0.031   1.503  36.933 -0.7100 -1.7583 -1.0237
11240TIP3   OH255210   2.558   1.067  46.157  0.1101 -0.6671  0.3660
11240TIP3    H155211   2.625   0.999  46.169  0.7293 -0.1117  0.0862
11240TIP3    H255212   2.579   1.133  46.223 -1.7395 -1.6621  2.0959
11241TIP3   OH255213   0.174   3.806  28.467 -0.1892  0.3370 -0.2365
11241TIP3    H155214   0.204   3.822  28.378 -0.1359 -2.3417 -0.7819
11241TIP3    H255215   0.080   3.826  28.465 -0.7340 -1.9184 -1.6396
11242TIP3   OH255216   0.303   2.131  17.329  0.0479  0.4094  0.1278
11242TIP3    H155217   0.255   2.211  17.351  1.5578  1.5192 -0.4138
11242TIP3    H255218   0.359   2.115  17.405 -0.2535 -0.1543  0.2372
11243TIP3   OH255219   3.554   3.357  32.956  0.3586  0.4710  0.5122
11243TIP3    H155220   3.562   3.408  33.037 -0.2545 -0.9375  1.5057
11243TIP3    H255221   3.477   3.393  32.912  0.1393  0.6571  1.0342
11244TIP3   OH255222   1.549   2.099  38.991 -0.6426 -0.4188  0.5173
11244TIP3    H155223   1.600   2.033  38.945 -1.6732 -0.8950  0.0288
11244TIP3    H255224   1.463   2.097  38.949 -0.2429  2.4250 -0.6758
11245TIP3   OH255225   2.852   2.868   6.212  0.0540  0.8321 -0.2601
11245TIP3    H155226   2.840   2.960   6.236  1.2244  0.8610  0.3071
11245TIP3    H255227   2.945   2.861   6.189 -0.2079 -0.0365 -1.1026
11246TIP3   OH255228   3.236   2.681  14.896 -0.0962  0.4310 -0.0187
11246TIP3    H155229   3.252   2.766  14.937 -2.2797  0.5754  0.6776
11246TIP3    H255230   3.179   2.635  14.957 -1.6598 -0.2139 -1.8569
11247TIP3   OH255231   1.923   2.728  40.703 -0.1115  0.2277  0.0970
11247TIP3    H155232   1.982   2.663  40.742 -0.8166  0.6340  1.9631
11247TIP3    H255233   1.836   2.695  40.721 -0.5661  2.5475  2.8772
11248TIP3   OH255234   2.399   2.846  42.033  0.3381 -0.0618 -0.4393
11248TIP3    H155235   2.464   2.837  42.103  0.9060  0.5403 -0.8764
11248TIP3    H255236   2.430   2.787  41.964 -0.2508 -0.6970 -0.1736
11249TIP3   OH255237   3.140   3.778   6.818  0.0022  0.0400  0.2290
11249TIP3    H155238   3.073   3.846   6.811 -0.0811 -0.1238 -0.7849
11249TIP3    H255239   3.175   3.770   6.729  0.7880 -0.4612  0.5729
11250TIP3   OH255240   2.133   2.903   7.502 -0.3429  0.7826  0.6894
11250TIP3    H155241   2.197   2.910   7.432 -0.4324  0.0660  0.5378
11250TIP3    H255242   2.093   2.990   7.505  0.2433  1.0674  0.4151
11251TIP3   OH255243   2.571   2.703   7.352  0.7677 -0.0069 -0.2165
11251TIP3    H155244   2.623   2.688   7.273  0.1513 -1.2390 -0.4174
11251TIP3    H255245   2.625   2.671   7.424  1.2130  0.8497 -0.1638
11252TIP3   OH255246   3.151   2.128   3.411  0.0262  0.1282  0.4169
11252TIP3    H155247   3.201   2.105   3.489 -0.3997 -1.3011  0.2902
11252TIP3    H255248   3.066   2.085   3.424  0.2534 -0.8660 -1.2283
11253TIP3   OH255249   3.198   2.273  44.621 -0.1641  0.7417 -0.6436
11253TIP3    H155250   3.264   2.225  44.570  0.7010 -1.3629  2.2222
11253TIP3    H255251   3.244   2.305  44.698 -2.1590  0.4752  0.7511
11254TIP3   OH255252   1.155   3.441  44.559  0.0587  0.1152  0.0984
11254TIP3    H155253   1.209   3.362  44.557 -0.8503 -0.5292 -2.3595
11254TIP3    H255254   1.206   3.507  44.513  0.1618  0.5337  0.7938
11255TIP3   OH255255   0.128   0.148  43.467 -0.0302 -0.2126  0.1257
11255TIP3    H155256   0.162   0.059  43.474  2.4717  0.4954 -1.7301
11255TIP3    H255257   0.054   0.141  43.407 -1.9402 -1.4111  2.4021
11256TIP3   OH255258   2.705   1.345  10.570  0.6716  0.0044 -0.0486
11256TIP3    H155259   2.728   1.435  10.546  0.5762 -0.4234 -1.8950
11256TIP3    H255260   2.760   1.290  10.514  1.9921 -1.1613  2.2355
11257TIP3   OH255261   3.963   2.101  46.094 -0.5673 -0.1240 -0.1614
11257TIP3    H155262   3.876   2.078  46.127  0.3604 -2.0552  1.1396
11257TIP3    H255263   3.964   2.068  46.004 -0.0408 -3.6216  0.9549
11258TIP3   OH255264   2.522   0.904  45.363 -0.3909 -0.8658 -0.1088
11258TIP3    H155265   2.466   0.933  45.435  1.7939  4.1835 -0.0654
11258TIP3    H255266   2.606   0.883  45.405 -0.1735 -1.5245 -0.8428
11259TIP3   OH255267   1.325   1.476  47.018 -0.2654  0.2878 -0.4157
11259TIP3    H155268   1.264   1.404  47.037 -1.7954  0.9654 -2.3492
11259TIP3    H255269   1.278   1.531  46.956  1.7499  1.7474 -0.7534
11260TIP3   OH255270   1.586   1.648  16.395 -0.1925 -0.4656 -0.5950
11260TIP3    H155271   1.620   1.561  16.415  0.9254  0.3714  1.3326
11260TIP3    H255272   1.562   1.685  16.479 -1.4330  0.8052 -1.4620
11261TIP3   OH255273   2.952   2.713   2.109 -0.3631  0.2082 -0.0224
11261TIP3    H155274   3.030   2.730   2.057  0.2416 -1.1314  0.4155
11261TIP3    H255275   2.953   2.619   2.126 -1.9497  0.1903  0.1961
11262TIP3   OH255276   0.617   2.722   7.612  0.2270 -0.1589  0.5824
11262TIP3    H155277   0.542   2.666   7.630 -1.0816  0.8526 -1.4484
11262TIP3    H255278   0.678   2.666   7.564 -0.9655  0.0267 -1.2173
11263TIP3   OH255279   3.841   2.924  14.782 -0.7598 -0.6030  0.0282
11263TIP3    H155280   3.805   2.868  14.714 -0.2845 -0.7012 -0.1484
11263TIP3    H255281   3.890   2.865  14.838 -1.4354 -0.5745  0.6602
11264TIP3   OH255282   0.735   1.978  33.195 -0.0347  1.1194  0.6087
11264TIP3    H155283   0.805   2.006  33.253  0.7322  1.5440 -0.4950
11264TIP3    H255284   0.767   1.898  33.154 -0.3163  1.1396  0.3377
11265TIP3   OH255285   2.781   0.421  11.244 -0.2916 -0.5268  0.2556
11265TIP3    H155286   2.812   0.387  11.160  1.9129 -1.7482  1.4936
11265TIP3    H255287   2.785   0.516  11.234 -1.9595 -0.5790 -1.6320
11266TIP3   OH255288   4.004   2.266  40.404 -0.2195 -0.3364 -0.3520
11266TIP3    H155289   4.040   2.329  40.342 -0.4883  0.9011  0.6950
11266TIP3    H255290   3.911   2.287  40.409 -0.3766 -1.0495 -0.2478
11267TIP3   OH255291   0.720   2.086  15.989 -0.4474 -0.1793 -0.1408
11267TIP3    H155292   0.719   2.180  15.970  0.4700 -0.1699 -0.2095
11267TIP3    H255293   0.628   2.061  15.991 -0.7980  1.0370  1.4533
11268TIP3   OH255294   2.724   3.323  44.104 -0.1346  0.2284 -0.0128
11268TIP3    H155295   2.770   3.407  44.090 -0.5760  0.7232  1.3267
11268TIP3    H255296   2.701   3.293  44.016 -1.8289  2.5770 -0.4724
11269TIP3   OH255297   3.432   0.231  26.408  0.3624  0.5135  0.4416
11269TIP3    H155298   3.523   0.256  26.394  0.9527 -1.2081  0.9370
11269TIP3    H255299   3.399   0.293  26.473  1.4009  0.7047  0.8037
11270TIP3   OH255300   2.768   2.780   4.680 -0.2066 -0.4092  0.5524
11270TIP3    H155301   2.839   2.841   4.660  1.1632 -2.1882 -0.2592
11270TIP3    H255302   2.691   2.819   4.639  0.6577  0.6775 -0.1077
11271TIP3   OH255303   2.629   1.883  43.414  0.8051  0.2503  0.3984
11271TIP3    H155304   2.650   1.793  43.388  1.3685  0.3173  0.5915
11271TIP3    H255305   2.659   1.888  43.505 -3.0930 -0.6577  1.8989
11272TIP3   OH255306   1.594   0.859  13.039 -0.1147 -0.3784  0.1317
11272TIP3    H155307   1.575   0.818  12.955  2.1274  0.9032 -1.0754
11272TIP3    H255308   1.583   0.953  13.024  0.8118 -0.0867  1.1243
11273TIP3   OH255309   3.092   1.316  11.920  0.2688 -1.0075  0.2622
11273TIP3    H155310   3.127   1.303  11.831  1.2975 -0.2158  0.5404
11273TIP3    H255311   3.159   1.281  11.978  1.0350  1.2406  0.8369
11274TIP3   OH255312   0.440   0.816  39.241 -0.1731 -0.1448  0.2788
11274TIP3    H155313   0.401   0.903  39.255 -0.7353  0.0170 -1.8518
11274TIP3    H255314   0.421   0.797  39.149  0.7415 -2.1456  0.4682
11275TIP3   OH255315   1.805   0.485  12.640 -0.0785 -0.2782  0.7358
11275TIP3    H155316   1.828   0.564  12.592  1.6121 -1.0399  0.1965
11275TIP3    H255317   1.890   0.445  12.663 -0.8726 -1.3860  1.8984
11276TIP3   OH255318   3.850   2.306   2.413  0.0630 -0.1697 -0.3365
11276TIP3    H155319   3.860   2.243   2.341  0.1074  0.0060 -0.4835
11276TIP3    H255320   3.756   2.316   2.423  0.0516 -0.3889 -0.1987
11277TIP3   OH255321   3.949   3.835  28.019 -0.0885  0.1442 -0.6020
11277TIP3    H155322   3.863   3.793  28.015 -1.1560  1.9920  0.8411
11277TIP3    H255323   3.954   3.886  27.938  0.3844 -1.1797 -1.4416
11278TIP3   OH255324   3.491   0.130   1.896 -0.5727 -0.0960  0.0017
11278TIP3    H155325   3.553   0.203   1.902  0.1645 -0.7924  1.3170
11278TIP3    H255326   3.522   0.079   1.822 -0.4955  0.3860 -0.3045
11279TIP3   OH255327   1.606   0.385  46.854  0.1771  0.5574 -0.2665
11279TIP3    H155328   1.642   0.310  46.903 -1.3513  0.7745  1.2869
11279TIP3    H255329   1.636   0.462  46.902 -1.5932  0.7672  0.5695
11280TIP3   OH255330   2.065   1.795  34.401  0.1340  0.0995 -0.1569
11280TIP3    H155331   2.032   1.857  34.467 -0.6087  0.0847 -0.5046
11280TIP3    H255332   2.050   1.839  34.317  0.1341 -0.3089 -0.3711
11281TIP3   OH255333   0.403   3.752  38.330  0.1051 -0.1681 -0.1073
11281TIP3    H155334   0.347   3.675  38.341  0.1660 -0.0390  1.2990
11281TIP3    H255335   0.436   3.746  38.240 -0.2838 -1.5186 -0.1705
11282TIP3   OH255336   1.750   3.471   9.800 -0.2345 -0.3922  0.3014
11282TIP3    H155337   1.815   3.504   9.739 -0.8326  1.0684  0.4077
11282TIP3    H255338   1.800   3.416   9.861  1.4570  2.6948  1.9476
11283TIP3   OH255339   2.849   2.111  41.320  0.1377  0.1454  0.4869
11283TIP3    H155340   2.834   2.026  41.363  1.5052 -0.5381 -0.3154
11283TIP3    H255341   2.915   2.092  41.253 -1.8296  1.1759 -1.8884
11284TIP3   OH255342   3.466   3.149  25.195  0.2018 -0.9207  0.4896
11284TIP3    H155343   3.381   3.135  25.237 -1.5896 -0.0680 -2.5187
11284TIP3    H255344   3.471   3.080  25.128  2.2525 -1.3800  1.0549
11285TIP3   OH255345   0.955   1.208   1.983  0.5983 -0.3199  0.1922
11285TIP3    H155346   0.896   1.162   1.924  0.0806  0.6334 -0.0662
11285TIP3    H255347   0.929   1.179   2.070  0.3851 -0.6328  0.0261
11286TIP3   OH255348   1.323   1.571   4.396 -0.1279  0.0955 -0.5470
11286TIP3    H155349   1.342   1.664   4.397 -0.0074  0.0701  0.1386
11286TIP3    H255350   1.400   1.531   4.354 -0.2378  0.3115 -0.9573
11287TIP3   OH255351   1.747   2.525  30.946  0.4429  0.3841  0.0413
11287TIP3    H155352   1.764   2.608  30.903  0.7768  0.2115 -0.1635
11287TIP3    H255353   1.656   2.504  30.924 -0.8340  2.3509  2.8754
11288TIP3   OH255354   2.926   3.194  10.556 -0.0507  0.2828 -0.2874
11288TIP3    H155355   2.921   3.217  10.464 -1.0496 -2.5328 -1.0359
11288TIP3    H255356   2.949   3.276  10.600 -1.6817  2.2046 -2.7547
11289TIP3   OH255357   2.374   1.959  41.227 -0.5675 -0.1462 -0.4692
11289TIP3    H155358   2.309   2.021  41.195  0.1045  0.2664 -1.0544
11289TIP3    H255359   2.391   1.987  41.317 -2.0009 -0.9302  0.0800
11290TIP3   OH255360   3.306   2.053  14.426  0.2522 -0.4186 -0.6508
11290TIP3    H155361   3.256   1.971  14.434  1.0346 -0.9088 -0.6807
11290TIP3    H255362   3.254   2.107  14.366  0.0497 -1.1551 -1.1569
11291TIP3   OH255363   2.546   3.867  13.954  0.2042 -0.0186  0.6498
11291TIP3    H155364   2.599   3.875  14.033 -0.3193 -1.3000  1.1662
11291TIP3    H255365   2.599   3.905  13.884  0.3400  1.9152  1.7391
11292TIP3   OH255366   2.248   2.848  11.080 -0.0239  0.0943  0.0212
11292TIP3    H155367   2.285   2.853  10.992  1.8274  1.3662  0.8084
11292TIP3    H255368   2.238   2.754  11.097  1.0908 -0.2191 -0.9578
11293TIP3   OH255369   3.976   3.017  32.635 -0.6434  0.5038 -0.2892
11293TIP3    H155370   3.896   2.997  32.683 -1.0335  0.6653 -0.8734
11293TIP3    H255371   4.036   2.946  32.658 -0.5964  0.9109  0.9451
11294TIP3   OH255372   4.021   0.420  42.603  0.2295 -0.1387 -0.8816
11294TIP3    H155373   4.067   0.352  42.652  1.9566  1.6373  0.0445
11294TIP3    H255374   3.970   0.467  42.668 -0.0967  0.1584 -1.3437
11295TIP3   OH255375   1.610   1.424   3.650 -0.5096  0.0604  0.2485
11295TIP3    H155376   1.540   1.482   3.679  1.0468  2.5873 -0.7152
11295TIP3    H255377   1.625   1.448   3.558  0.6277 -1.4711 -0.0095
11296TIP3   OH255378   0.346   3.777  14.284  0.6864 -0.2550  0.6596
11296TIP3    H155379   0.343   3.682  14.273  0.4858 -0.3109  1.1626
11296TIP3    H255380   0.438   3.800  14.276  0.7232 -0.4788  0.4394
11297TIP3   OH255381   2.969   3.513  41.887  0.1173  0.1181 -0.9290
11297TIP3    H155382   3.058   3.546  41.877  1.1843 -2.0512  0.6081
11297TIP3    H255383   2.946   3.534  41.977 -0.0556 -1.2083 -0.6422
11298TIP3   OH255384   3.929   0.364  47.549  0.1752 -0.0152 -0.0581
11298TIP3    H155385   3.966   0.313  47.477  1.1110 -0.2723  0.5858
11298TIP3    H255386   4.004   0.408  47.589 -0.6408  2.1609 -0.7918
11299TIP3   OH255387   1.486   2.341  36.820 -0.4302  0.1677 -0.2167
11299TIP3    H155388   1.478   2.405  36.749 -0.1509 -0.7531 -1.1087
11299TIP3    H255389   1.499   2.394  36.899 -2.2654  1.2801 -0.5955
11300TIP3   OH255390   1.880   1.845  35.190 -0.3937 -0.2997 -0.6165
11300TIP3    H155391   1.968   1.859  35.156  0.6963 -2.9781  0.7385
11300TIP3    H255392   1.873   1.902  35.267 -0.3045  0.7258 -1.3522
11301TIP3   OH255393   1.982   0.560  11.429  0.1494 -0.1070  0.1006
11301TIP3    H155394   1.959   0.468  11.445 -0.3911  0.0817  0.4189
11301TIP3    H255395   1.910   0.610  11.467 -0.0027  0.4303 -0.8648
11302TIP3   OH255396   1.531   2.588  33.069  0.1131 -0.4654 -0.2774
11302TIP3    H155397   1.511   2.620  32.982 -0.2078  0.5639  0.1638
11302TIP3    H255398   1.529   2.666  33.125 -0.6617 -1.2287  0.8139
11303TIP3   OH255399   3.658   2.363   7.092  0.6078  0.0226 -0.6916
11303TIP3    H155400   3.716   2.439   7.089  0.1774  0.3361 -2.2765
11303TIP3    H255401   3.687   2.308   7.019  0.5398 -1.0687  0.0757
11304TIP3   OH255402   3.259   3.907   2.367 -0.2287 -0.2488  0.3451
11304TIP3    H155403   3.175   3.894   2.412 -1.4851  0.1380 -1.7737
11304TIP3    H255404   3.248   3.990   2.321  1.9233  0.5941  1.2301
11305TIP3   OH255405   2.130   3.355  39.911 -0.2296 -0.2899 -0.5882
11305TIP3    H155406   2.120   3.427  39.849  0.7212 -0.0457 -0.4682
11305TIP3    H255407   2.142   3.398  39.995  1.2996 -0.5423 -0.6496
11306TIP3   OH255408   2.245   0.759  47.594  0.1499 -0.2616 -0.0821
11306TIP3    H155409   2.276   0.827  47.655 -1.5687 -0.1212  0.7008
11306TIP3    H255410   2.214   0.689  47.651  0.2227 -0.9373 -0.8650
11307TIP3   OH255411   4.076   1.268  41.285  0.1133 -0.1632 -0.2197
11307TIP3    H155412   4.152   1.230  41.330 -0.7237 -0.7117  0.7912
11307TIP3    H255413   4.036   1.325  41.351 -1.3011 -1.1884 -0.1472
11308TIP3   OH255414   0.761   0.793  44.951 -0.3628  0.2857  0.2852
11308TIP3    H155415   0.719   0.872  44.983 -0.9477  0.3339 -0.5740
11308TIP3    H255416   0.752   0.797  44.856 -1.4058 -1.3330  0.2551
11309TIP3   OH255417   1.878   3.199   7.162 -0.3984 -0.1051 -0.3367
11309TIP3    H155418   1.958   3.251   7.155 -1.5700  2.0158  1.0035
11309TIP3    H255419   1.843   3.196   7.073  0.3879  0.2511 -0.6602
11310TIP3   OH255420   1.814   1.378  11.679  0.1089 -0.8150  0.3094
11310TIP3    H155421   1.784   1.310  11.618 -1.1653 -0.7708  0.8701
11310TIP3    H255422   1.739   1.395  11.735 -0.0121  1.9302 -0.5688
11311TIP3   OH255423   1.554   2.323  40.923  0.0198  0.1436 -0.0946
11311TIP3    H155424   1.629   2.267  40.901  1.3053  2.1054 -1.0033
11311TIP3    H255425   1.534   2.302  41.014  0.6673 -1.4975 -0.2898
11312TIP3   OH255426   3.721   3.026   0.129 -0.1256 -0.2491 -0.2942
11312TIP3    H155427   3.702   3.069   0.045  0.3955 -0.5204 -0.5567
11312TIP3    H255428   3.643   2.974   0.148 -0.4400  0.1875 -0.3697
11313TIP3   OH255429   2.486   3.864  31.065 -0.0455 -0.8676  0.1540
11313TIP3    H155430   2.562   3.897  31.113 -0.3940 -0.1327  0.2178
11313TIP3    H255431   2.495   3.901  30.978  0.5695 -2.1760 -0.3726
11314TIP3   OH255432   1.979   2.257   8.174  0.1952  0.0630  0.6270
11314TIP3    H155433   1.932   2.204   8.238  0.5168 -1.1755 -0.1250
11314TIP3    H255434   2.062   2.280   8.217 -0.5398  1.2293  1.4969
11315TIP3   OH255435   2.574   2.556   8.083  0.1764  0.0243  0.9094
11315TIP3    H155436   2.508   2.487   8.090  2.4730 -2.4883 -0.2744
11315TIP3    H255437   2.536   2.621   8.024 -1.3923 -1.0899  0.6440
11316TIP3   OH255438   2.475   2.332  33.125  0.6291 -0.3261 -0.5278
11316TIP3    H155439   2.380   2.325  33.118  0.7494 -1.1661 -1.6754
11316TIP3    H255440   2.497   2.285  33.206  0.1505 -0.9333 -0.7476
11317TIP3   OH255441   3.135   3.690  25.967 -0.1331  0.7086 -0.1565
11317TIP3    H155442   3.059   3.641  25.934  0.8188 -0.4277 -0.7028
11317TIP3    H255443   3.207   3.628  25.965  0.7817  1.7062  0.5892
11318TIP3   OH255444   0.426   3.535   6.857  0.0319  0.5011 -0.3874
11318TIP3    H155445   0.347   3.493   6.823 -0.6350  1.8963 -0.6249
11318TIP3    H255446   0.451   3.598   6.790  0.1150  1.5581  0.6033
11319TIP3   OH255447   3.020   2.301  44.903  0.2418  0.1398 -0.7007
11319TIP3    H155448   3.073   2.370  44.865  0.2106 -0.0415 -1.0702
11319TIP3    H255449   3.076   2.262  44.970  1.3824 -1.4053 -2.4491
11320TIP3   OH255450   0.448   3.799  15.241 -0.0147  0.2073 -0.1513
11320TIP3    H155451   0.366   3.812  15.194 -0.1358  1.6992  0.4148
11320TIP3    H255452   0.465   3.705  15.235 -2.8221 -0.4940  1.4835
11321TIP3   OH255453   3.743   1.843  20.551 -0.2772  0.5125 -0.1942
11321TIP3    H155454   3.784   1.927  20.570 -0.6553  0.4708  0.8686
11321TIP3    H255455   3.760   1.790  20.629 -2.7764  0.6550  0.5303
11322TIP3   OH255456   3.143   0.975  10.415  0.0128  0.3282 -0.0092
11322TIP3    H155457   3.130   1.056  10.367  1.1679  1.2734  1.1988
11322TIP3    H255458   3.238   0.959  10.412 -0.0632 -0.3731  0.6913
11323TIP3   OH255459   0.224   0.973  34.369  0.2921  0.6466  0.7394
11323TIP3    H155460   0.156   1.025  34.326 -0.3313 -0.6603  0.0715
11323TIP3    H255461   0.210   0.884  34.336  1.5409  0.1179  1.5703
11324TIP3   OH255462   1.193   1.716  19.710  0.6120  0.7814 -0.2446
11324TIP3    H155463   1.280   1.697  19.743  0.0270 -1.6637  0.0358
11324TIP3    H255464   1.152   1.769  19.778  0.6754 -1.1158  1.3473
11325TIP3   OH255465   2.482   3.148  34.685 -0.2934  0.4451  0.2720
11325TIP3    H155466   2.394   3.173  34.656  0.2364  1.3877 -0.5886
11325TIP3    H255467   2.540   3.206  34.637  0.7169  1.3051  2.3833
11326TIP3   OH255468   1.723   1.794   8.300 -0.8710 -0.7211  0.3102
11326TIP3    H155469   1.655   1.768   8.362  0.3185  0.6133  2.2945
11326TIP3    H255470   1.801   1.747   8.329 -0.2151  0.1665  0.0402
11327TIP3   OH255471   2.299   0.994  34.615 -0.3839 -0.1782 -0.4608
11327TIP3    H155472   2.222   0.945  34.644  0.3873  0.0083  2.2244
11327TIP3    H255473   2.295   1.076  34.665  1.5409 -0.1860 -0.1984
11328TIP3   OH255474   0.819   0.674  44.048  0.0763 -0.0829  0.0509
11328TIP3    H155475   0.848   0.639  44.132  0.0809 -1.0158 -0.3295
11328TIP3    H255476   0.725   0.689  44.058 -0.1112 -1.1242 -0.0872
11329TIP3   OH255477   3.490   0.132  42.872  0.2881 -0.4156 -0.0893
11329TIP3    H155478   3.572   0.139  42.824  0.5060  0.3441  0.3757
11329TIP3    H255479   3.516   0.107  42.961 -0.0607 -1.1715 -0.1934
11330TIP3   OH255480   3.266   0.379  43.311  0.5742  0.4059 -0.0075
11330TIP3    H155481   3.250   0.323  43.235 -1.4256  0.4280  0.3506
11330TIP3    H255482   3.344   0.341  43.352  0.3990 -0.9433 -0.8416
11331TIP3   OH255483   1.712   1.273  43.270  0.3877  0.3312  0.2660
11331TIP3    H155484   1.660   1.252  43.348 -0.4882 -1.2544 -0.6763
11331TIP3    H255485   1.652   1.258  43.197  2.0370 -1.1829 -0.8619
11332TIP3   OH255486   0.029   0.656   5.187 -0.6826 -0.1997  0.3543
11332TIP3    H155487   0.043   0.634   5.279  0.9815 -1.1143 -0.0862
11332TIP3    H255488   0.035   0.751   5.183 -0.0318 -0.2072  1.0856
11333TIP3   OH255489   0.773   3.496  13.844 -0.1699 -0.1821  0.1803
11333TIP3    H155490   0.758   3.412  13.887  0.6682  0.2190  1.3150
11333TIP3    H255491   0.830   3.475  13.770 -0.1536 -0.6418  0.3207
11334TIP3   OH255492   0.100   2.929   6.750  0.5234 -0.1064  0.3017
11334TIP3    H155493   0.125   3.007   6.700  2.8533 -0.6464  0.5177
11334TIP3    H255494   0.098   2.859   6.685 -0.8051 -0.0346  0.2431
11335TIP3   OH255495   1.364   3.338  33.341  0.0309 -0.8149  0.2396
11335TIP3    H155496   1.332   3.392  33.269  0.8331  0.5335  0.8614
11335TIP3    H255497   1.432   3.284  33.302 -1.5138 -2.2241 -0.6320
11336TIP3   OH255498   3.518   3.861  10.947 -0.2202  0.1308 -0.0069
11336TIP3    H155499   3.582   3.793  10.967 -0.9797 -0.6932 -0.3531
11336TIP3    H255500   3.501   3.903  11.032 -1.8073 -1.9293  0.7648
11337TIP3   OH255501   0.972   1.017  45.701  0.3882 -0.0237 -0.5469
11337TIP3    H155502   1.034   1.032  45.630  0.2082 -0.0767 -0.7148
11337TIP3    H255503   0.937   0.930  45.685  0.4150 -0.0746 -0.3397
11338TIP3   OH255504   3.477   0.639  34.235 -0.5857 -0.0256 -0.3844
11338TIP3    H155505   3.460   0.546  34.244 -0.5528  0.1068  1.1944
11338TIP3    H255506   3.513   0.666  34.319  0.2745  1.2358 -1.1124
11339TIP3   OH255507   1.258   3.848  36.137  0.1014 -0.2990  0.0539
11339TIP3    H155508   1.257   3.927  36.084 -3.8924  1.3585  2.1337
11339TIP3    H255509   1.329   3.861  36.200  2.5092 -0.6627 -2.4321
11340TIP3   OH255510   4.065   3.406  13.412  0.0430  0.1698 -0.1380
11340TIP3    H155511   4.059   3.318  13.373 -1.8010  0.4852 -0.6476
11340TIP3    H255512   3.985   3.450  13.384  0.6718  1.8403  0.5907
11341TIP3   OH255513   0.438   2.184  40.868  0.1341  0.0061 -0.2769
11341TIP3    H155514   0.428   2.186  40.963 -0.8172 -0.0140 -0.3655
11341TIP3    H255515   0.389   2.260  40.837  0.3019 -0.0790 -0.7599
11342TIP3   OH255516   0.441   1.862  11.936  0.1146  0.2601 -0.1696
11342TIP3    H155517   0.363   1.819  11.970 -0.2441  0.6207 -0.5268
11342TIP3    H255518   0.436   1.951  11.971  1.5518 -0.3229  1.6954
11343TIP3   OH255519   0.427   1.357  10.661 -0.2895 -0.2737 -0.1411
11343TIP3    H155520   0.443   1.438  10.709 -0.1895 -0.3941  0.0290
11343TIP3    H255521   0.397   1.295  10.727  0.0592 -0.5022 -0.1924
11344TIP3   OH255522   3.171   0.671  12.367  0.3367  0.6361  0.2016
11344TIP3    H155523   3.150   0.726  12.443 -0.3649  1.4080 -0.5248
11344TIP3    H255524   3.094   0.678  12.310  1.8539  2.2463 -1.8294
11345TIP3   OH255525   3.125   1.576  12.030 -0.0075  0.7699  0.1883
11345TIP3    H155526   3.082   1.506  11.981  2.1759  0.3411 -1.2426
11345TIP3    H255527   3.071   1.653  12.014 -1.2842 -0.1296  0.0541
11346TIP3   OH255528   3.114   1.548  34.117  0.0286 -0.1889  0.0535
11346TIP3    H155529   3.101   1.519  34.207 -0.5583  0.8656  0.3271
11346TIP3    H255530   3.025   1.563  34.084  0.2221 -0.8894 -0.8170
11347TIP3   OH255531   1.681   2.877  33.906  0.1549  0.4644  0.7263
11347TIP3    H155532   1.647   2.895  33.819  0.0318  0.3966  0.7628
11347TIP3    H255533   1.629   2.933  33.964 -1.5726 -1.4188  1.0778
11348TIP3   OH255534   2.284   3.640  36.855 -0.2114  0.1359  0.7419
11348TIP3    H155535   2.238   3.666  36.775 -1.5378  0.3981  1.5601
11348TIP3    H255536   2.224   3.664  36.926 -0.0241 -2.0866  1.7129
11349TIP3   OH255537   1.736   0.852  31.873 -0.1501 -0.0396  0.2388
11349TIP3    H155538   1.771   0.940  31.859  1.6788 -0.7846 -0.0447
11349TIP3    H255539   1.736   0.811  31.787  1.5651 -1.2024  0.7426
11350TIP3   OH255540   4.050   0.208  30.116  0.0673 -0.0307 -0.4355
11350TIP3    H155541   3.989   0.230  30.186 -0.0453 -0.4011 -0.4090
11350TIP3    H255542   4.018   0.124  30.083  0.3609 -0.0584 -0.6556
11351TIP3   OH255543   1.122   2.066   9.076  0.7504 -0.1683 -0.8240
11351TIP3    H155544   1.208   2.104   9.091  0.3220  2.3289 -3.6616
11351TIP3    H255545   1.140   1.978   9.043  2.0093 -0.8575  1.5183
11352TIP3   OH255546   2.378   1.476  37.510  0.3701  0.1252  0.1462
11352TIP3    H155547   2.365   1.392  37.466  1.0300 -0.7254  1.5150
11352TIP3    H255548   2.382   1.540  37.438  1.1969 -1.1785 -1.0277
11353TIP3   OH255549   0.743   0.718  12.839 -0.1490 -0.1505 -0.2567
11353TIP3    H155550   0.833   0.742  12.862 -0.2341 -1.6090  1.9550
11353TIP3    H255551   0.740   0.623  12.848 -2.9042  0.0527  4.3861
11354TIP3   OH255552   0.532   2.844   7.286 -0.1343  0.3866  0.1638
11354TIP3    H155553   0.577   2.777   7.234 -1.0572 -1.2931  1.4316
11354TIP3    H255554   0.552   2.821   7.377 -2.4962  0.2897  0.7220
11355TIP3   OH255555   1.756   2.436  16.588 -0.5170 -0.2954  0.5518
11355TIP3    H155556   1.825   2.471  16.532  0.5610  0.7680  2.4251
11355TIP3    H255557   1.802   2.405  16.666 -2.0949 -0.0284  1.6524
11356TIP3   OH255558   0.806   3.330  41.247 -0.0922  0.6557  0.1912
11356TIP3    H155559   0.846   3.293  41.168 -1.7030 -0.7462 -0.0227
11356TIP3    H255560   0.877   3.380  41.289  0.9872  0.8796 -1.7699
11357TIP3   OH255561   3.723   3.244  45.712  0.3557 -0.3899 -0.0261
11357TIP3    H155562   3.761   3.279  45.631  1.2580 -2.1675 -0.4348
11357TIP3    H255563   3.715   3.320  45.770  1.1044  0.6713 -1.2645
11358TIP3   OH255564   1.877   0.094   7.823  0.5669 -0.9668  0.2631
11358TIP3    H155565   1.906   0.056   7.740  1.2280  1.0716 -0.5037
11358TIP3    H255566   1.950   0.149   7.851 -0.7492  0.6547  0.6820
11359TIP3   OH255567   1.941   3.651  12.204  0.0195 -0.1699 -0.0223
11359TIP3    H155568   1.930   3.745  12.217  0.1153  0.0920 -1.5864
11359TIP3    H255569   1.885   3.631  12.129 -1.3740 -1.7130  1.3559
11360TIP3   OH255570   2.961   0.744  13.414 -0.3612 -0.3194  0.4406
11360TIP3    H155571   2.891   0.790  13.369  1.1192  1.6931  0.0475
11360TIP3    H255572   2.994   0.681  13.350  0.7274  1.4712 -0.8774
11361TIP3   OH255573   3.415   2.622  34.602 -0.2559 -0.1417 -0.5144
11361TIP3    H155574   3.422   2.589  34.513 -1.1529  2.0508 -1.4833
11361TIP3    H255575   3.337   2.580  34.637 -0.1946 -0.6280 -0.9451
11362TIP3   OH255576   0.774   1.529  10.425  0.4928  0.0351 -0.0793
11362TIP3    H155577   0.771   1.505  10.518 -0.4881  1.3941  0.2703
11362TIP3    H255578   0.686   1.511  10.393  1.1052 -1.4240 -1.0457
11363TIP3   OH255579   1.402   1.637   1.216  0.4401  0.0727  0.0766
11363TIP3    H155580   1.308   1.626   1.206  0.5014 -0.6505  0.2301
11363TIP3    H255581   1.416   1.731   1.207 -0.4793  0.3823  1.5323
11364TIP3   OH255582   1.324   2.545  43.459 -0.0547 -0.1343 -0.5128
11364TIP3    H155583   1.263   2.473  43.475 -0.3485 -0.2144 -1.8893
11364TIP3    H255584   1.279   2.602  43.396  0.3660  1.0151  0.1872
11365TIP3   OH255585   2.869   3.538   2.816  0.0970  0.7576  0.2106
11365TIP3    H155586   2.963   3.538   2.795  0.1484  0.7918  0.4418
11365TIP3    H255587   2.849   3.629   2.836 -0.6581  1.3596 -2.8055
11366TIP3   OH255588   2.286   2.665  39.749 -0.1015 -0.1391  0.0397
11366TIP3    H155589   2.195   2.635  39.748  0.3718 -1.9066  2.2533
11366TIP3    H255590   2.291   2.725  39.823  0.8203 -1.1329  0.8023
11367TIP3   OH255591   3.030   0.509   7.504  0.0055 -0.2444  0.2609
11367TIP3    H155592   3.058   0.601   7.507  1.9410 -0.8036  1.3443
11367TIP3    H255593   2.981   0.497   7.586 -1.7129  0.1935 -0.6532
11368TIP3   OH255594   2.174   3.014  10.784 -0.3175 -0.0382  0.1097
11368TIP3    H155595   2.211   3.099  10.758  0.3890 -0.6148 -0.8597
11368TIP3    H255596   2.233   2.950  10.745 -0.0467 -0.9938  1.9900
11369TIP3   OH255597   0.613   1.138  12.996 -0.2408  0.2496 -0.0669
11369TIP3    H155598   0.687   1.089  13.032 -1.2659  0.5761  2.7147
11369TIP3    H255599   0.649   1.226  12.982  0.1213  0.1956  0.4680
11370TIP3   OH255600   3.023   1.375   9.185 -0.0801 -0.1598 -0.4346
11370TIP3    H155601   3.098   1.431   9.205  0.1416 -0.5704 -0.0919
11370TIP3    H255602   2.947   1.427   9.209  0.0108  0.7941 -2.0411
11371TIP3   OH255603   2.679   0.034   1.490 -0.0987 -0.6537  0.3072
11371TIP3    H155604   2.720   0.112   1.526 -0.5543 -0.1388 -0.2613
11371TIP3    H255605   2.616   0.068   1.426  0.2987 -1.5095 -0.5637
11372TIP3   OH255606   2.518   3.422   5.064 -0.5911  0.2194  0.2160
11372TIP3    H155607   2.514   3.374   4.981 -0.4351 -0.3097  0.5096
11372TIP3    H255608   2.562   3.362   5.124 -1.3992  0.2766  0.8915
11373TIP3   OH255609   1.381   0.944   6.676  0.3592  0.5341  0.2210
11373TIP3    H155610   1.476   0.950   6.681  0.5561  0.9949 -2.5566
11373TIP3    H255611   1.350   1.024   6.718  1.2132  0.5192  0.8986
11374TIP3   OH255612   0.867   3.813   7.739  0.3988 -0.0197  0.8623
11374TIP3    H155613   0.808   3.768   7.679 -0.0628  0.0082  1.2916
11374TIP3    H255614   0.940   3.843   7.683 -1.2070  2.2370 -0.1866
11375TIP3   OH255615   1.870   0.416  31.742  0.2270 -0.0913  0.2282
11375TIP3    H155616   1.778   0.408  31.766  0.5623 -0.8401  1.3206
11375TIP3    H255617   1.873   0.386  31.651 -0.8563  1.5628 -0.4159
11376TIP3   OH255618   1.069   3.093  32.596  0.8185 -0.1317  0.1375
11376TIP3    H155619   0.997   3.058  32.543 -0.0373  2.6889 -0.7922
11376TIP3    H255620   1.052   3.062  32.684 -1.2572 -0.0081 -0.1715
11377TIP3   OH255621   3.906   2.836  45.308  0.3278  0.3777 -0.0413
11377TIP3    H155622   3.997   2.856  45.328  0.1586  0.7983  0.3114
11377TIP3    H255623   3.855   2.903  45.354 -0.1547  0.2080 -0.3160
11378TIP3   OH255624   3.335   1.037  38.012 -0.2048  0.0720 -0.2572
11378TIP3    H155625   3.400   1.079  37.956  0.1765  0.1384  0.2221
11378TIP3    H255626   3.358   0.944  38.009  0.1790  0.1463  0.2446
11379TIP3   OH255627   2.916   2.436  39.402  0.4572  0.6043 -0.6241
11379TIP3    H155628   2.928   2.456  39.309 -0.3602 -1.5220 -1.2614
11379TIP3    H255629   2.997   2.390  39.426  0.0622 -0.1722 -0.7311
11380TIP3   OH255630   3.083   2.124   7.625  0.0840  0.2394 -0.0377
11380TIP3    H155631   3.162   2.072   7.642  0.6833  1.2364  0.3102
11380TIP3    H255632   3.011   2.064   7.643  0.7344 -0.0933  1.7469
11381TIP3   OH255633   3.012   1.278  44.168 -0.0492  0.2104  0.0648
11381TIP3    H155634   2.934   1.231  44.139  0.7134 -2.6667  2.1471
11381TIP3    H255635   2.979   1.357  44.210 -1.5654  0.6071 -1.7483
11382TIP3   OH255636   1.110   2.646   4.329 -0.6563  0.2961 -0.4227
11382TIP3    H155637   1.027   2.682   4.361 -1.3575  0.4535 -2.2897
11382TIP3    H255638   1.165   2.722   4.314 -0.4640  0.2483  0.0280
11383TIP3   OH255639   3.362   3.163   1.053  0.1815 -0.4468  0.2235
11383TIP3    H155640   3.303   3.201   1.118 -1.3040 -0.4834 -1.0443
11383TIP3    H255641   3.316   3.174   0.970  1.5418 -1.3718 -0.6882
11384TIP3   OH255642   1.693   2.475  10.845  0.0076  0.6166 -0.0965
11384TIP3    H155643   1.616   2.426  10.877 -0.0054 -0.0401 -1.0997
11384TIP3    H255644   1.726   2.520  10.923  0.3595 -1.4389  1.0143
11385TIP3   OH255645   1.159   3.065  12.951  0.1834 -0.0058 -0.2730
11385TIP3    H155646   1.138   3.132  12.885 -0.3497 -0.4434 -0.5537
11385TIP3    H255647   1.125   3.101  13.033  1.2624  0.7542 -0.1315
11386TIP3   OH255648   2.124   0.280   0.392  0.1199 -0.0998  0.9485
11386TIP3    H155649   2.195   0.217   0.389  0.8612  0.7402  0.2883
11386TIP3    H255650   2.058   0.245   0.332  0.7306 -0.0226  0.2108
11387TIP3   OH255651   2.932   0.448   4.455  0.1600 -0.1120 -0.1095
11387TIP3    H155652   3.004   0.387   4.476 -1.6671 -1.4422  2.9483
11387TIP3    H255653   2.963   0.532   4.487  1.0880 -0.2381 -0.6111
11388TIP3   OH255654   2.503   3.333  38.414  0.1095 -0.1487  0.7214
11388TIP3    H155655   2.422   3.361  38.372 -0.3388  0.0142  1.6790
11388TIP3    H255656   2.494   3.238  38.423  0.4548 -0.2622 -0.0539
11389TIP3   OH255657   0.409   1.884   7.987 -0.7734  0.9527  0.2844
11389TIP3    H155658   0.429   1.877   8.080 -3.3449  2.5203  1.0820
11389TIP3    H255659   0.484   1.929   7.949  0.3971  0.1317  1.5429
11390TIP3   OH255660   0.837   3.066  34.296  0.1958 -0.4798  0.4755
11390TIP3    H155661   0.812   3.108  34.214  2.1829 -0.0301  0.0417
11390TIP3    H255662   0.917   3.018  34.275  0.3839 -0.8924  2.0082
11391TIP3   OH255663   1.418   2.355   7.865  0.3979 -0.1726  0.3991
11391TIP3    H155664   1.477   2.430   7.855  0.9365 -0.5296  0.8318
11391TIP3    H255665   1.475   2.278   7.855 -0.7483 -0.7213 -4.6467
11392TIP3   OH255666   1.218   2.369  38.672 -0.1732  0.2514 -0.1284
11392TIP3    H155667   1.155   2.430  38.635 -0.0949  1.0168  0.9485
11392TIP3    H255668   1.165   2.293  38.698 -0.3865  0.1764 -0.7805
11393TIP3   OH255669   3.014   1.879   6.297  1.1147  0.7327 -0.3842
11393TIP3    H155670   2.936   1.915   6.256  0.6727 -1.5343 -1.7209
11393TIP3    H255671   2.991   1.870   6.389 -1.0236 -1.5970 -1.0166
11394TIP3   OH255672   2.498   2.926  12.166  0.2028  0.5983  0.0778
11394TIP3    H155673   2.585   2.945  12.199  2.0518 -3.3246 -1.8490
11394TIP3    H255674   2.457   2.873  12.235  1.2073 -1.3030 -0.6851
11395TIP3   OH255675   1.927   2.446   4.007 -0.3076  0.1971  0.2972
11395TIP3    H155676   1.864   2.482   4.069 -1.4050  0.2898 -0.8186
11395TIP3    H255677   1.937   2.516   3.942  2.0948  0.7747  1.1971
11396TIP3   OH255678   1.273   3.576  41.875  0.4287  0.4152  0.2817
11396TIP3    H155679   1.281   3.515  41.948  1.4441 -0.3739 -0.4611
11396TIP3    H255680   1.178   3.582  41.859  0.3321 -2.5587 -0.9073
11397TIP3   OH255681   2.756   1.582  45.442  0.5427 -0.0071  0.5751
11397TIP3    H155682   2.768   1.507  45.500  1.6587  0.3842  0.8994
11397TIP3    H255683   2.746   1.657  45.502 -0.5609  0.1124  0.2581
11398TIP3   OH255684   2.738   0.200  33.958  0.3463 -0.0824  0.2643
11398TIP3    H155685   2.692   0.271  34.003 -1.3802 -0.4255 -0.8727
11398TIP3    H255686   2.709   0.121  34.003  0.0532 -0.2769 -0.2600
11399TIP3   OH255687   1.794   2.814   1.744  0.2726  0.3691  0.0772
11399TIP3    H155688   1.851   2.746   1.709  0.5849 -0.5060  2.1182
11399TIP3    H255689   1.713   2.768   1.766 -0.6850  1.2995 -1.3632
11400TIP3   OH255690   1.194   3.874  45.988 -0.1629 -0.1272 -0.4649
11400TIP3    H155691   1.107   3.873  45.948 -1.5233  0.6740  2.2252
11400TIP3    H255692   1.211   3.966  46.006  0.3565 -0.4538  0.7894
11401TIP3   OH255693   0.675   2.960  38.246  0.1598 -0.1794  0.4151
11401TIP3    H155694   0.591   2.985  38.284  1.2597  1.2532  2.0756
11401TIP3    H255695   0.661   2.964  38.152 -1.3278  1.1829  0.6520
11402TIP3   OH255696   2.493   1.853   4.511 -0.6916  0.1617 -0.3795
11402TIP3    H155697   2.398   1.843   4.518 -0.5712 -1.2234 -0.4797
11402TIP3    H255698   2.516   1.808   4.430  0.0057  0.8635 -0.5754
11403TIP3   OH255699   2.765   3.876  46.722 -0.4786 -0.3834  0.3428
11403TIP3    H155700   2.851   3.898  46.686 -1.0323 -1.4925 -1.7907
11403TIP3    H255701   2.707   3.946  46.692 -0.5712 -0.2480  0.8182
11404TIP3   OH255702   0.374   1.517   0.851  0.3635  0.2367  0.6864
11404TIP3    H155703   0.457   1.564   0.853  0.7366 -0.4224  0.8905
11404TIP3    H255704   0.363   1.492   0.759  1.5435 -1.6516  0.9916
11405TIP3   OH255705   0.690   2.648  11.751  0.5701  0.1923 -0.3980
11405TIP3    H155706   0.664   2.733  11.717  1.0583  1.0842  1.3400
11405TIP3    H255707   0.785   2.651  11.752  0.5784 -0.1907  0.1174
11406TIP3   OH255708   0.163   3.227  10.823 -0.0717  0.0060 -0.4971
11406TIP3    H155709   0.083   3.268  10.854 -0.8501 -1.7896  0.0193
11406TIP3    H255710   0.134   3.144  10.786  1.4872 -0.3795 -0.9145
11407TIP3   OH255711   3.384   0.216   3.919 -0.0618 -0.0765  0.6269
11407TIP3    H155712   3.314   0.282   3.921 -0.3295 -0.3737  1.7486
11407TIP3    H255713   3.444   0.243   3.988  0.4261 -0.3735  0.3209
11408TIP3   OH255714   1.029   1.383  39.050  0.1110  0.5906  0.0572
11408TIP3    H155715   0.940   1.413  39.032  0.1892  0.4348 -0.6112
11408TIP3    H255716   1.056   1.434  39.127 -1.4645 -1.1998  1.9306
11409TIP3   OH255717   0.379   0.183  43.681  1.1580 -0.0390 -0.0821
11409TIP3    H155718   0.453   0.217  43.630  0.8536  1.3923  0.3577
11409TIP3    H255719   0.304   0.237  43.652  1.1568  1.4893  2.4766
11410TIP3   OH255720   0.222   1.467  43.699  0.2011 -0.0903  0.4412
11410TIP3    H155721   0.150   1.482  43.639 -0.2519 -1.8904  0.4840
11410TIP3    H255722   0.198   1.517  43.778 -1.2957 -1.0819  0.6596
11411TIP3   OH255723   3.317   0.639  47.144 -0.5222 -0.4185 -0.3917
11411TIP3    H155724   3.373   0.682  47.080  0.9630 -1.6436  0.0231
11411TIP3    H255725   3.311   0.701  47.216 -0.0555 -0.0791 -0.6393
11412TIP3   OH255726   0.275   1.925   1.440  0.1770  0.9941 -0.0343
11412TIP3    H155727   0.254   1.895   1.351 -0.4694 -0.2264  0.5004
11412TIP3    H255728   0.326   1.853   1.478 -0.8368  0.8105  1.0666
11413TIP3   OH255729   2.678   1.172   9.590  0.1687 -0.0471 -0.2138
11413TIP3    H155730   2.601   1.118   9.605 -0.0724  0.0072 -1.1895
11413TIP3    H255731   2.654   1.258   9.623  0.2934 -0.3423  0.6786
11414TIP3   OH255732   1.083   3.468  10.324 -0.2276  0.1787 -0.1880
11414TIP3    H155733   1.146   3.430  10.263 -0.1692 -1.1680  0.6759
11414TIP3    H255734   1.109   3.560  10.330  1.4308 -0.2526 -0.1638
11415TIP3   OH255735   1.994   2.518  14.537  0.0415 -0.1450 -0.2347
11415TIP3    H155736   2.021   2.569  14.614  0.7926 -1.4762  0.4296
11415TIP3    H255737   1.981   2.584  14.468 -2.5228  1.2939  1.4748
11416TIP3   OH255738   0.825   0.644  42.716  0.0856  0.0897  0.1990
11416TIP3    H155739   0.806   0.689  42.634 -3.0902  0.7692  1.1546
11416TIP3    H255740   0.891   0.699  42.759 -0.5706  1.5103 -0.5358
11417TIP3   OH255741   0.969   1.402  42.450  0.2645 -0.0645  1.1455
11417TIP3    H155742   1.024   1.479  42.437 -1.7077  1.9058  3.4472
11417TIP3    H255743   0.886   1.424  42.410  0.4473 -2.2067 -0.5929
11418TIP3   OH255744   1.388   0.026  28.887 -0.1988  0.0292 -0.4759
11418TIP3    H155745   1.441   0.015  28.966  1.9108  0.4108 -1.7659
11418TIP3    H255746   1.352   0.114  28.894 -0.0996  0.0318  0.0788
11419TIP3   OH255747   0.896   2.986  42.344 -0.3879 -0.2832 -0.5987
11419TIP3    H155748   0.936   2.914  42.393 -0.1922  1.4708  2.0387
11419TIP3    H255749   0.970   3.034  42.307 -0.2639  0.5048  0.6205
11420TIP3   OH255750   1.952   3.245   3.714  1.2671 -0.4173 -0.0704
11420TIP3    H155751   1.975   3.289   3.796 -0.1037  1.2122 -0.5048
11420TIP3    H255752   1.870   3.286   3.686 -1.7862 -5.0970  0.8524
11421TIP3   OH255753   0.180   3.000  45.822  0.2456  0.1485 -0.1255
11421TIP3    H155754   0.122   2.939  45.868  0.5970  0.1389  0.3051
11421TIP3    H255755   0.143   3.087  45.842 -0.3263  0.0761 -0.8395
11422TIP3   OH255756   0.788   0.501  44.291  0.9353 -0.0858  0.7608
11422TIP3    H155757   0.694   0.509  44.305  0.9206  1.9644 -0.1716
11422TIP3    H255758   0.811   0.416  44.329 -1.4005 -0.9750  0.3481
11423TIP3   OH255759   1.861   1.071  38.521  0.1538 -0.6662 -0.5580
11423TIP3    H155760   1.826   0.982  38.507  0.7732 -0.9142 -0.5781
11423TIP3    H255761   1.801   1.128  38.472 -0.6093 -0.9998 -0.0407
11424TIP3   OH255762   0.845   1.185  40.586  0.4836 -0.2714 -0.5006
11424TIP3    H155763   0.876   1.103  40.626 -0.1924 -0.5630 -0.5638
11424TIP3    H255764   0.752   1.189  40.608  0.8680  1.3958  1.0561
11425TIP3   OH255765   0.882   2.427   4.303 -0.2996 -0.4148  0.2221
11425TIP3    H155766   0.945   2.497   4.284 -0.6974  0.0099  0.4260
11425TIP3    H255767   0.934   2.358   4.344 -0.0061  0.0280  0.6088
11426TIP3   OH255768   2.188   3.965  39.994 -0.2478 -0.2370 -0.1993
11426TIP3    H155769   2.127   3.913  40.045  0.4380 -0.7469  0.1171
11426TIP3    H255770   2.183   4.052  40.032 -0.5689 -0.3426  0.0049
11427TIP3   OH255771   1.483   3.713  32.279  0.3489 -0.1472  0.2235
11427TIP3    H155772   1.516   3.634  32.322  2.1472  0.0906 -0.6072
11427TIP3    H255773   1.559   3.772  32.277 -0.3711  0.7890 -1.0267
11428TIP3   OH255774   3.579   1.431   1.176  0.6352  0.0512 -0.1338
11428TIP3    H155775   3.596   1.339   1.196  1.5115 -0.0339 -1.1838
11428TIP3    H255776   3.644   1.480   1.228  1.4696 -0.0493 -1.0520
11429TIP3   OH255777   3.240   2.999   8.737 -0.4005 -0.2716 -0.1736
11429TIP3    H155778   3.229   3.015   8.831 -1.0744  2.6297 -0.6477
11429TIP3    H255779   3.151   2.995   8.702 -0.1737  0.9346 -0.9578
11430TIP3   OH255780   3.107   0.851  31.821  0.3382 -0.4067 -0.3219
11430TIP3    H155781   3.125   0.765  31.859  0.6694  0.2234  1.0181
11430TIP3    H255782   3.191   0.896  31.825 -0.1126  0.4175  0.2035
11431TIP3   OH255783   3.339   3.434  42.140 -0.5365 -0.1573 -0.6706
11431TIP3    H155784   3.433   3.427  42.124 -0.6785  0.4097 -1.8829
11431TIP3    H255785   3.306   3.344  42.136  0.0237 -0.4196  0.3366
11432TIP3   OH255786   3.143   1.056  41.958  0.0214  0.1602 -0.3035
11432TIP3    H155787   3.111   1.127  42.013 -0.7442  0.1220 -0.6807
11432TIP3    H255788   3.226   1.088  41.923  0.8205 -0.0451  1.3135
11433TIP3   OH255789   4.059   1.566  42.021  0.8750  0.0025  0.2874
11433TIP3    H155790   3.989   1.510  41.989  0.4337  0.9623 -0.4983
11433TIP3    H255791   4.051   1.563  42.116 -0.8202  0.7576  0.2143
11434TIP3   OH255792   0.050   0.239   4.845  0.0705  0.4418  0.7805
11434TIP3    H155793   0.029   0.313   4.902 -1.2360  0.3190  0.4933
11434TIP3    H255794  -0.006   0.168   4.876  1.7110 -0.6342  1.4086
11435TIP3   OH255795   2.892   1.894  19.176  0.5933 -0.3029  0.3992
11435TIP3    H155796   2.857   1.878  19.088 -0.4554 -0.6452  0.8591
11435TIP3    H255797   2.890   1.989  19.185 -1.1907 -0.3427  0.7647
11436TIP3   OH255798   1.760   0.113  10.168 -0.5432  0.3136 -0.0935
11436TIP3    H155799   1.697   0.139  10.100 -1.3781 -0.0759  0.5008
11436TIP3    H255800   1.716   0.135  10.251 -0.0551 -0.3226  0.3457
11437TIP3   OH255801   1.791   0.139  34.191 -0.5160 -0.4817  0.0439
11437TIP3    H155802   1.801   0.125  34.097 -1.0342 -1.4294  0.1076
11437TIP3    H255803   1.846   0.214  34.211 -0.7605  0.0159 -1.0952
11438TIP3   OH255804   1.718   2.918  42.149  0.8379  0.0583 -0.5345
11438TIP3    H155805   1.749   2.902  42.059  1.1066 -0.0780 -0.4223
11438TIP3    H255806   1.624   2.902  42.145  1.0731 -1.5073 -0.4556
11439TIP3   OH255807   3.592   3.126   2.277 -0.6459  0.2836  0.3900
11439TIP3    H155808   3.642   3.115   2.357 -1.1702  0.8188  0.7976
11439TIP3    H255809   3.528   3.194   2.297 -1.2298 -0.0530 -0.2696
11440TIP3   OH255810   3.578   2.638  44.201 -0.4369  0.1618 -0.5035
11440TIP3    H155811   3.536   2.715  44.162 -2.5740 -2.1305 -3.1514
11440TIP3    H255812   3.521   2.614  44.273  0.7590  1.5034  0.9580
11441TIP3   OH255813   2.493   2.184  38.113 -0.1625 -0.4635  0.1286
11441TIP3    H155814   2.532   2.154  38.196  1.5352  0.0048 -0.4544
11441TIP3    H255815   2.559   2.164  38.047 -0.0249  2.1932 -0.6535
11442TIP3   OH255816   3.702   0.172  31.217 -0.5804 -0.3532  0.6233
11442TIP3    H155817   3.619   0.219  31.225  0.2014  1.2464 -0.0826
11442TIP3    H255818   3.681   0.081  31.237 -2.2330  0.2399  1.7885
11443TIP3   OH255819   0.462   1.152  47.021  0.6642  0.3814 -0.4694
11443TIP3    H155820   0.534   1.116  46.969  0.4775 -0.5529 -0.1117
11443TIP3    H255821   0.505   1.194  47.095  0.8444 -0.7214  0.0783
11444TIP3   OH255822   2.985   2.550  13.024  0.1977 -0.2310 -0.2088
11444TIP3    H155823   2.943   2.602  13.092  0.4032  0.0099 -0.2637
11444TIP3    H255824   3.062   2.513  13.066 -0.1158 -0.7439 -0.0844
11445TIP3   OH255825   4.004   1.655  41.258  0.1752 -0.0557  0.0500
11445TIP3    H155826   4.045   1.592  41.317  0.3363 -0.0995 -0.1069
11445TIP3    H255827   4.071   1.722  41.245 -0.1461  0.3829  0.5701
11446TIP3   OH255828   4.000   3.038  38.756 -0.0873  0.1812 -0.0392
11446TIP3    H155829   4.082   3.073  38.791 -0.0896 -0.2952  0.4497
11446TIP3    H255830   4.028   2.974  38.690 -0.0827  1.2684 -1.1445
11447TIP3   OH255831   3.931   1.476   2.565  0.7231 -0.2652 -0.5187
11447TIP3    H155832   3.854   1.530   2.580  0.9054  0.6253 -2.4555
11447TIP3    H255833   4.005   1.534   2.585  0.9662 -1.2759  1.8634
11448TIP3   OH255834   3.494   2.232   8.012 -0.1637 -0.2070  0.0807
11448TIP3    H155835   3.436   2.182   8.070 -0.9426  1.1494  0.5032
11448TIP3    H255836   3.581   2.196   8.029 -0.3422  0.2095  2.1984
11449TIP3   OH255837   0.463   0.477  47.045 -0.2055 -0.0028 -0.0833
11449TIP3    H155838   0.384   0.427  47.024 -0.1722  0.1455 -0.5872
11449TIP3    H255839   0.499   0.501  46.959  0.2269  0.1786  0.1474
11450TIP3   OH255840   2.715   3.647  37.218  0.0222  0.1072 -0.1406
11450TIP3    H155841   2.717   3.584  37.146 -1.0595  0.9849 -0.9712
11450TIP3    H255842   2.676   3.599  37.291  0.4975 -0.5809 -0.3209
11451TIP3   OH255843   1.319   0.716  47.445 -0.4920  0.3461  0.0861
11451TIP3    H155844   1.353   0.791  47.396 -1.0463 -0.0245 -0.8819
11451TIP3    H255845   1.236   0.747  47.482 -0.6717  0.2540 -0.2318
11452TIP3   OH255846   0.054   1.169   9.220 -0.4870 -0.1476 -0.1944
11452TIP3    H155847   0.001   1.248   9.226  1.5324  1.5324 -2.2933
11452TIP3    H255848   0.099   1.177   9.135  2.4942 -1.7566  1.0801
11453TIP3   OH255849   2.384   3.643  14.612  0.5474  0.8484  0.2521
11453TIP3    H155850   2.377   3.733  14.581  3.1837 -0.1058 -4.0622
11453TIP3    H255851   2.473   3.638  14.649  0.1898  0.1399  1.0309
11454TIP3   OH255852   3.709   3.590   8.190 -0.5401 -0.7399 -0.2219
11454TIP3    H155853   3.637   3.564   8.248  0.1657  0.3996  1.2277
11454TIP3    H255854   3.708   3.686   8.191  0.5781 -0.7028 -0.7022
11455TIP3   OH255855   0.781   2.365  36.653  0.1844 -0.1277 -0.5212
11455TIP3    H155856   0.797   2.456  36.678 -1.5360  0.3626 -1.0468
11455TIP3    H255857   0.735   2.371  36.570 -1.5467 -1.3855  0.2875
11456TIP3   OH255858   3.450   3.336   6.025 -0.6557  0.5336 -0.1604
11456TIP3    H155859   3.456   3.422   6.066  1.0313  0.0971  0.6034
11456TIP3    H255860   3.531   3.328   5.975 -1.4323 -0.0669 -1.3749
11457TIP3   OH255861   3.909   3.973  13.701 -0.5790  0.2775 -0.5398
11457TIP3    H155862   3.928   4.023  13.781  0.6929 -0.6144 -0.2523
11457TIP3    H255863   3.832   4.016  13.664 -1.3685  0.5554  1.2994
11458TIP3   OH255864   3.435   0.332   2.913  0.3440  0.3199 -0.1922
11458TIP3    H155865   3.394   0.412   2.944  0.7965 -0.3213  2.3265
11458TIP3    H255866   3.424   0.270   2.986  1.6000 -1.3309 -1.3263
11459TIP3   OH255867   1.042   1.226   3.876 -0.0418  0.1111 -0.4295
11459TIP3    H155868   0.997   1.142   3.874 -1.5360  0.7187  2.0034
11459TIP3    H255869   0.978   1.288   3.840  0.0092  0.5505  0.2113
11460TIP3   OH255870   3.542   2.469  47.066 -0.3274 -0.2365  0.1039
11460TIP3    H155871   3.603   2.541  47.051 -1.5425  0.4607 -1.8381
11460TIP3    H255872   3.581   2.420  47.139  1.6457  1.1228  0.0548
11461TIP3   OH255873   0.221   2.107  33.858 -0.9784  0.0083 -0.5564
11461TIP3    H155874   0.167   2.031  33.836 -0.6945  0.0242 -1.3057
11461TIP3    H255875   0.310   2.072  33.865 -1.0995 -0.0639  0.9160
11462TIP3   OH255876   0.681   2.493  37.276  0.0752 -0.4499  0.3847
11462TIP3    H155877   0.635   2.413  37.304 -0.9627  0.0847  0.2681
11462TIP3    H255878   0.733   2.519  37.353 -0.0145 -0.9263  0.6106
11463TIP3   OH255879   0.876   3.374  39.313 -0.0371  0.4545 -0.1190
11463TIP3    H155880   0.907   3.291  39.350  0.4573  0.6061 -0.1893
11463TIP3    H255881   0.945   3.400  39.252  2.1568  3.2504  3.1781
11464TIP3   OH255882   1.326   3.251  37.610  0.2736  0.2716  0.8669
11464TIP3    H155883   1.236   3.283  37.612 -0.8681 -2.3223 -1.6602
11464TIP3    H255884   1.371   3.308  37.548 -0.0925  0.5600  0.8680
11465TIP3   OH255885   3.999   0.909  44.402 -0.1676 -0.0774  0.2280
11465TIP3    H155886   3.945   0.913  44.481  0.0906  0.9762  0.3559
11465TIP3    H255887   3.940   0.938  44.332 -0.2481 -0.5323  0.1006
11466TIP3   OH255888   1.545   2.344  37.375 -0.5843 -0.1430 -0.2914
11466TIP3    H155889   1.463   2.378  37.340  0.4299  0.9035 -1.7711
11466TIP3    H255890   1.524   2.255  37.403 -2.3466  0.3030 -0.0838
11467TIP3   OH255891   2.392   0.101  46.306  0.8327  0.5522 -0.0583
11467TIP3    H155892   2.422   0.141  46.224  1.6441 -0.5060 -0.2866
11467TIP3    H255893   2.442   0.020  46.314 -0.1002  0.0408  0.8856
11468TIP3   OH255894   0.946   1.774  46.719  0.0764 -0.3813 -0.6570
11468TIP3    H155895   0.921   1.730  46.638 -1.3543  0.6962 -0.8507
11468TIP3    H255896   0.951   1.867  46.694  2.3935 -0.3089 -0.1322
11469TIP3   OH255897   0.199   1.918   4.185  0.7028 -0.1586  0.1766
11469TIP3    H155898   0.208   1.911   4.280  1.6172  2.1060  0.3079
11469TIP3    H255899   0.152   2.000   4.171  0.0978 -0.7229 -1.3299
11470TIP3   OH255900   2.962   1.365  39.496 -0.0657  0.3637 -0.0516
11470TIP3    H155901   2.924   1.404  39.575 -0.3588 -0.1822  0.0866
11470TIP3    H255902   2.924   1.277  39.493  0.7623  0.0095 -0.2221
11471TIP3   OH255903   3.087   3.325   4.800  0.2488 -0.2353  0.5646
11471TIP3    H155904   3.061   3.408   4.841  0.0840  0.8219 -1.5193
11471TIP3    H255905   3.011   3.300   4.747  0.4299 -1.5504  0.8997
11472TIP3   OH255906   3.402   2.874   2.594  0.3155  0.9310  0.7346
11472TIP3    H155907   3.360   2.894   2.511  1.9381  0.6337 -0.1832
11472TIP3    H255908   3.494   2.863   2.573  0.9499  1.8831  2.7301
11473TIP3   OH255909   1.789   1.765  10.507 -0.2184 -0.1071  0.7359
11473TIP3    H155910   1.800   1.835  10.443 -2.4586  0.5295  0.9469
11473TIP3    H255911   1.725   1.706  10.467  1.1368 -1.7161  0.8458
11474TIP3   OH255912   2.717   2.826  47.315 -0.2058 -0.7537  0.1472
11474TIP3    H155913   2.803   2.860  47.291 -0.9231  1.1142  0.0791
11474TIP3    H255914   2.719   2.734  47.287  1.0551 -0.2272 -1.6658
11475TIP3   OH255915   0.681   2.870   8.293  0.1093  0.2968 -0.4482
11475TIP3    H155916   0.706   2.824   8.373 -0.5625  1.1879  0.2949
11475TIP3    H255917   0.624   2.809   8.247 -1.1145  0.4969  0.7270
11476TIP3   OH255918   3.049   1.031  32.165  0.2538 -0.4972  0.3902
11476TIP3    H155919   3.077   0.976  32.092 -0.2269 -0.7247  0.3701
11476TIP3    H255920   3.060   0.977  32.243  0.4371 -0.3788  0.4458
11477TIP3   OH255921   1.471   1.227  42.348  0.7702  0.0252 -0.3799
11477TIP3    H155922   1.472   1.205  42.255 -0.3043  0.8174 -0.5877
11477TIP3    H255923   1.380   1.248  42.368  0.3611 -2.9483  1.5410
11478TIP3   OH255924   3.082   0.007  11.653  0.3020 -0.1492  0.1548
11478TIP3    H155925   3.030   0.087  11.659  1.8975  0.8927  0.8261
11478TIP3    H255926   3.112  -0.009  11.742  0.4558 -1.1828 -0.0758
11479TIP3   OH255927   2.966   3.556  28.674 -0.3979 -0.1452 -0.0968
11479TIP3    H155928   2.901   3.495  28.710  0.1370 -1.2628 -0.9689
11479TIP3    H255929   3.050   3.515  28.693 -0.0355  0.1682 -0.9761
11480TIP3   OH255930   1.358   3.122   2.838  0.3315  0.0937 -0.1379
11480TIP3    H155931   1.351   3.198   2.896 -1.4383  0.2979 -0.5559
11480TIP3    H255932   1.301   3.056   2.878  1.8336 -1.0482  0.2096
11481TIP3   OH255933   0.357   1.588  46.097  0.2462 -0.1312 -0.7209
11481TIP3    H155934   0.328   1.600  46.006 -1.3119  1.2924 -0.0980
11481TIP3    H255935   0.342   1.674  46.138  1.1895 -0.6651  0.8211
11482TIP3   OH255936   2.704   1.250   8.130 -0.6226  0.0163  0.1328
11482TIP3    H155937   2.696   1.190   8.204 -0.8488 -1.6774 -1.1901
11482TIP3    H255938   2.770   1.314   8.157 -2.0496  0.6079  2.4988
11483TIP3   OH255939   3.744   1.091  12.710 -0.3252  0.2276  0.4499
11483TIP3    H155940   3.770   1.102  12.802 -1.4769  2.7739  0.5576
11483TIP3    H255941   3.770   1.173  12.668 -0.5209 -0.5823 -1.3425
11484TIP3   OH255942   0.858   3.395  29.554  0.2695  0.5959  0.0468
11484TIP3    H155943   0.763   3.394  29.547  0.0796 -2.2051  1.5356
11484TIP3    H255944   0.875   3.405  29.648  1.3054 -1.5518  0.1357
11485TIP3   OH255945   0.573   2.869  44.709 -0.2048 -0.3401 -0.1861
11485TIP3    H155946   0.522   2.949  44.724 -0.5140 -0.4725 -0.5045
11485TIP3    H255947   0.517   2.798  44.740 -0.0958 -0.4633 -0.2694
11486TIP3   OH255948   2.675   3.879  45.276 -0.1068  0.4017  0.3952
11486TIP3    H155949   2.633   3.930  45.207 -2.2050 -1.3112  0.2902
11486TIP3    H255950   2.640   3.916  45.357 -0.7763 -0.1183  0.3564
11487TIP3   OH255951   1.789   0.761  38.801  0.5995 -0.2243 -0.5326
11487TIP3    H155952   1.694   0.764  38.797  0.5405 -2.1581 -1.5741
11487TIP3    H255953   1.816   0.853  38.804 -1.3400  0.3978  2.5594
11488TIP3   OH255954   0.330   0.860   2.362  0.2639 -0.5754  0.0420
11488TIP3    H155955   0.424   0.867   2.379  0.2465 -0.7304  0.2056
11488TIP3    H255956   0.319   0.769   2.332  0.4140 -0.1059 -1.5451
11489TIP3   OH255957   1.552   2.651  15.986 -0.1948  0.8909  0.1075
11489TIP3    H155958   1.487   2.689  16.046  0.3617  1.3358  0.4455
11489TIP3    H255959   1.630   2.706  15.998 -0.0709  0.9777 -1.0237
11490TIP3   OH255960   0.906   0.420  41.497  0.0398  0.5623 -0.1480
11490TIP3    H155961   0.895   0.480  41.423 -2.1166  1.3318  0.7195
11490TIP3    H255962   0.883   0.472  41.574 -1.0735 -1.1165  0.7157
11491TIP3   OH255963   1.069   3.417  28.282 -0.2579  0.4332 -0.1316
11491TIP3    H155964   0.988   3.408  28.231 -1.3847  0.3076  1.5899
11491TIP3    H255965   1.044   3.473  28.355  0.4247 -1.8378  1.9443
11492TIP3   OH255966   1.669   0.719  15.019  0.3304  0.5166  0.0541
11492TIP3    H155967   1.616   0.660  15.073  0.7694  0.5393  0.5128
11492TIP3    H255968   1.733   0.662  14.976  1.1397  0.7245  0.9613
11493TIP3   OH255969   3.567   3.359  10.050  0.0675  0.0609  0.3500
11493TIP3    H155970   3.526   3.310   9.979 -0.0380 -0.8582  1.0272
11493TIP3    H255971   3.493   3.394  10.100  0.1375  1.5640 -0.5402
11494TIP3   OH255972   0.823   2.413   0.315  0.1322  0.8727 -0.1024
11494TIP3    H155973   0.841   2.326   0.351  0.2834  0.9744  0.0697
11494TIP3    H255974   0.904   2.461   0.328 -0.1742  1.2528  0.4263
11495TIP3   OH255975   3.036   2.921   4.185  0.0813  0.5035 -0.0137
11495TIP3    H155976   3.111   2.979   4.192  2.4093 -1.8275 -2.8374
11495TIP3    H255977   3.038   2.869   4.266  1.7772  0.2481 -0.1946
11496TIP3   OH255978   3.853   0.903  45.938 -0.1761  0.2014 -0.3063
11496TIP3    H155979   3.822   0.943  45.856  0.4416  1.0129 -0.1569
11496TIP3    H255980   3.948   0.911  45.934  0.0914 -2.5280 -0.8935
11497TIP3   OH255981   4.107   0.244  36.664  0.2460  0.0168  0.2538
11497TIP3    H155982   4.132   0.252  36.756 -0.9808 -1.8797  0.8030
11497TIP3    H255983   4.180   0.199  36.623  0.7250  0.7233  0.3167
11498TIP3   OH255984   2.762   1.580  46.122 -0.9202  0.4119  0.2256
11498TIP3    H155985   2.794   1.505  46.172  0.1839 -0.7411 -2.0999
11498TIP3    H255986   2.832   1.645  46.127  0.3394 -0.7073 -1.8615
11499TIP3   OH255987   1.374   1.608  36.125  0.4301  0.0859 -0.6771
11499TIP3    H155988   1.284   1.636  36.110  0.5612  1.5938  1.0375
11499TIP3    H255989   1.372   1.513  36.113 -1.1895  0.1850 -1.4501
11500TIP3   OH255990   1.812   1.596  12.272  0.2493  0.1239 -0.9601
11500TIP3    H155991   1.892   1.649  12.265  0.9261 -0.9304 -1.5424
11500TIP3    H255992   1.808   1.548  12.189 -0.9659  0.1073 -0.9128
11501TIP3   OH255993   0.344   0.354  44.477 -0.0978  0.3181 -0.1741
11501TIP3    H155994   0.295   0.349  44.559 -0.2578 -0.8206 -0.3205
11501TIP3    H255995   0.356   0.262  44.450  1.2957  0.6122 -0.6280
11502TIP3   OH255996   2.801   2.332   1.278  0.0953 -0.5377 -0.2010
11502TIP3    H155997   2.879   2.317   1.225 -0.5325 -0.3875 -1.1963
11502TIP3    H255998   2.826   2.302   1.365  1.3941 -0.1175 -0.4020
11503TIP3   OH255999   1.203   1.117   8.411  0.2976  0.4858 -0.0379
11503TIP3    H156000   1.202   1.122   8.315  1.6361 -2.1076 -0.2630
11503TIP3    H256001   1.124   1.068   8.434  0.6456 -0.0309  0.0692
11504TIP3   OH256002   2.820   2.549  46.735 -0.0457  0.5159 -0.2483
11504TIP3    H156003   2.907   2.573  46.767 -0.5950  2.8938 -0.3219
11504TIP3    H256004   2.833   2.464  46.693  1.5550 -0.7275  2.4604
11505TIP3   OH256005   0.236   0.882  30.606  0.4824 -0.2159 -0.1495
11505TIP3    H156006   0.208   0.846  30.690 -0.6263 -2.3558 -1.3464
11505TIP3    H256007   0.163   0.939  30.579 -1.0290 -2.5777 -1.3703
11506TIP3   OH256008   2.247   0.510   7.759  0.0795  0.3200 -0.3646
11506TIP3    H156009   2.269   0.508   7.852 -0.3463  1.1533 -0.2318
11506TIP3    H256010   2.151   0.508   7.757 -0.0890  3.2608 -0.6087
11507TIP3   OH256011   2.372   2.549   0.140 -0.0015 -0.1858 -0.2474
11507TIP3    H156012   2.408   2.487   0.203  0.2221 -0.1609 -0.3487
11507TIP3    H256013   2.337   2.494   0.070  1.3283 -0.1822 -0.9517
11508TIP3   OH256014   2.382   1.465  11.474  0.3751  0.1155  0.3147
11508TIP3    H156015   2.373   1.559  11.458 -0.6178  0.1206  0.8094
11508TIP3    H256016   2.475   1.452  11.489  1.0572  0.5079 -2.8948
11509TIP3   OH256017   1.637   0.389  47.161 -0.0090 -0.4555  0.1086
11509TIP3    H156018   1.724   0.429  47.152  0.5962 -1.2405  1.9099
11509TIP3    H256019   1.577   0.453  47.124  1.0894  1.4194  1.3784
11510TIP3   OH256020   3.777   1.745  10.281  0.1336  0.6198 -0.0126
11510TIP3    H156021   3.754   1.790  10.362 -0.5558  1.6212 -0.7310
11510TIP3    H256022   3.711   1.775  10.218 -0.3325 -1.3693 -0.5500
11511TIP3   OH256023   2.569   3.556   2.663 -0.2607 -0.6721  0.0055
11511TIP3    H156024   2.650   3.600   2.639 -0.5922 -1.0955 -2.0685
11511TIP3    H256025   2.594   3.464   2.672 -0.1212 -0.5188  1.5863
11512TIP3   OH256026   3.339   0.022  28.131  0.1697 -0.0938  0.3998
11512TIP3    H156027   3.378   0.043  28.046 -0.3724  0.1603  0.2113
11512TIP3    H256028   3.268   0.085  28.141  1.3468  1.0658  1.8656
11513TIP3   OH256029   2.731   0.188  44.516  0.0288 -0.1853  0.4255
11513TIP3    H156030   2.821   0.202  44.544 -0.4075  0.6152  1.4827
11513TIP3    H256031   2.739   0.153  44.427  1.3642  0.2826  0.3407
11514TIP3   OH256032   1.770   4.041  15.799 -0.3432 -0.0410  0.1415
11514TIP3    H156033   1.699   4.005  15.746 -0.1376  0.3374 -0.4050
11514TIP3    H256034   1.812   3.965  15.838 -1.3502 -0.2437  0.8756
11515TIP3   OH256035   1.058   3.779  30.033  0.4968  0.0410  0.1009
11515TIP3    H156036   0.979   3.802  29.984  1.2685  1.3035 -0.5953
11515TIP3    H256037   1.061   3.842  30.105  0.1135 -0.9280  0.9919
11516TIP3   OH256038   3.880   2.642  14.906 -0.7397 -0.3805 -0.3508
11516TIP3    H156039   3.795   2.628  14.863  0.7739 -0.5731 -3.5936
11516TIP3    H256040   3.912   2.554  14.925 -1.2386 -0.3065  0.9024
11517TIP3   OH256041   0.577   4.078   4.265  0.0015 -0.2374 -0.3245
11517TIP3    H156042   0.506   4.029   4.223 -0.5885 -0.4759  0.9006
11517TIP3    H256043   0.532   4.135   4.327  0.8976 -0.5923  0.6637
11518TIP3   OH256044   0.661   0.439  47.714  0.4523 -0.3540 -0.3445
11518TIP3    H156045   0.608   0.399  47.783  1.7170  1.1038  1.5810
11518TIP3    H256046   0.638   0.532  47.716  3.1090  0.3807  0.7008
11519TIP3   OH256047   3.266   3.125  29.453  0.1534  0.1977 -0.1355
11519TIP3    H156048   3.284   3.218  29.469 -0.1910  0.4363 -1.0350
11519TIP3    H256049   3.234   3.092  29.536 -0.8931  1.1954 -0.1144
11520TIP3   OH256050   2.461   3.634   2.403  0.0936  0.3128 -0.1953
11520TIP3    H156051   2.373   3.649   2.436  0.2811  2.2967 -0.4250
11520TIP3    H256052   2.517   3.642   2.480  0.1221 -0.2106 -0.1640
11521TIP3   OH256053   0.712   0.670  43.007 -0.2565 -0.2660 -0.2622
11521TIP3    H156054   0.742   0.591  43.053  0.0636  0.1579  0.2729
11521TIP3    H256055   0.734   0.654  42.915  0.9827 -0.2770  0.0155
11522TIP3   OH256056   0.189   2.085  47.665  0.0122 -0.3131  0.4760
11522TIP3    H156057   0.169   2.037  47.746 -0.2384 -0.9523  0.0452
11522TIP3    H256058   0.109   2.078  47.613  0.4816 -0.6844 -0.2026
11523TIP3   OH256059   2.353   2.737  20.190  0.1478  0.1227 -0.1566
11523TIP3    H156060   2.262   2.763  20.186  0.0444 -0.2180 -0.1137
11523TIP3    H256061   2.359   2.683  20.270  0.8364  1.8597  1.0333
11524TIP3   OH256062   3.185   1.870   2.139  0.0025 -0.0832  0.2072
11524TIP3    H156063   3.251   1.890   2.205 -0.1721 -0.5334  0.5259
11524TIP3    H256064   3.224   1.899   2.056  0.9036 -0.9816  0.2916
11525TIP3   OH256065   3.168   3.718  41.146 -0.2846 -0.0600  0.0676
11525TIP3    H156066   3.203   3.791  41.094 -0.8906 -0.2805 -0.6696
11525TIP3    H256067   3.191   3.740  41.237  1.0216  0.1984 -0.3103
11526TIP3   OH256068   3.566   2.137  42.717 -0.6359 -0.5266 -0.2129
11526TIP3    H156069   3.537   2.199  42.783 -0.3645 -1.1418  0.4968
11526TIP3    H256070   3.646   2.176  42.681 -0.0474 -0.8065  0.7529
11527TIP3   OH256071   0.286   1.261   7.385  0.1978 -0.3564  0.3622
11527TIP3    H156072   0.308   1.354   7.389  0.7824 -0.3441 -1.8678
11527TIP3    H256073   0.346   1.219   7.448  0.2980  0.7018  0.9896
11528TIP3   OH256074   2.505   1.264  11.041 -0.1924 -0.2264 -0.3798
11528TIP3    H156075   2.439   1.331  11.020 -0.8927 -0.8470 -0.2142
11528TIP3    H256076   2.539   1.237  10.956 -1.9439 -1.6539 -0.6967
11529TIP3   OH256077   0.282   1.891  38.014 -0.3076 -0.4801 -0.1383
11529TIP3    H156078   0.270   1.797  38.002  0.5962 -0.7606  0.9577
11529TIP3    H256079   0.196   1.930  37.995 -1.1544 -1.6942  1.0377
11530TIP3   OH256080   0.024   1.534  19.146  0.7329 -0.0269 -0.3604
11530TIP3    H156081  -0.039   1.590  19.192  1.6322  0.1981  0.6394
11530TIP3    H256082   0.011   1.447  19.184  0.3329 -0.2058 -0.8893
11531TIP3   OH256083   0.151   1.059  35.023 -0.7296 -0.2802  0.3750
11531TIP3    H156084   0.159   1.152  35.044  0.2713 -0.2154 -0.2336
11531TIP3    H256085   0.194   1.014  35.095  1.1123 -0.1355 -0.5748
11532TIP3   OH256086   1.781   1.197  33.495  0.0913  0.2069  0.1492
11532TIP3    H156087   1.811   1.259  33.561  0.0388  2.1189 -1.5210
11532TIP3    H256088   1.768   1.250  33.416  0.4931 -2.0022 -1.5121
11533TIP3   OH256089   0.152   1.844   6.005 -0.0441 -0.0047 -0.0978
11533TIP3    H156090   0.229   1.893   6.034 -0.0241  0.0050 -0.1661
11533TIP3    H256091   0.148   1.768   6.064 -1.7493  1.5456  1.9318
11534TIP3   OH256092   1.913   1.620  32.547  0.0008 -0.1021 -0.1500
11534TIP3    H156093   1.989   1.641  32.602 -1.0582 -1.2045  1.8556
11534TIP3    H256094   1.889   1.703  32.506 -0.0328  1.1690  2.2583
11535TIP3   OH256095   0.694   0.435  37.856  0.2084 -0.4809  0.9798
11535TIP3    H156096   0.637   0.500  37.813 -0.4484 -0.4785  1.8246
11535TIP3    H256097   0.745   0.486  37.919 -0.5291 -0.8020  1.8645
11536TIP3   OH256098   0.567   1.811   4.265  0.4886 -0.1416  0.1628
11536TIP3    H156099   0.586   1.822   4.172 -2.5718  0.5178 -0.5019
11536TIP3    H256100   0.533   1.721   4.272 -1.6522  0.6088  0.0920
11537TIP3   OH256101   2.927   3.509  15.519  0.1038 -0.3858 -0.4281
11537TIP3    H156102   3.022   3.519  15.520  0.1254 -0.5695 -0.5492
11537TIP3    H256103   2.913   3.414  15.517 -0.0782 -0.3485 -0.8733
11538TIP3   OH256104   0.787   1.474  43.321 -0.0905  0.3690  0.2254
11538TIP3    H156105   0.862   1.424  43.352  0.4375  0.8850 -0.2157
11538TIP3    H256106   0.721   1.408  43.301  0.2646 -0.0896  0.5519
11539TIP3   OH256107   2.855   2.108  16.719 -0.7381  0.0357  0.0518
11539TIP3    H156108   2.850   2.021  16.679 -3.6064  1.0442 -2.1161
11539TIP3    H256109   2.895   2.163  16.653  1.0435  0.4622  1.4017
11540TIP3   OH256110   4.087   0.856  14.855 -0.3348 -0.2248 -0.5033
11540TIP3    H156111   4.113   0.780  14.908 -1.5482 -1.0658 -1.0523
11540TIP3    H256112   4.042   0.818  14.780 -2.9796  1.0731  0.3046
11541TIP3   OH256113   2.457   3.831  33.588  0.2723 -0.1075 -0.0194
11541TIP3    H156114   2.513   3.900  33.623 -0.9756 -0.0555  2.0089
11541TIP3    H256115   2.370   3.871  33.582  0.0399 -0.7684 -1.2271
11542TIP3   OH256116   0.012   3.579  25.711  0.3536 -0.0547 -0.8088
11542TIP3    H156117  -0.017   3.539  25.793 -0.2464  1.3414 -0.3111
11542TIP3    H256118   0.019   3.672  25.731  2.6325  0.0195 -1.6559
11543TIP3   OH256119   3.960   3.238  14.270 -0.4611  0.6880  0.3278
11543TIP3    H156120   3.983   3.152  14.236  2.4547  2.0578 -1.5459
11543TIP3    H256121   3.865   3.246  14.255 -0.2872 -1.0287 -2.2330
11544TIP3   OH256122   1.401   3.951  14.130  0.6598  0.0406 -0.3101
11544TIP3    H156123   1.342   3.915  14.062 -0.6261 -1.6322  1.5643
11544TIP3    H256124   1.489   3.930  14.098  0.2810  1.5525 -2.6328
11545TIP3   OH256125   3.759   4.094   0.237 -0.6073  0.1498 -0.1893
11545TIP3    H156126   3.829   4.070   0.297 -0.6499 -0.3564 -0.3349
11545TIP3    H256127   3.773   4.039   0.160 -1.4468 -0.3298 -0.0240
11546TIP3   OH256128   3.759   0.996  42.657  0.7091 -0.1634  0.1183
11546TIP3    H156129   3.815   0.985  42.580 -0.2851  1.4430 -0.8653
11546TIP3    H256130   3.670   0.998  42.622  0.1896 -0.1599  1.4068
11547TIP3   OH256131   2.748   3.127  47.327  0.6446 -0.4574 -0.8759
11547TIP3    H156132   2.785   3.053  47.280  0.9093  0.4522 -2.1568
11547TIP3    H256133   2.815   3.151  47.391  0.3352 -1.6290 -0.0827
11548TIP3   OH256134   2.298   0.350  35.418 -0.1315  0.2760 -0.3269
11548TIP3    H156135   2.298   0.445  35.431  0.8261  0.2867 -0.3261
11548TIP3    H256136   2.269   0.315  35.503  0.4513  0.5377 -0.0146
11549TIP3   OH256137   2.573   0.402  10.570  0.2519 -0.3532  0.0073
11549TIP3    H156138   2.525   0.470  10.522  0.3750 -0.6154 -0.4956
11549TIP3    H256139   2.527   0.321  10.549  0.2294 -0.4514  0.4439
11550TIP3   OH256140   1.240   1.183  44.812 -0.4332 -0.2140 -0.3049
11550TIP3    H156141   1.319   1.217  44.770  0.3273  0.4353  1.5809
11550TIP3    H256142   1.263   1.172  44.904 -2.2445 -0.9779  0.1156
11551TIP3   OH256143   0.569   1.380  15.962  0.0706  0.0160  0.1636
11551TIP3    H156144   0.606   1.296  15.938 -2.1901 -1.1865  0.6188
11551TIP3    H256145   0.614   1.443  15.905  1.9939 -1.4150  0.0057
11552TIP3   OH256146   2.850   0.035  34.292 -0.0998  0.5202 -0.0218
11552TIP3    H156147   2.920   0.033  34.227  0.8994 -0.8874  1.0422
11552TIP3    H256148   2.857   0.122  34.333 -0.5408  1.2998 -1.5239
11553TIP3   OH256149   3.856   1.797  37.304  0.0022  0.1870  0.2319
11553TIP3    H156150   3.861   1.762  37.393  1.4220  0.3635  0.2447
11553TIP3    H256151   3.910   1.876  37.307  1.5772 -0.7783 -1.2153
11554TIP3   OH256152   2.758   0.627  44.670 -0.0818  0.0767 -0.2411
11554TIP3    H156153   2.684   0.681  44.642  1.0633  2.0119  0.2287
11554TIP3    H256154   2.822   0.637  44.599 -0.1073 -1.2757 -0.4740
11555TIP3   OH256155   0.823   1.205   3.511  0.4088 -0.1395 -0.1191
11555TIP3    H156156   0.801   1.296   3.492 -1.5999 -0.5079  0.1914
11555TIP3    H256157   0.826   1.162   3.425  0.6200  0.0802 -0.2195
11556TIP3   OH256158   0.375   0.053  11.912 -0.3531  0.0611 -0.8157
11556TIP3    H156159   0.426  -0.028  11.916  0.0901  0.3663  0.0797
11556TIP3    H256160   0.438   0.121  11.886 -0.2541  0.4464  0.3444
11557TIP3   OH256161   2.300   1.462  14.996  0.4910 -0.2339 -0.4747
11557TIP3    H156162   2.321   1.409  15.072  0.1313 -0.0610 -0.2473
11557TIP3    H256163   2.232   1.523  15.028 -0.6377 -1.0410 -1.2690
11558TIP3   OH256164   2.671   1.754   0.368  0.1863  0.7471  0.1475
11558TIP3    H156165   2.614   1.831   0.378 -0.0352  0.9694 -2.2129
11558TIP3    H256166   2.692   1.728   0.458 -1.6549  2.1275  1.0559
11559TIP3   OH256167   3.741   1.512  34.105 -0.0620  0.6103  0.0593
11559TIP3    H156168   3.649   1.488  34.097 -0.0570  0.6076  0.0072
11559TIP3    H256169   3.752   1.535  34.197  0.2349 -0.8415  0.4099
11560TIP3   OH256170   2.217   1.941  45.110 -0.2119  0.0944  0.9361
11560TIP3    H156171   2.155   2.013  45.097  0.9766  0.8776 -1.1002
11560TIP3    H256172   2.262   1.962  45.192 -0.4491  1.2788  0.7810
11561TIP3   OH256173   2.954   3.786  15.108  0.2751  0.1295 -0.4984
11561TIP3    H156174   3.027   3.725  15.094  0.1022 -0.3066  0.4225
11561TIP3    H256175   2.935   3.779  15.201 -0.3213  0.9597 -0.5517
11562TIP3   OH256176   3.841   2.707   6.596  0.1103 -0.2142 -0.2511
11562TIP3    H156177   3.823   2.662   6.679 -0.6638  0.1312 -0.2234
11562TIP3    H256178   3.792   2.789   6.602  0.4787  0.0514 -0.8308
11563TIP3   OH256179   1.773   0.725   2.066  0.0397  0.1904 -0.0967
11563TIP3    H156180   1.780   0.630   2.066 -1.0269  0.0939  0.3817
11563TIP3    H256181   1.762   0.749   1.974  0.3238 -0.1424 -0.2183
11564TIP3   OH256182   2.787   0.076   8.968 -0.3494 -0.0123  0.1500
11564TIP3    H156183   2.779   0.121   9.052 -1.1544  0.2619 -0.0719
11564TIP3    H256184   2.715   0.109   8.915  1.2508  1.2885 -1.3495
11565TIP3   OH256185   3.460   2.693  11.245  0.5331 -0.5616  0.7523
11565TIP3    H156186   3.391   2.727  11.189 -0.0970 -1.6180  0.8428
11565TIP3    H256187   3.542   2.718  11.202  0.1608  1.6802  1.2196
11566TIP3   OH256188   3.115   2.652  39.397  0.0086 -0.0393 -0.3301
11566TIP3    H156189   3.164   2.721  39.440 -0.7619  0.0845  0.3841
11566TIP3    H256190   3.046   2.629  39.460 -1.1738  0.1764 -1.5090
11567TIP3   OH256191   3.676   0.711  34.983  0.2216  0.2277  0.5444
11567TIP3    H156192   3.668   0.806  34.994 -0.8101  0.3603 -1.0039
11567TIP3    H256193   3.683   0.677  35.072 -1.5793  1.5922  1.2815
11568TIP3   OH256194   0.979   1.489  45.956 -0.3836 -0.1033 -0.1620
11568TIP3    H156195   0.893   1.445  45.956 -1.3054  1.4903  2.0044
11568TIP3    H256196   1.002   1.495  46.049  0.3942  2.5798 -0.4446
11569TIP3   OH256197   3.031   2.601   7.495  0.1100 -0.3009  0.1719
11569TIP3    H156198   3.004   2.530   7.553 -1.0160 -0.5004 -0.5813
11569TIP3    H256199   3.125   2.586   7.482 -0.3347 -2.4693 -1.0418
11570TIP3   OH256200   2.436   1.787  18.330 -0.1936 -0.7481 -0.3074
11570TIP3    H156201   2.460   1.836  18.409 -0.9224  0.9270 -1.0711
11570TIP3    H256202   2.356   1.830  18.298 -0.3127 -1.8349 -1.5749
11571TIP3   OH256203   2.875   3.989  38.517 -0.2264 -0.4025 -0.3317
11571TIP3    H156204   2.915   4.007  38.432 -2.8219 -0.5513 -1.6853
11571TIP3    H256205   2.872   3.893  38.522 -0.4955 -0.3895 -0.2606
11572TIP3   OH256206   2.700   2.065  46.347  0.2625  0.3344 -0.0725
11572TIP3    H156207   2.708   1.990  46.406 -0.7186 -0.2870 -0.7089
11572TIP3    H256208   2.773   2.056  46.286  0.4615  0.2112  0.1785
11573TIP3   OH256209   0.478   3.356   1.275 -0.3570  0.0274  0.0535
11573TIP3    H156210   0.554   3.304   1.302 -0.7786 -0.6332  0.0087
11573TIP3    H256211   0.430   3.297   1.216 -0.2200  0.9070 -0.9703
11574TIP3   OH256212   2.124   3.322   7.186 -0.4717 -0.2548  0.1185
11574TIP3    H156213   2.200   3.295   7.237  0.8511  0.6768 -1.2690
11574TIP3    H256214   2.125   3.418   7.191 -2.2872 -0.2405  1.0565
11575TIP3   OH256215   2.766   1.757   2.848 -0.0011 -0.1675 -0.3941
11575TIP3    H156216   2.851   1.744   2.890  0.7055 -0.4381 -1.8473
11575TIP3    H256217   2.779   1.834   2.792 -0.7386 -0.1706 -0.5787
11576TIP3   OH256218   0.501   2.077   9.260  0.0002  0.2130  0.4893
11576TIP3    H156219   0.449   1.997   9.262  1.2528 -0.6540 -0.3751
11576TIP3    H256220   0.437   2.147   9.273 -1.1856 -0.8789  0.7912
11577TIP3   OH256221   3.930   0.378   7.426  0.0983 -0.3144 -0.1760
11577TIP3    H156222   4.019   0.397   7.397  0.1877  0.0367  0.3181
11577TIP3    H256223   3.934   0.287   7.457  0.2669 -0.3229 -0.2247
11578TIP3   OH256224   1.815   0.151  33.598 -0.1522  0.2413  0.4434
11578TIP3    H156225   1.759   0.209  33.650 -0.1960  1.1359 -0.5784
11578TIP3    H256226   1.904   0.183  33.612 -0.1371  0.3180  0.1739
11579TIP3   OH256227   0.730   1.533   7.003  0.6113 -0.0793  0.3502
11579TIP3    H156228   0.673   1.470   7.048 -0.3387  0.3860 -0.1809
11579TIP3    H256229   0.704   1.618   7.039  0.2128  0.2436 -0.6835
11580TIP3   OH256230   1.656   0.735  40.355 -0.5542  0.4671  0.1076
11580TIP3    H156231   1.588   0.675  40.383 -0.6550  0.7392  0.4438
11580TIP3    H256232   1.714   0.681  40.300 -0.7596  0.1165  0.2297
11581TIP3   OH256233   3.961   2.281   0.169 -0.4001 -0.1763  0.2657
11581TIP3    H156234   3.983   2.192   0.140  1.2288  0.7151 -1.4676
11581TIP3    H256235   3.894   2.311   0.108 -0.2213  0.1368  0.2206
11582TIP3   OH256236   2.591   2.911  39.412 -0.4972  0.4661  0.1509
11582TIP3    H156237   2.525   2.978  39.429 -1.0663 -0.1184  0.2953
11582TIP3    H256238   2.652   2.918  39.486 -0.8772  0.4412  0.4719
11583TIP3   OH256239   2.462   1.743   8.180  0.5440  0.0125 -0.5683
11583TIP3    H156240   2.407   1.817   8.205  1.3275  0.1426  0.9163
11583TIP3    H256241   2.456   1.739   8.085 -1.0816  0.7371 -0.5241
11584TIP3   OH256242   0.120   1.842  43.538  0.2859  0.2927 -0.0927
11584TIP3    H156243   0.165   1.925  43.552 -0.7052  1.2091 -1.9536
11584TIP3    H256244   0.042   1.847  43.592  0.6506  0.1838  0.4540
11585TIP3   OH256245   2.939   2.113  39.977  0.2542  0.3562 -0.4261
11585TIP3    H156246   2.888   2.178  40.025 -0.6691 -0.1566 -0.6881
11585TIP3    H256247   3.002   2.165  39.927 -0.4445  1.0554 -0.6121
11586TIP3   OH256248   0.031   2.946  15.252 -0.2850  0.2327  0.7418
11586TIP3    H156249  -0.032   3.010  15.219  0.1249  0.7089  0.8728
11586TIP3    H256250   0.039   2.882  15.181  1.3255  1.7703 -0.5756
11587TIP3   OH256251   0.406   2.344  31.863 -0.1194 -0.1765  0.1102
11587TIP3    H156252   0.408   2.427  31.815 -0.1944  0.1175  0.6102
11587TIP3    H256253   0.440   2.279  31.800 -0.5945  0.1302 -0.4783
11588TIP3   OH256254   2.759   2.398   0.702 -0.4904  0.2353  0.5198
11588TIP3    H156255   2.784   2.423   0.791  2.3003 -0.5117  0.0335
11588TIP3    H256256   2.764   2.480   0.653  1.6539  0.0647  0.3606
11589TIP3   OH256257   0.090   0.613  13.674  0.4181 -0.1400  0.1644
11589TIP3    H156258   0.104   0.696  13.721  0.4975 -0.4242  0.6476
11589TIP3    H256259   0.178   0.576  13.665  0.4108 -0.0568 -0.2710
11590TIP3   OH256260   3.049   3.930  30.210 -0.3279  0.2706 -0.0897
11590TIP3    H156261   3.144   3.915  30.211 -0.6428 -2.0176  0.1211
11590TIP3    H256262   3.019   3.889  30.128 -1.1448  1.0560 -0.2032
11591TIP3   OH256263   1.722   1.784  34.756 -0.0722  0.2245 -0.0382
11591TIP3    H156264   1.674   1.769  34.838  1.8607 -0.4234  1.0347
11591TIP3    H256265   1.748   1.697  34.727  0.4424  0.5649 -0.6163
11592TIP3   OH256266   0.090   0.892  41.818  0.2123 -0.2042  0.1545
11592TIP3    H156267   0.129   0.821  41.767 -1.8212 -1.3271  0.0536
11592TIP3    H256268   0.035   0.848  41.883  0.1855  1.2567  1.1784
11593TIP3   OH256269   3.085   0.849  15.196 -0.1479 -0.2788  0.5013
11593TIP3    H156270   3.034   0.929  15.204 -1.7572 -1.1681 -0.4149
11593TIP3    H256271   3.043   0.787  15.255  2.4855  0.1219  3.0398
11594TIP3   OH256272   0.733   4.033   2.051  0.3108  0.9077  0.1449
11594TIP3    H156273   0.795   3.997   1.988  0.1234  0.3077  0.3011
11594TIP3    H256274   0.666   3.966   2.061 -1.4580  2.3306 -1.4935
11595TIP3   OH256275   4.070   0.262   2.876 -0.1883  0.1429  0.3688
11595TIP3    H156276   3.979   0.277   2.849 -0.3632 -0.8517  0.3721
11595TIP3    H256277   4.069   0.277   2.971 -0.4495 -0.2969  0.4380
11596TIP3   OH256278   0.406   1.074  10.886 -0.2557 -0.1791  0.4821
11596TIP3    H156279   0.491   1.116  10.889 -0.7067  0.7888  0.1064
11596TIP3    H256280   0.390   1.057  10.794  0.4009 -2.2291  0.7065
11597TIP3   OH256281   0.158   0.035  38.121  0.2239  0.3414 -0.3456
11597TIP3    H156282   0.156   0.103  38.054 -2.5968 -0.3091 -1.0591
11597TIP3    H256283   0.176  -0.046  38.072 -1.4303 -0.0757 -0.3261
11598TIP3   OH256284   1.118   3.577   0.579 -0.1506  0.4260  0.1840
11598TIP3    H156285   1.044   3.612   0.628 -0.8782 -1.3551  0.4123
11598TIP3    H256286   1.189   3.573   0.643 -0.8566 -1.0914  0.9133
11599TIP3   OH256287   3.436   0.467   4.538 -0.0602 -0.7977 -0.1258
11599TIP3    H156288   3.435   0.532   4.609 -1.5538  0.2475 -1.0430
11599TIP3    H256289   3.505   0.406   4.563  0.7727  0.6224  1.2457
11600TIP3   OH256290   2.774   2.257   8.714  0.0678 -0.3876 -0.3345
11600TIP3    H156291   2.699   2.241   8.656 -0.7268 -2.0953  1.0610
11600TIP3    H256292   2.761   2.346   8.747 -2.0421 -1.0267  0.7463
11601TIP3   OH256293   0.908   1.983  47.596  0.2279  0.2133  0.4445
11601TIP3    H156294   0.933   2.072  47.572  0.7506  0.2788  1.2297
11601TIP3    H256295   0.873   1.990  47.685 -0.0156 -0.3200  0.3974
11602TIP3   OH256296   2.449   1.148  32.119  0.3882  0.6336  0.3256
11602TIP3    H156297   2.436   1.065  32.073  0.5672 -0.2299  1.7355
11602TIP3    H256298   2.383   1.146  32.189 -0.2942  2.1812 -0.2307
11603TIP3   OH256299   0.362   2.977  32.132  0.2283  0.5912 -0.3842
11603TIP3    H156300   0.287   2.932  32.093 -0.4520  1.9438 -0.6932
11603TIP3    H256301   0.432   2.967  32.067 -0.3296  1.1732 -1.0912
11604TIP3   OH256302   2.544   3.257   8.905  0.2230 -0.2641 -0.0500
11604TIP3    H156303   2.508   3.193   8.843 -0.1248 -0.6365  0.5294
11604TIP3    H256304   2.506   3.340   8.877  0.0497 -0.4329 -0.3279
11605TIP3   OH256305   2.563   2.320  47.536  0.1893  0.7820  0.1970
11605TIP3    H156306   2.645   2.362  47.509 -0.2662  1.0358 -0.8612
11605TIP3    H256307   2.510   2.319  47.456 -0.2965 -0.6679  0.5035
11606TIP3   OH256308   3.032   1.951  10.294 -0.0937  0.9772 -0.4492
11606TIP3    H156309   3.049   1.950  10.388 -0.1955 -0.6116 -0.4282
11606TIP3    H256310   3.104   2.003  10.257  0.3418  1.0126  0.4262
11607TIP3   OH256311   0.050   3.374  32.318 -0.1602  0.4572  1.2255
11607TIP3    H156312   0.017   3.342  32.402 -1.3586  0.2439  0.6878
11607TIP3    H256313   0.071   3.294  32.269 -3.3784  0.3526 -0.2100
11608TIP3   OH256314   2.530   0.403  40.198 -0.3268 -0.2375 -0.4132
11608TIP3    H156315   2.480   0.330  40.161  0.8924 -1.1645 -0.2716
11608TIP3    H256316   2.464   0.471  40.215 -1.3046 -0.8405 -1.6670
11609TIP3   OH256317   3.132   4.094   6.167  0.5818  0.1415  0.2361
11609TIP3    H156318   3.050   4.138   6.188  0.6475 -0.2827  1.4124
11609TIP3    H256319   3.162   4.058   6.250  1.5651 -0.3769 -0.3330
11610TIP3   OH256320   3.614   4.020  39.099  0.0559  0.7921 -0.5827
11610TIP3    H156321   3.638   4.110  39.119  0.1040  0.5981  0.2527
11610TIP3    H256322   3.551   3.995  39.167  0.5377 -0.0135 -0.4060
11611TIP3   OH256323   2.920   3.693  34.460  0.0904 -0.4768  0.4052
11611TIP3    H156324   2.839   3.682  34.510 -1.4145 -0.8575 -1.9546
11611TIP3    H256325   2.954   3.778  34.488 -0.7520 -0.6144  1.9453
11612TIP3   OH256326   2.491   1.180  38.242  0.0307  0.0950  0.6571
11612TIP3    H156327   2.509   1.086  38.250 -0.9404 -0.1192  0.5329
11612TIP3    H256328   2.558   1.222  38.295  2.3486 -0.4653 -1.6011
11613TIP3   OH256329   0.066   2.570   5.188 -0.2444 -0.2124  0.2383
11613TIP3    H156330   0.052   2.567   5.094 -0.9023 -1.5571  0.3502
11613TIP3    H256331   0.098   2.482   5.210  2.2223  0.7822  0.9539
11614TIP3   OH256332   0.786   3.632  36.110  0.0468 -0.0462  0.2787
11614TIP3    H156333   0.824   3.562  36.057  1.4869 -0.1248  1.3291
11614TIP3    H256334   0.838   3.710  36.087  0.3447  0.0285  1.1523
11615TIP3   OH256335   1.508   2.307  45.013  0.0035 -0.8412 -0.0811
11615TIP3    H156336   1.602   2.320  45.027 -0.1976  1.3121 -0.3718
11615TIP3    H256337   1.502   2.231  44.955  1.5199 -1.3115  0.3395
11616TIP3   OH256338   1.913   3.305   2.487 -0.6731  0.4158  0.0495
11616TIP3    H156339   1.888   3.370   2.422  0.8792  1.6809  0.6331
11616TIP3    H256340   1.994   3.339   2.525 -1.1424 -0.6065  2.1595
11617TIP3   OH256341   1.802   0.505  37.412  0.1764 -0.0484 -0.4414
11617TIP3    H156342   1.761   0.589  37.435  1.6994  0.9607 -1.2727
11617TIP3    H256343   1.788   0.450  37.489  0.2248  1.3780  0.6150
11618TIP3   OH256344   0.883   0.072  45.963  0.1948  0.1036 -0.8346
11618TIP3    H156345   0.792   0.093  45.939  0.1984  0.7521 -0.3125
11618TIP3    H256346   0.890  -0.022  45.951 -0.5132  0.0666 -1.0003
11619TIP3   OH256347   1.791   3.514  35.640  0.4442  0.6600 -0.1752
11619TIP3    H156348   1.747   3.500  35.556  0.2712  1.9488 -0.3258
11619TIP3    H256349   1.738   3.467  35.704  0.5103 -0.2355 -0.7651
11620TIP3   OH256350   2.220   1.147  41.106  0.0594 -0.7226  0.1588
11620TIP3    H156351   2.163   1.106  41.042 -0.6000 -1.4165  1.1586
11620TIP3    H256352   2.199   1.103  41.189  0.3723  0.6242  0.9880
11621TIP3   OH256353   0.639   3.666   4.368 -1.3550 -0.3410 -0.0627
11621TIP3    H156354   0.584   3.627   4.436  0.4229 -0.5631  1.3118
11621TIP3    H256355   0.695   3.594   4.339 -2.5326 -0.4368 -2.3352
11622TIP3   OH256356   1.695   1.191  46.609  0.2046  0.6096 -0.1669
11622TIP3    H156357   1.760   1.132  46.569 -0.8038 -0.0087 -0.9305
11622TIP3    H256358   1.654   1.235  46.534 -1.4040 -0.2305  0.1888
11623TIP3   OH256359   0.158   1.678  13.723  0.0022  0.2130  0.1754
11623TIP3    H156360   0.246   1.687  13.759 -0.2721  0.5392  0.7771
11623TIP3    H256361   0.100   1.708  13.793 -0.5169  1.3991 -0.7246
11624TIP3   OH256362   3.483   1.884  45.042 -0.0677 -0.2259 -0.2999
11624TIP3    H156363   3.485   1.966  44.993  2.4143 -0.4315 -0.6675
11624TIP3    H256364   3.561   1.837  45.013 -2.0134 -3.2917 -1.0059
11625TIP3   OH256365   0.518   2.204  44.441 -0.5644  0.0750 -0.0430
11625TIP3    H156366   0.459   2.190  44.367 -0.5532  1.2754 -0.2965
11625TIP3    H256367   0.462   2.237  44.511 -0.6348 -1.4005  0.6285
11626TIP3   OH256368   0.684   0.582  14.837  0.2539 -0.4940 -0.5348
11626TIP3    H156369   0.765   0.542  14.805  0.7213 -2.4525  2.6684
11626TIP3    H256370   0.633   0.509  14.874 -2.1339  0.9485 -0.7447
11627TIP3   OH256371   2.973   2.373  37.251 -0.1420 -0.1720 -0.2830
11627TIP3    H156372   3.028   2.370  37.328 -0.5027  0.9988  0.0441
11627TIP3    H256373   2.884   2.386  37.285 -0.2657  0.6760 -0.8890
11628TIP3   OH256374   0.473   2.716   8.545  0.4302  0.1730 -0.7566
11628TIP3    H156375   0.495   2.630   8.581 -0.7064 -0.2269 -0.9791
11628TIP3    H256376   0.415   2.756   8.610  1.0374  0.8320 -0.5998
11629TIP3   OH256377   3.232   1.190   8.774 -0.2019 -0.1256 -0.6956
11629TIP3    H156378   3.266   1.166   8.688  2.3126 -1.4288  0.5372
11629TIP3    H256379   3.184   1.271   8.759  2.2133  1.0323 -2.9738
11630TIP3   OH256380   1.573   0.513  12.781 -0.6387  0.4360 -0.2994
11630TIP3    H156381   1.575   0.609  12.778  2.9849  0.6221  2.2751
11630TIP3    H256382   1.653   0.486  12.736 -0.1526 -1.1925  1.4190
11631TIP3   OH256383   2.179   2.924  44.133  0.3008 -0.0758 -0.5294
11631TIP3    H156384   2.251   2.960  44.186  0.5973 -0.5469 -0.6082
11631TIP3    H256385   2.117   2.889  44.197 -0.7571  1.9206 -0.3633
11632TIP3   OH256386   0.603   0.018  34.559 -0.2319 -0.4720 -0.3718
11632TIP3    H156387   0.570   0.101  34.526  0.6955  0.0167 -0.1140
11632TIP3    H256388   0.686   0.005  34.513  2.1281  1.1970  2.9562
11633TIP3   OH256389   3.928   1.461  47.693 -0.0519 -0.5123 -0.4010
11633TIP3    H156390   3.967   1.430  47.775 -0.4555 -0.1988 -0.0895
11633TIP3    H256391   3.837   1.477  47.714 -0.3323 -1.1188 -1.1027
11634TIP3   OH256392   2.075   1.614  17.760 -0.6529  0.1534 -0.0182
11634TIP3    H156393   2.114   1.665  17.831 -2.7975  0.4610  1.0200
11634TIP3    H256394   2.125   1.532  17.758  2.1118  1.7239 -0.9626
11635TIP3   OH256395   3.647   1.382   0.745  0.4759  0.0236  0.2619
11635TIP3    H156396   3.581   1.448   0.724  0.3835  0.3148  1.3759
11635TIP3    H256397   3.730   1.425   0.728  0.4624  0.9614  2.2839
11636TIP3   OH256398   2.506   1.224  47.202  0.4907  0.4339 -0.0503
11636TIP3    H156399   2.447   1.291  47.238  0.8972 -0.4401  2.4693
11636TIP3    H256400   2.453   1.178  47.138 -1.0753  0.7150  0.9720
11637TIP3   OH256401   3.790   1.878  14.517  0.3347  0.5879  1.1151
11637TIP3    H156402   3.719   1.940  14.502 -1.4566 -1.8199 -1.4975
11637TIP3    H256403   3.763   1.828  14.594 -1.2046 -0.6374 -0.1420
11638TIP3   OH256404   1.672   2.289  34.711  0.1578 -0.3636 -0.4310
11638TIP3    H156405   1.701   2.370  34.753  3.0376 -1.7935  0.6231
11638TIP3    H256406   1.578   2.300  34.699  0.3608  2.8819  0.1686
11639TIP3   OH256407   0.239   4.004  29.966  0.0435  0.8053 -0.4759
11639TIP3    H156408   0.221   3.912  29.943 -2.5893  0.1024  3.4239
11639TIP3    H256409   0.326   4.002  30.004 -0.0559 -0.1579 -0.2610
11640TIP3   OH256410   3.978   0.898   5.265 -0.6888 -0.3775  0.2889
11640TIP3    H156411   3.996   0.842   5.340 -2.2171 -0.3572  0.7056
11640TIP3    H256412   3.943   0.978   5.303 -1.9822 -0.5724 -0.4457
11641TIP3   OH256413   2.359   1.958  18.934  0.7885 -0.3869  0.2935
11641TIP3    H156414   2.358   1.997  19.021  1.1019 -1.2163  0.6759
11641TIP3    H256415   2.430   2.005  18.889  0.8341 -0.1736  0.5804
11642TIP3   OH256416   0.125   3.374  11.187 -0.0079  0.1811 -0.1790
11642TIP3    H156417   0.176   3.454  11.198 -1.3358  1.7418 -3.6992
11642TIP3    H256418   0.155   3.338  11.103 -2.3183 -0.6486 -0.7232
11643TIP3   OH256419   2.941   0.444  12.357  0.4517 -0.0455  0.1399
11643TIP3    H156420   2.939   0.538  12.340 -1.5160 -0.0728  0.0465
11643TIP3    H256421   2.890   0.405  12.287  1.1434 -1.2023  0.2438
11644TIP3   OH256422   3.597   3.181  43.600 -0.3982 -0.2897  0.3524
11644TIP3    H156423   3.672   3.176  43.542  0.3956 -2.2312  1.4448
11644TIP3    H256424   3.598   3.271  43.634  1.6244 -0.3519  0.5737
11645TIP3   OH256425   2.068   0.655   2.080 -0.1939 -0.3189  0.2000
11645TIP3    H156426   1.981   0.694   2.071 -0.6975 -0.7900  2.3447
11645TIP3    H256427   2.056   0.585   2.144  2.0513  0.6334  1.7977
11646TIP3   OH256428   2.228   0.986  25.550 -0.2220  0.3242 -0.2009
11646TIP3    H156429   2.247   0.989  25.457  1.5546  1.3195  0.1560
11646TIP3    H256430   2.230   0.893  25.572 -3.8252 -0.2949 -1.6649
11647TIP3   OH256431   2.555   0.203   3.010 -0.2695 -0.1579 -0.0885
11647TIP3    H156432   2.528   0.253   3.087 -1.7273  3.3057 -2.5914
11647TIP3    H256433   2.640   0.240   2.986  0.0958 -1.0923 -0.2956
11648TIP3   OH256434   1.398   0.895   1.434 -0.0642 -0.3564 -0.0473
11648TIP3    H156435   1.452   0.972   1.448  0.9696 -1.1506  0.4837
11648TIP3    H256436   1.440   0.826   1.486 -0.8638 -1.3247 -0.6342
11649TIP3   OH256437   4.103   0.281  43.039 -0.4384 -0.1549  0.1156
11649TIP3    H156438   4.077   0.358  42.988 -3.0874 -1.4332 -0.6366
11649TIP3    H256439   4.193   0.265  43.014 -0.7615  0.9627 -1.9918
11650TIP3   OH256440   2.037   2.207  43.577  0.5303  1.3211  0.0662
11650TIP3    H156441   2.052   2.251  43.493 -1.3586  1.8723 -0.0262
11650TIP3    H256442   1.978   2.265  43.624 -0.6157 -0.2610  0.6739
11651TIP3   OH256443   0.206   1.087  31.845 -0.4630  0.9759 -0.1916
11651TIP3    H156444   0.191   1.035  31.924  1.7839  0.6056  0.0713
11651TIP3    H256445   0.229   1.174  31.878 -0.3589  1.0518 -0.4651
11652TIP3   OH256446   1.780   2.766  12.682  0.6627 -0.3240  0.1002
11652TIP3    H156447   1.727   2.692  12.712 -0.5024  0.4712  0.0503
11652TIP3    H256448   1.780   2.758  12.586 -3.5562  2.3075 -0.3979
11653TIP3   OH256449   2.118   2.400  47.381  0.0064  0.2401  0.3985
11653TIP3    H156450   2.087   2.312  47.396 -0.9347 -0.1313 -2.9006
11653TIP3    H256451   2.064   2.456  47.437 -1.4589 -1.0368  0.2989
11654TIP3   OH256452   3.755   0.526  38.233 -0.8269  0.3317 -0.4215
11654TIP3    H156453   3.696   0.520  38.157 -2.3200  0.9619  0.6263
11654TIP3    H256454   3.787   0.437  38.245 -1.9720 -0.1424 -0.7423
11655TIP3   OH256455   3.654   4.091   1.080  0.1661  0.0687 -0.0916
11655TIP3    H156456   3.645   4.000   1.053  1.3577  0.0100 -0.3185
11655TIP3    H256457   3.673   4.087   1.174 -0.8085  0.1479  0.1289
11656TIP3   OH256458   4.058   4.103  46.692  0.4416  0.0700 -0.4828
11656TIP3    H156459   4.088   4.133  46.778 -0.4040 -2.4191  0.7914
11656TIP3    H256460   3.978   4.152  46.676 -0.5466 -0.8806  1.2016
11657TIP3   OH256461   2.059   4.015  37.353  0.6604  0.2829  0.6920
11657TIP3    H156462   2.124   3.951  37.324  0.3402 -0.1048  0.8373
11657TIP3    H256463   2.067   4.017  37.448 -0.3946 -0.6832  0.8224
11658TIP3   OH256464   3.318   3.614  35.605  0.2986 -0.7311 -0.0189
11658TIP3    H156465   3.315   3.519  35.615  1.3154 -0.6745  0.9553
11658TIP3    H256466   3.229   3.639  35.581 -1.0842 -1.5061  3.6904
11659TIP3   OH256467   2.769   2.314  20.421  0.1651  0.0940  0.0198
11659TIP3    H156468   2.787   2.349  20.333 -1.5931  2.7269  0.5899
11659TIP3    H256469   2.739   2.390  20.471 -3.1728 -2.0843  1.6741
11660TIP3   OH256470   2.406   1.991  40.840 -0.5009  0.0653 -0.5020
11660TIP3    H156471   2.370   2.050  40.773  1.4168  1.0927 -0.6752
11660TIP3    H256472   2.330   1.941  40.871 -1.9430  1.6627 -1.3221
11661TIP3   OH256473   3.640   0.955  37.472  0.6869  0.6104  0.8070
11661TIP3    H156474   3.575   1.025  37.464 -1.3172 -1.3595 -1.3097
11661TIP3    H256475   3.614   0.906  37.550 -0.9341 -0.6185 -0.4499
11662TIP3   OH256476   3.729   3.147  14.654 -0.7669 -0.2341  0.4787
11662TIP3    H156477   3.764   3.095  14.726  0.5451  1.0189  0.7964
11662TIP3    H256478   3.744   3.238  14.680 -0.3455  0.2612 -1.3063
11663TIP3   OH256479   0.176   2.880  32.878 -0.5763 -0.2887  0.1617
11663TIP3    H156480   0.263   2.920  32.879  0.0852 -1.4539 -2.3815
11663TIP3    H256481   0.139   2.902  32.963  1.6736  1.3748  0.8195
11664TIP3   OH256482   3.604   1.928   6.300  0.2615 -0.0143  0.1226
11664TIP3    H156483   3.569   1.953   6.385 -0.5525 -0.1493 -0.1596
11664TIP3    H256484   3.602   1.833   6.300 -0.7048 -0.0097 -0.4181
11665TIP3   OH256485   3.738   0.222  14.514 -0.0071  0.0322 -0.1113
11665TIP3    H156486   3.692   0.295  14.474  1.7296  1.1163 -0.2451
11665TIP3    H256487   3.717   0.228  14.607  1.7502  2.0663  0.2363
11666TIP3   OH256488   2.808   2.047  36.257  0.2001  0.1159  0.3110
11666TIP3    H156489   2.717   2.071  36.273 -0.0434  0.2057 -1.0613
11666TIP3    H256490   2.842   2.021  36.343 -1.1873 -0.1617  0.8015
11667TIP3   OH256491   1.574   3.326   6.449 -0.1980  0.3985 -0.0230
11667TIP3    H156492   1.650   3.307   6.394 -2.0057 -0.7853 -2.2893
11667TIP3    H256493   1.544   3.411   6.418 -0.6348  0.1804 -0.2136
11668TIP3   OH256494   3.852   4.032  30.674 -0.4696 -0.3835  0.2234
11668TIP3    H156495   3.862   3.947  30.718 -0.5338 -0.5006  0.0143
11668TIP3    H256496   3.905   4.024  30.595 -0.7897 -0.3739  0.0041
11669TIP3   OH256497   3.185   3.540   1.564 -0.3648 -0.2246  0.0144
11669TIP3    H156498   3.123   3.602   1.527 -0.4270 -0.0943  0.3297
11669TIP3    H256499   3.184   3.558   1.658  0.2563 -0.1175  0.0105
11670TIP3   OH256500   0.566   2.462  35.666  0.3783 -0.7527 -0.0455
11670TIP3    H156501   0.552   2.425  35.579  1.1207 -0.2339 -0.3892
11670TIP3    H256502   0.537   2.553  35.659  2.6008 -0.0270 -0.4180
11671TIP3   OH256503   2.756   0.823   5.756  0.4320  0.2653  0.0621
11671TIP3    H156504   2.719   0.889   5.814 -1.3681 -0.1282 -0.5692
11671TIP3    H256505   2.681   0.789   5.707  1.7344 -0.1390 -1.7604
11672TIP3   OH256506   3.533   1.143  13.946  0.0755  0.0648  0.6013
11672TIP3    H156507   3.465   1.080  13.919 -1.4689  2.4605 -1.5377
11672TIP3    H256508   3.615   1.099  13.925 -0.9388 -1.3524 -0.6855
11673TIP3   OH256509   1.118   1.100  39.581  0.1992  0.1567  0.0031
11673TIP3    H156510   1.208   1.090  39.613  0.8314  2.1551 -1.0031
11673TIP3    H256511   1.127   1.118  39.488 -1.2161  1.0430  0.0101
11674TIP3   OH256512   0.127   3.408  46.475  0.1162  0.0574  0.2385
11674TIP3    H156513   0.141   3.461  46.553 -1.8363  0.2001  0.5413
11674TIP3    H256514   0.174   3.327  46.493  2.9606  1.5107 -0.1377
11675TIP3   OH256515   1.727   2.586   4.114 -0.6730 -0.4737  0.1701
11675TIP3    H156516   1.733   2.667   4.166 -3.4857 -0.8171  1.1911
11675TIP3    H256517   1.693   2.615   4.029 -0.9344 -0.5068  0.2645
11676TIP3   OH256518   2.709   1.894  37.350 -0.4029 -0.2484 -0.0905
11676TIP3    H156519   2.624   1.931  37.374 -0.2835  0.3048 -0.4734
11676TIP3    H256520   2.748   1.961  37.293  0.6539 -0.0973  0.7744
11677TIP3   OH256521   3.576   3.706  40.322 -0.3884  0.0242  0.5155
11677TIP3    H156522   3.649   3.647  40.301 -0.8128 -1.2219  2.2770
11677TIP3    H256523   3.591   3.783  40.268  2.8935  0.3242  1.6359
11678TIP3   OH256524   2.411   3.249   7.265  0.3514 -0.1466 -0.3219
11678TIP3    H156525   2.431   3.161   7.231  2.6211  0.6105 -1.1649
11678TIP3    H256526   2.418   3.240   7.360 -0.9114 -1.1801 -0.3078
11679TIP3   OH256527   3.029   0.580  13.655 -0.3726  0.6028 -0.5097
11679TIP3    H156528   2.976   0.616  13.583 -2.4014  1.5206  1.3231
11679TIP3    H256529   3.078   0.655  13.688 -0.6081  0.5181  0.0287
11680TIP3   OH256530   1.549   3.284   3.400  0.4056 -0.2301  0.3045
11680TIP3    H156531   1.562   3.348   3.330 -1.6255 -0.3234 -0.2243
11680TIP3    H256532   1.494   3.329   3.464  0.3082 -0.9214  0.7203
11681TIP3   OH256533   0.847   0.808  12.071  0.0365  0.0557 -0.1941
11681TIP3    H156534   0.849   0.883  12.011  1.1555  0.4655  0.3182
11681TIP3    H256535   0.754   0.788  12.083 -0.5183  3.1500  1.8322
11682TIP3   OH256536   3.427   3.594  28.869 -0.2491 -0.5502 -0.9507
11682TIP3    H156537   3.409   3.508  28.908 -0.4269 -0.3589 -0.6093
11682TIP3    H256538   3.420   3.578  28.775  1.7015 -1.3529 -1.0005
11683TIP3   OH256539   1.512   2.737   6.322  0.0997  0.2187 -0.2100
11683TIP3    H156540   1.477   2.689   6.247  0.6455 -2.0405  0.8962
11683TIP3    H256541   1.594   2.774   6.291  0.2010 -0.4821 -0.7845
11684TIP3   OH256542   2.153   2.725  21.239 -0.1978  0.0988  0.1314
11684TIP3    H156543   2.163   2.707  21.145 -1.5725 -0.9855  0.1677
11684TIP3    H256544   2.233   2.691  21.278 -0.1677 -0.5826 -0.5088
11685TIP3   OH256545   3.714   0.033   7.052  0.0491 -0.1731  0.1172
11685TIP3    H156546   3.788  -0.018   7.021  1.7057  2.1624 -0.0111
11685TIP3    H256547   3.640   0.002   7.000  1.3901 -1.0171 -1.3760
11686TIP3   OH256548   0.869   2.897   6.303  0.1926 -0.2254 -1.2005
11686TIP3    H156549   0.881   2.946   6.222  1.4113 -0.6427 -1.2865
11686TIP3    H256550   0.943   2.923   6.357  0.7327 -1.7960 -1.1576
11687TIP3   OH256551   3.551   2.080  20.366 -0.4938 -0.5976 -0.4574
11687TIP3    H156552   3.533   2.030  20.445 -0.8185  0.0936 -0.0839
11687TIP3    H256553   3.629   2.131  20.387  0.0283 -1.1779 -0.9482
11688TIP3   OH256554   2.643   2.788  42.172  0.1938 -0.4063 -0.3911
11688TIP3    H156555   2.724   2.756  42.211  0.5211  0.5908 -0.2223
11688TIP3    H256556   2.666   2.873  42.133 -1.1111  0.6602  1.0459
11689TIP3   OH256557   0.055   2.207  37.172 -0.0081 -0.1001 -0.5201
11689TIP3    H156558   0.091   2.256  37.097 -1.3088 -1.2454 -1.9638
11689TIP3    H256559  -0.031   2.246  37.187 -1.8450 -2.8280 -2.8235
11690TIP3   OH256560   3.087   3.686  13.485 -0.6646 -0.0380  0.2098
11690TIP3    H156561   3.028   3.649  13.418  1.1728 -2.1271 -0.3789
11690TIP3    H256562   3.089   3.618  13.553  0.3234  0.4352  0.6540
11691TIP3   OH256563   4.101   1.013  40.529  0.2627 -0.2593  0.3393
11691TIP3    H156564   4.007   1.031  40.535  0.5223  1.1307  0.5723
11691TIP3    H256565   4.138   1.091  40.488  1.2886 -0.9242 -0.0451
11692TIP3   OH256566   2.335   1.377  31.899 -0.5663  0.1060  0.3073
11692TIP3    H156567   2.342   1.303  31.959  1.3450 -0.1549 -0.1844
11692TIP3    H256568   2.247   1.369  31.861 -0.6023 -1.5697  0.6790
11693TIP3   OH256569   2.413   3.802  29.797  0.2360 -0.2750 -0.1082
11693TIP3    H156570   2.371   3.760  29.723  1.0104  0.6196 -1.0917
11693TIP3    H256571   2.464   3.873  29.759  2.0054 -0.8211  1.1115
11694TIP3   OH256572   1.030   0.200  41.613  0.0500 -0.5150  0.4956
11694TIP3    H156573   0.959   0.262  41.594 -0.3014 -0.8664  0.6635
11694TIP3    H256574   1.083   0.200  41.533 -0.9379 -1.3336 -0.1802
11695TIP3   OH256575   1.590   0.721  44.252  0.4844  0.1050  0.4369
11695TIP3    H156576   1.608   0.736  44.159  1.8404 -1.0521  0.4810
11695TIP3    H256577   1.522   0.654  44.253 -1.8155  2.2626  0.3086
11696TIP3   OH256578   2.782   1.847   1.025  0.3889 -0.2923  0.3834
11696TIP3    H156579   2.751   1.918   1.082  1.4054 -0.0826  0.6926
11696TIP3    H256580   2.738   1.863   0.941 -0.9361 -0.4636  1.0160
11697TIP3   OH256581   0.558   1.916  45.430 -0.6312 -0.1126 -0.1443
11697TIP3    H156582   0.463   1.911  45.413 -0.5254  0.1041 -0.8535
11697TIP3    H256583   0.569   1.879  45.517 -1.4872  0.7224  0.3387
11698TIP3   OH256584   0.988   1.894  44.084 -0.0386 -0.2011  0.0151
11698TIP3    H156585   1.082   1.913  44.080 -0.5335  2.9388  0.6686
11698TIP3    H256586   0.953   1.931  44.003 -0.7893 -0.9456 -0.0133
11699TIP3   OH256587   2.778   3.197  31.534  0.2609 -0.2513 -0.4584
11699TIP3    H156588   2.683   3.191  31.523  0.0084 -1.1062  1.6846
11699TIP3    H256589   2.797   3.290  31.523 -0.7867 -0.0831 -1.0608
11700TIP3   OH256590   0.076   2.539  47.259 -0.2850 -0.3031 -0.4489
11700TIP3    H156591   0.063   2.461  47.204 -1.6421  0.8601 -1.8780
11700TIP3    H256592   0.135   2.594  47.208  0.5814 -0.3203  0.5100
11701TIP3   OH256593   2.023   1.385   9.822  0.3811 -0.2698  0.5010
11701TIP3    H156594   2.064   1.332   9.890  2.6353  0.9711  0.1826
11701TIP3    H256595   1.964   1.324   9.777  0.7076 -1.7357  1.9718
11702TIP3   OH256596   1.726   1.156  20.475 -0.4793  0.6261  0.7417
11702TIP3    H156597   1.709   1.214  20.549 -0.1482  1.5335  0.1325
11702TIP3    H256598   1.730   1.215  20.400  0.5318 -0.1134  0.1942
11703TIP3   OH256599   0.894   1.904   0.684  0.1293  0.1305  0.4202
11703TIP3    H156600   0.825   1.970   0.692  0.6975  0.7022  0.6729
11703TIP3    H256601   0.893   1.880   0.591  0.4952  1.1372  0.1405
11704TIP3   OH256602   1.907   3.963  24.729  0.0708  0.0751 -0.1288
11704TIP3    H156603   1.932   4.041  24.778 -2.5785  1.6766 -1.1495
11704TIP3    H256604   1.883   3.995  24.643 -1.1905 -1.8579 -0.5472
11705TIP3   OH256605   1.121   0.376  30.988 -0.0818  0.5656 -0.3560
11705TIP3    H156606   1.119   0.334  31.074  1.8131  0.6949 -0.2042
11705TIP3    H256607   1.166   0.459  31.003  0.0938  0.6794 -1.4392
11706TIP3   OH256608   3.284   0.845  42.337  0.4742  0.2397 -0.1118
11706TIP3    H156609   3.282   0.940  42.353  0.4020  0.2587 -0.2329
11706TIP3    H256610   3.199   0.814  42.368 -0.0729  0.4218 -1.3550
11707TIP3   OH256611   1.519   3.903   8.501  0.7079  0.3694 -0.0074
11707TIP3    H156612   1.608   3.874   8.521  1.2499  1.8558 -0.1241
11707TIP3    H256613   1.520   3.922   8.408 -0.0337 -0.5788 -0.2130
11708TIP3   OH256614   2.598   2.206  14.357  0.1423  0.2696  0.1861
11708TIP3    H156615   2.589   2.274  14.291 -0.3873 -0.9145 -1.0259
11708TIP3    H256616   2.678   2.159  14.333  0.0321 -0.0754  0.4710
11709TIP3   OH256617   3.034   2.722  11.500 -0.1867  0.6310  0.7129
11709TIP3    H156618   3.018   2.728  11.406  0.1535 -0.2897  0.5851
11709TIP3    H256619   3.115   2.772  11.514  0.1948  0.1129  0.3879
11710TIP3   OH256620   1.212   1.031  42.556 -0.5346 -0.5051  1.0468
11710TIP3    H156621   1.220   1.114  42.510 -0.9527 -0.6898  0.6372
11710TIP3    H256622   1.234   0.965  42.492 -0.0406 -0.7073  1.4203
11711TIP3   OH256623   2.716   3.281   1.076  0.0108 -0.6885 -0.1723
11711TIP3    H156624   2.637   3.236   1.108 -0.2948  0.3455  0.5613
11711TIP3    H256625   2.696   3.300   0.984 -0.9355  0.2317  0.1978
11712TIP3   OH256626   1.808   1.262  43.853 -0.1584 -0.0033 -0.0912
11712TIP3    H156627   1.893   1.280  43.813  0.0495 -1.1292 -0.1890
11712TIP3    H256628   1.781   1.346  43.890  0.5726  0.5857 -0.8377
11713TIP3   OH256629   0.921   0.822   5.072 -0.0983  0.0424  0.1162
11713TIP3    H156630   0.946   0.904   5.113  1.1548  0.0268 -0.5531
11713TIP3    H256631   0.898   0.845   4.982 -1.0302 -0.1667  0.2934
11714TIP3   OH256632   1.241   3.393  26.970  0.3744  0.4856 -0.5088
11714TIP3    H156633   1.204   3.308  26.948 -0.7675  0.9183 -0.3094
11714TIP3    H256634   1.267   3.431  26.886 -0.4223  0.5193 -0.7512
11715TIP3   OH256635   2.828   0.955  34.643  0.0491 -1.1328  0.1016
11715TIP3    H156636   2.835   1.050  34.656 -0.3542 -0.7132 -2.2821
11715TIP3    H256637   2.734   0.939  34.636  0.1243 -0.8908 -3.8857
11716TIP3   OH256638   0.282   2.226  16.761 -0.0184 -0.0927  0.1290
11716TIP3    H156639   0.190   2.252  16.755  0.6502  2.3137 -1.0719
11716TIP3    H256640   0.316   2.276  16.835  0.5395 -0.2752  0.0010
11717TIP3   OH256641   0.919   0.921   4.252  0.0637 -0.1932 -0.4078
11717TIP3    H156642   0.963   0.999   4.286  0.3925 -0.0028 -1.2469
11717TIP3    H256643   0.837   0.917   4.301  0.4399  0.1760  0.2635
11718TIP3   OH256644   0.662   0.935   8.105 -0.1978  0.1461 -0.6346
11718TIP3    H156645   0.636   1.002   8.042 -1.4241  0.0276 -0.2852
11718TIP3    H256646   0.747   0.903   8.074  0.0706  1.3688 -1.1852
11719TIP3   OH256647   1.645   1.558  45.387  0.5917  0.3617  0.0151
11719TIP3    H156648   1.636   1.558  45.482 -0.8291  0.1859 -0.0986
11719TIP3    H256649   1.680   1.645  45.366  2.8736 -0.2837  0.8248
11720TIP3   OH256650   1.578   0.978  36.782 -1.0099 -0.6023 -0.2134
11720TIP3    H156651   1.663   0.934  36.778 -1.0567 -0.6136 -1.3569
11720TIP3    H256652   1.521   0.926  36.726 -0.4256  2.1869 -3.7686
11721TIP3   OH256653   2.476   0.196  10.413  0.1468  1.4904  0.0282
11721TIP3    H156654   2.449   0.269  10.356 -0.0965 -0.4280 -2.5086
11721TIP3    H256655   2.530   0.141  10.356 -0.7993 -1.0035  1.3884
11722TIP3   OH256656   2.706   1.919  38.689  0.2429  0.0246  0.6807
11722TIP3    H156657   2.748   1.919  38.604 -1.2112  0.7850 -0.0738
11722TIP3    H256658   2.779   1.914  38.752  1.2706 -2.2031 -0.5855
11723TIP3   OH256659   2.640   1.476  38.632 -0.9892 -0.2869 -0.9822
11723TIP3    H156660   2.717   1.432  38.595 -0.4260 -0.8277  0.7495
11723TIP3    H256661   2.646   1.566  38.600  1.3912  0.1770  0.5512
11724TIP3   OH256662   2.974   1.066  45.325  0.1342 -0.4945 -0.1677
11724TIP3    H156663   3.065   1.083  45.301 -0.5471 -0.5038 -3.0214
11724TIP3    H256664   2.928   1.054  45.242 -2.4280 -0.8709  1.1924
11725TIP3   OH256665   2.526   0.874  34.765 -0.4880 -0.6994  0.7299
11725TIP3    H156666   2.496   0.784  34.776 -0.3967 -0.8208  0.0362
11725TIP3    H256667   2.464   0.913  34.704 -0.0167 -0.5598  0.3356
11726TIP3   OH256668   1.533   3.576   8.213 -0.2495  0.4412 -0.4588
11726TIP3    H156669   1.521   3.483   8.194 -1.2377  0.3350  0.6129
11726TIP3    H256670   1.623   3.583   8.244 -0.2883 -0.2168 -0.1832
11727TIP3   OH256671   2.088   1.902  10.859 -0.5793 -0.0476  0.2541
11727TIP3    H156672   2.012   1.910  10.803 -0.7296 -0.6015  0.3722
11727TIP3    H256673   2.067   1.955  10.936 -0.9774 -0.4559  0.4260
11728TIP3   OH256674   0.855   1.901  41.372  0.1128 -0.3411  0.4016
11728TIP3    H156675   0.862   1.988  41.411  2.2237  0.0122 -0.6075
11728TIP3    H256676   0.826   1.917  41.282  0.3329 -0.6988  0.2653
11729TIP3   OH256677   1.954   1.048  31.952  0.2241  0.1622  0.2466
11729TIP3    H156678   1.964   1.107  31.877  1.1533  1.1724  1.1145
11729TIP3    H256679   1.998   1.094  32.024  0.1718 -1.1944  1.1853
11730TIP3   OH256680   1.896   2.377   7.074 -0.0295  1.0395 -0.9887
11730TIP3    H156681   1.988   2.365   7.098  0.0331  0.2826 -1.5480
11730TIP3    H256682   1.898   2.383   6.978 -0.6915 -0.4543 -1.1270
11731TIP3   OH256683   1.515   1.354   4.799  0.2591  0.2145 -0.0800
11731TIP3    H156684   1.448   1.369   4.732  0.9407 -0.7701 -1.0087
11731TIP3    H256685   1.597   1.373   4.755  0.7143 -0.3262  0.5221
11732TIP3   OH256686   1.471   3.348  46.851  0.2851  0.1587  0.4102
11732TIP3    H156687   1.530   3.324  46.781  1.3509 -1.0078  1.6575
11732TIP3    H256688   1.445   3.438  46.831  1.9123  0.4427 -0.5629
11733TIP3   OH256689   0.201   4.077  41.575  0.2300  0.4338 -0.3742
11733TIP3    H156690   0.119   4.121  41.598  0.7252  0.8615  0.6165
11733TIP3    H256691   0.269   4.132  41.614  0.8572 -1.6746  1.7055
11734TIP3   OH256692   0.505   3.588  11.373 -0.3214  0.2925  0.2954
11734TIP3    H156693   0.409   3.589  11.380 -0.3543  2.2014 -0.0607
11734TIP3    H256694   0.529   3.499  11.400 -2.2770 -0.7023 -0.9951
11735TIP3   OH256695   0.038   2.779  32.666 -0.4340 -0.1447 -0.4684
11735TIP3    H156696   0.014   2.693  32.702 -0.7543  0.0445 -0.2322
11735TIP3    H256697   0.094   2.818  32.732  0.4855 -0.5506 -0.9891
11736TIP3   OH256698   0.589   2.024  12.286  0.0648 -0.1619  0.0510
11736TIP3    H156699   0.643   2.010  12.364 -0.2184 -1.3105  0.0620
11736TIP3    H256700   0.568   1.936  12.256  0.6778  0.2353 -1.6850
11737TIP3   OH256701   2.196   0.785   9.963 -0.6564 -0.0555  0.5611
11737TIP3    H156702   2.261   0.753   9.901 -0.8654 -0.6975  0.6567
11737TIP3    H256703   2.245   0.800  10.044 -0.5973 -0.3900  0.5895
11738TIP3   OH256704   2.451   3.075  47.686  0.7242 -0.1945  0.1950
11738TIP3    H156705   2.469   3.076  47.592 -0.4350 -1.4098 -0.0562
11738TIP3    H256706   2.387   3.145  47.699  1.4153  0.4539  0.2206
11739TIP3   OH256707   3.502   3.751  33.480  0.1038  0.0107 -0.1530
11739TIP3    H156708   3.411   3.763  33.508 -0.3984 -2.5407 -0.4065
11739TIP3    H256709   3.502   3.775  33.388  0.5030  3.0945  0.5364
11740TIP3   OH256710   0.125   1.727  45.895  0.1091  0.1859 -0.5793
11740TIP3    H156711   0.216   1.753  45.881 -0.1664  0.7451 -1.3706
11740TIP3    H256712   0.100   1.682  45.814 -0.2215 -0.2645 -0.2329
11741TIP3   OH256713   0.533   3.125  46.280 -0.3984  0.3431 -0.5825
11741TIP3    H156714   0.520   3.219  46.270  1.1526  0.7383  0.6564
11741TIP3    H256715   0.618   3.117  46.324 -0.2222 -1.6632 -1.1728
11742TIP3   OH256716   1.750   3.139   7.396 -0.1127 -0.2211 -0.7482
11742TIP3    H156717   1.807   3.144   7.319  0.0010 -0.9583 -0.7163
11742TIP3    H256718   1.761   3.224   7.439  0.1882  0.0170 -1.2901
11743TIP3   OH256719   2.382   3.879   4.518 -1.0122  0.7538  0.2184
11743TIP3    H156720   2.436   3.907   4.592 -1.0725 -0.6252  0.8114
11743TIP3    H256721   2.303   3.933   4.525 -1.7527 -0.4821  2.1939
11744TIP3   OH256722   0.816   3.110  15.105 -0.1110  0.3238  0.3135
11744TIP3    H156723   0.732   3.071  15.132  0.8102 -1.5499  0.6470
11744TIP3    H256724   0.882   3.049  15.138  1.3142  0.7811 -1.5305
11745TIP3   OH256725   3.007   2.040  44.389 -0.4622  0.2592  0.2273
11745TIP3    H156726   2.981   2.130  44.371 -2.8345  0.1451  2.5423
11745TIP3    H256727   3.103   2.041  44.384 -0.3884  3.0147  0.6383
11746TIP3   OH256728   0.072   0.673   7.360 -0.5043  0.1872 -0.3048
11746TIP3    H156729  -0.019   0.700   7.363  0.1507  2.5240  1.3347
11746TIP3    H256730   0.069   0.578   7.345 -3.2830 -0.3926  2.8437
11747TIP3   OH256731   3.172   0.501  41.009  0.7052 -0.5717 -0.1952
11747TIP3    H156732   3.205   0.590  41.025  0.4695 -0.3491 -0.9094
11747TIP3    H256733   3.242   0.444  41.039  1.5396 -0.1206 -1.1962
11748TIP3   OH256734   2.836   3.610  46.663 -0.0186  0.1988 -0.3746
11748TIP3    H156735   2.791   3.686  46.698 -1.1886  0.4802 -2.3665
11748TIP3    H256736   2.907   3.646  46.610 -0.0478 -0.1266 -0.6378
11749TIP3   OH256737   1.257   1.964  11.568  0.3081 -0.1354 -0.6344
11749TIP3    H156738   1.203   1.971  11.646  1.0317 -1.5874  0.0379
11749TIP3    H256739   1.197   1.982  11.495 -0.8946 -0.9125  0.1309
11750TIP3   OH256740   1.871   2.760  14.858 -0.1711  0.1410  0.2813
11750TIP3    H156741   1.810   2.738  14.788 -1.4779 -1.6908  1.8942
11750TIP3    H256742   1.946   2.702  14.844 -0.8888 -0.9850  0.9412
11751TIP3   OH256743   3.018   2.173  45.692  0.5021  0.1478 -0.7731
11751TIP3    H156744   3.061   2.088  45.684 -1.8443 -1.2687  0.6862
11751TIP3    H256745   3.017   2.191  45.786 -1.6059  0.3134 -0.7762
11752TIP3   OH256746   2.349   0.500  30.900  0.1567 -0.3551  0.1930
11752TIP3    H156747   2.335   0.589  30.931 -1.5512 -0.1640 -0.9967
11752TIP3    H256748   2.395   0.510  30.817  0.4539 -0.6187  0.3231
11753TIP3   OH256749   3.453   2.719  15.584 -0.4680  0.1175 -0.4245
11753TIP3    H156750   3.487   2.755  15.666 -4.3302  1.0976  1.0106
11753TIP3    H256751   3.506   2.760  15.516  2.3837 -0.1197  1.4727
11754TIP3   OH256752   0.989   2.235  47.520 -0.1630 -0.1408 -0.2053
11754TIP3    H156753   0.924   2.276  47.463  0.6158  2.0411  0.4115
11754TIP3    H256754   1.072   2.245  47.474  0.1200 -0.5788  0.1943
11755TIP3   OH256755   1.141   1.066   1.303 -0.4735 -0.4149  0.1021
11755TIP3    H156756   1.122   1.141   1.359  0.4212 -1.0616  1.3040
11755TIP3    H256757   1.213   1.020   1.347  1.1700 -0.2533 -2.1922
11756TIP3   OH256758   1.552   3.190  42.154 -0.1321  0.4651 -0.3968
11756TIP3    H156759   1.501   3.116  42.186  0.1634  1.4617  2.7549
11756TIP3    H256760   1.620   3.151  42.100 -1.6784 -1.2458 -1.2349
11757TIP3   OH256761   3.884   0.910  37.347 -0.0020 -0.2532  0.0605
11757TIP3    H156762   3.879   0.951  37.261  0.6195 -0.2774  0.0044
11757TIP3    H256763   3.807   0.942  37.394 -0.2482 -0.1028 -0.4447
11758TIP3   OH256764   2.519   1.539  10.743 -0.1802 -0.7111  0.1724
11758TIP3    H156765   2.596   1.484  10.737  1.5019  1.6032 -1.4509
11758TIP3    H256766   2.460   1.506  10.675  0.3714 -1.1006 -0.1226
11759TIP3   OH256767   1.598   3.472   3.193  0.3730  0.8968  0.2134
11759TIP3    H156768   1.621   3.540   3.129  2.0560  0.8271  0.7042
11759TIP3    H256769   1.646   3.394   3.163 -0.3931  0.3184  0.4627
11760TIP3   OH256770   0.424   2.017  11.089 -0.0867 -0.1645  0.1223
11760TIP3    H156771   0.360   2.006  11.160  0.0354 -0.0989  0.2442
11760TIP3    H256772   0.465   2.102  11.108  1.1481 -0.9123  0.9446
11761TIP3   OH256773   2.817   3.151   9.022  0.3230  0.6311  0.6315
11761TIP3    H156774   2.723   3.163   9.006  0.7503  2.2148 -1.0964
11761TIP3    H256775   2.827   3.164   9.116 -1.2442 -0.0583  0.9329
11762TIP3   OH256776   3.892   2.239  45.194  0.3865  0.1321  0.1763
11762TIP3    H156777   3.935   2.320  45.165  0.8546  0.4507  1.6600
11762TIP3    H256778   3.830   2.268  45.261 -2.8560 -0.2148 -2.4491
11763TIP3   OH256779   0.609   0.773  39.550 -0.1357 -0.5628 -0.1866
11763TIP3    H156780   0.612   0.677  39.558 -1.2224 -0.5124  1.2828
11763TIP3    H256781   0.614   0.804  39.640  3.8900  0.9783 -0.7665
11764TIP3   OH256782   1.600   2.721  45.038 -0.0154  0.1788  0.0711
11764TIP3    H156783   1.636   2.733  45.126  0.2202  2.4419 -0.2736
11764TIP3    H256784   1.515   2.764  45.042  0.6784  1.7465 -1.2057
11765TIP3   OH256785   0.644   0.646  34.687 -0.2029  0.6226  0.2002
11765TIP3    H156786   0.715   0.613  34.742  0.2589 -0.6627 -1.0873
11765TIP3    H256787   0.575   0.579  34.694 -1.7120  2.2639  2.1220
11766TIP3   OH256788   1.890   3.614   5.536  0.6739  0.1641  0.1699
11766TIP3    H156789   1.932   3.535   5.571  1.1521  0.0512 -0.6569
11766TIP3    H256790   1.962   3.674   5.518  0.6122 -0.4047 -2.2000
11767TIP3   OH256791   1.545   0.765  11.654 -0.2768  0.0381  0.1127
11767TIP3    H156792   1.494   0.685  11.642  0.1154  0.0613 -2.3597
11767TIP3    H256793   1.634   0.740  11.629 -0.2689  1.3481 -1.3217
11768TIP3   OH256794   0.444   1.238  39.537 -0.2343 -0.2692 -0.0427
11768TIP3    H156795   0.522   1.183  39.530  0.2286  0.3434  0.1828
11768TIP3    H256796   0.378   1.182  39.578 -0.3545 -1.2296 -1.4704
11769TIP3   OH256797   3.024   1.231   0.029 -0.1515  0.2975 -0.2398
11769TIP3    H156798   3.115   1.243   0.001  0.4156 -0.9653  0.9452
11769TIP3    H256799   2.973   1.234  -0.053  0.9930  0.6192 -0.9655
11770TIP3   OH256800   3.584   2.764  11.500 -0.1412  0.2796  0.1714
11770TIP3    H156801   3.546   2.851  11.491  0.2999  0.4050 -0.4928
11770TIP3    H256802   3.569   2.722  11.416 -0.1306 -0.1998  0.4043
11771TIP3   OH256803   2.915   0.809  15.416  0.7434  0.1321  0.4472
11771TIP3    H156804   2.865   0.889  15.400  0.4157  0.3400  2.3700
11771TIP3    H256805   2.852   0.747  15.452  0.8987 -1.1898 -1.3753
11772TIP3   OH256806   2.456   2.585   1.503  0.0232  0.2308 -0.0355
11772TIP3    H156807   2.543   2.549   1.520 -0.0746  0.1401  0.2841
11772TIP3    H256808   2.446   2.653   1.570  0.4962  1.3547 -1.0730
11773TIP3   OH256809   2.367   3.444   8.299  0.1735  0.1537 -0.1286
11773TIP3    H156810   2.442   3.385   8.294 -0.2694 -0.7856  2.6992
11773TIP3    H256811   2.317   3.425   8.220  1.4862 -1.2025 -0.6926
11774TIP3   OH256812   1.528   1.972   7.323 -0.5359  0.5408  0.2408
11774TIP3    H156813   1.438   2.000   7.341 -0.2233  1.4130  0.4593
11774TIP3    H256814   1.539   1.986   7.229 -0.6065  0.4831  0.2234
11775TIP3   OH256815   0.251   3.574  11.424 -1.0367 -0.1548 -0.3160
11775TIP3    H156816   0.264   3.538  11.512  0.7495  0.1439 -0.4079
11775TIP3    H256817   0.156   3.577  11.413 -1.3025 -2.7098  0.5577
11776TIP3   OH256818   3.153   3.642  34.290  0.6418 -0.3248 -0.1460
11776TIP3    H156819   3.190   3.717  34.336 -0.8059  1.6913 -2.0514
11776TIP3    H256820   3.082   3.612  34.347  0.7412  0.2370  0.2860
11777TIP3   OH256821   0.138   2.761  40.333 -0.9336 -0.0488 -0.0670
11777TIP3    H156822   0.206   2.818  40.297  1.0918 -1.5036  1.1935
11777TIP3    H256823   0.085   2.818  40.388  0.3322  0.8593  0.2653
11778TIP3   OH256824   0.950   0.571  11.931 -0.0340 -0.0825 -0.5777
11778TIP3    H156825   0.891   0.506  11.971  0.1366  0.0302 -0.1380
11778TIP3    H256826   0.920   0.655  11.966 -1.4308  0.2940 -2.5614
11779TIP3   OH256827   3.663   3.173   4.960 -0.3941  0.4086 -0.2757
11779TIP3    H156828   3.675   3.193   4.867 -1.5451 -0.6550 -0.6770
11779TIP3    H256829   3.585   3.223   4.984  0.1043  0.9576  0.2228
11780TIP3   OH256830   2.900   1.675  35.912 -0.4207  0.4284 -1.0689
11780TIP3    H156831   2.973   1.724  35.950 -0.0480 -0.2056 -0.9481
11780TIP3    H256832   2.860   1.630  35.987 -0.1491 -0.2264 -1.3106
11781TIP3   OH256833   0.928   1.091  10.252  0.6725  0.2123 -0.2394
11781TIP3    H156834   0.908   1.170  10.202  0.6458 -0.2571 -0.9949
11781TIP3    H256835   0.847   1.041  10.252  0.9541 -0.2575 -0.6077
11782TIP3   OH256836   3.732   3.891  45.796  0.2348 -0.4810 -0.4044
11782TIP3    H156837   3.667   3.943  45.749 -0.0008 -0.2640  0.1568
11782TIP3    H256838   3.711   3.903  45.888  1.0770 -0.4020 -0.2137
11783TIP3   OH256839   0.052   0.869   3.048  0.2628  0.5011 -0.0155
11783TIP3    H156840  -0.031   0.909   3.021  1.4076  1.3253 -2.6411
11783TIP3    H256841   0.045   0.861   3.143 -1.6495  3.2517  0.1973
11784TIP3   OH256842   0.785   4.002   0.085  0.3962  0.1678  0.2470
11784TIP3    H156843   0.814   4.064   0.018  1.1346  0.4046  0.7722
11784TIP3    H256844   0.829   4.031   0.165 -0.3001 -0.2402  0.7903
11785TIP3   OH256845   1.732   3.349  14.895 -0.4048  0.5675  0.6026
11785TIP3    H156846   1.781   3.295  14.958 -1.9674 -1.9607 -0.2062
11785TIP3    H256847   1.681   3.408  14.950 -0.2807 -0.2557  1.6345
11786TIP3   OH256848   1.605   3.534  40.388 -0.0456 -0.4093  0.1191
11786TIP3    H156849   1.637   3.534  40.298 -0.7140 -0.9649 -0.1289
11786TIP3    H256850   1.582   3.443  40.406 -2.2607  0.0655 -0.0196
11787TIP3   OH256851   3.858   2.097  36.772  0.1694 -0.6006 -0.0529
11787TIP3    H156852   3.932   2.097  36.711  0.0228 -1.6485 -0.2527
11787TIP3    H256853   3.781   2.090  36.715 -0.0950  0.5828  0.1471
11788TIP3   OH256854   3.557   1.899   0.274  0.6530  0.0165 -0.5178
11788TIP3    H156855   3.576   1.818   0.321  0.1835 -0.4910 -1.1985
11788TIP3    H256856   3.624   1.903   0.205  1.1831  0.6324  0.0099
11789TIP3   OH256857   2.869   4.055  32.308 -0.4974 -0.9072 -0.1701
11789TIP3    H156858   2.866   3.976  32.253 -0.0810 -0.7194 -0.4684
11789TIP3    H256859   2.824   4.121  32.256 -2.8818 -1.4991  1.0309
11790TIP3   OH256860   1.879   1.239   1.151 -0.2942  0.5413 -0.1305
11790TIP3    H156861   1.843   1.153   1.126 -1.6389  1.4497 -1.5605
11790TIP3    H256862   1.921   1.271   1.071  1.1444  0.7935  0.6950
11791TIP3   OH256863   0.868   0.313   2.183 -0.4719  0.2360  0.3989
11791TIP3    H156864   0.799   0.362   2.229 -1.5459  0.4060 -1.3078
11791TIP3    H256865   0.859   0.223   2.216  0.5229  0.8111  2.4276
11792TIP3   OH256866   2.275   3.709   0.404 -0.0902  0.2591  0.6362
11792TIP3    H156867   2.269   3.778   0.338  0.7679  1.5509  1.8655
11792TIP3    H256868   2.294   3.629   0.353 -0.5814  0.9970 -0.7586
11793TIP3   OH256869   3.317   0.237  28.888 -0.8780 -0.0215  0.0737
11793TIP3    H156870   3.305   0.167  28.824 -1.7252  1.0669 -0.9941
11793TIP3    H256871   3.409   0.262  28.877 -1.3756  1.1833 -1.8684
11794TIP3   OH256872   2.767   1.562  36.742 -0.0538  0.8929  0.1419
11794TIP3    H156873   2.735   1.580  36.654 -1.6586  0.1618  0.5297
11794TIP3    H256874   2.792   1.648  36.777 -2.0469  1.6125 -0.0700
11795TIP3   OH256875   2.309   3.316  44.928 -0.2721  0.7870 -0.1500
11795TIP3    H156876   2.249   3.371  44.978  0.6583  1.8238 -0.1492
11795TIP3    H256877   2.368   3.278  44.994  0.2259  1.2381 -0.3284
11796TIP3   OH256878   2.171   2.155  14.748  0.6189  0.1631  0.2442
11796TIP3    H156879   2.236   2.095  14.711  1.5290  1.4901 -0.4104
11796TIP3    H256880   2.178   2.145  14.842 -0.3483 -1.8630  0.1465
11797TIP3   OH256881   0.427   3.954  35.574 -0.4592 -0.4843  0.7368
11797TIP3    H156882   0.520   3.973  35.576 -0.2903 -1.2533  0.3579
11797TIP3    H256883   0.401   3.967  35.483 -0.0998 -3.0557  0.1852
11798TIP3   OH256884   3.898   2.941  12.076 -0.3942 -0.5900 -0.0406
11798TIP3    H156885   3.852   2.859  12.094 -1.6559  0.6516  3.1329
11798TIP3    H256886   3.834   2.994  12.029 -0.5288 -0.5190  0.2203
11799TIP3   OH256887   3.521   2.645  30.741 -0.4209 -0.8150  0.0477
11799TIP3    H156888   3.456   2.660  30.810  0.7553 -2.0320  1.4863
11799TIP3    H256889   3.483   2.576  30.688 -0.8523 -0.6414  0.1213
11800TIP3   OH256890   2.999   3.722  12.203  0.3172 -0.2553 -0.4838
11800TIP3    H156891   2.954   3.787  12.257  2.4465 -0.0428  1.1526
11800TIP3    H256892   2.960   3.732  12.116 -2.3408  0.2784  0.6804
11801TIP3   OH256893   1.466   1.193   3.673 -0.9242  0.7750 -0.6528
11801TIP3    H156894   1.542   1.244   3.700 -0.1986 -1.0782  1.0405
11801TIP3    H256895   1.409   1.256   3.630  1.5412  2.2533 -1.9988
11802TIP3   OH256896   1.691   3.626  27.431  0.0708 -0.2081 -0.3195
11802TIP3    H156897   1.690   3.534  27.403 -1.1347  0.0373 -1.1627
11802TIP3    H256898   1.683   3.622  27.526 -1.4050 -0.9915 -0.4331
11803TIP3   OH256899   3.370   3.138   4.729 -0.0102  0.7501 -0.3964
11803TIP3    H156900   3.355   3.092   4.811 -3.0378 -1.3962 -1.9474
11803TIP3    H256901   3.286   3.180   4.709  0.4929  0.8977 -2.5211
11804TIP3   OH256902   1.737   1.698   7.793  0.1301  0.4402 -0.5990
11804TIP3    H156903   1.751   1.747   7.875  1.2664 -0.3893 -0.2748
11804TIP3    H256904   1.765   1.609   7.814  0.3668  0.2023 -1.8715
11805TIP3   OH256905   3.817   2.531   3.059 -0.0952 -0.1491 -0.0430
11805TIP3    H156906   3.776   2.551   2.975  0.1221  2.4423  0.3707
11805TIP3    H256907   3.908   2.558   3.048 -0.0800  0.2855  1.0132
11806TIP3   OH256908   2.656   3.539  43.478 -0.2351  0.1877  0.2526
11806TIP3    H156909   2.703   3.582  43.408 -0.0283 -0.8357 -0.2570
11806TIP3    H256910   2.608   3.610  43.522  0.4947  0.9939 -0.2237
11807TIP3   OH256911   2.520   0.853  10.304  0.0390  0.0669  0.2797
11807TIP3    H156912   2.494   0.825  10.217  0.5593 -0.3358  0.2502
11807TIP3    H256913   2.538   0.947  10.294  0.4642 -0.0557 -0.1321
11808TIP3   OH256914   0.409   3.070  44.800  0.2643 -0.1159  0.2891
11808TIP3    H156915   0.336   3.079  44.738  0.2101 -1.3587  0.1622
11808TIP3    H256916   0.467   3.143  44.778 -0.5104  0.3793 -0.1853
11809TIP3   OH256917   0.698   2.211  35.231 -0.0446  0.3691 -0.1719
11809TIP3    H156918   0.665   2.301  35.241 -1.2331 -0.2011  1.4006
11809TIP3    H256919   0.791   2.222  35.213 -0.4553  1.9518 -1.6201
11810TIP3   OH256920   3.642   2.964   4.349 -0.8849  0.6323 -0.1039
11810TIP3    H156921   3.563   3.017   4.342 -0.8482  0.5679 -1.1244
11810TIP3    H256922   3.610   2.874   4.353 -0.8936  0.6530  0.3356
11811TIP3   OH256923   2.140   2.000  43.826 -0.5592  0.2347  0.4096
11811TIP3    H156924   2.182   1.972  43.745 -0.6159 -1.3075  0.8856
11811TIP3    H256925   2.088   1.925  43.854  0.2878  0.3064  2.4261
11812TIP3   OH256926   1.694   3.115   9.657 -0.3228  0.3418  0.5322
11812TIP3    H156927   1.736   3.062   9.588 -1.1132  0.1906  0.1507
11812TIP3    H256928   1.725   3.204   9.640 -1.1658  0.4547 -0.5708
11813TIP3   OH256929   3.000   1.553  12.786 -0.0796  0.0551  0.2833
11813TIP3    H156930   3.006   1.584  12.696  0.8994 -0.0729  0.2932
11813TIP3    H256931   3.082   1.507  12.801 -0.1824  0.1820  1.2861
11814TIP3   OH256932   1.355   1.632  42.468 -0.7270 -0.6582  0.2437
11814TIP3    H156933   1.439   1.591  42.488 -0.3335  0.0006  0.0067
11814TIP3    H256934   1.378   1.722  42.442 -1.5929 -0.1222  1.2507
11815TIP3   OH256935   2.911   1.968  35.076 -0.0672  0.1418 -0.0570
11815TIP3    H156936   2.904   1.873  35.072 -2.5247  0.2406  0.4565
11815TIP3    H256937   2.918   1.988  35.170  2.3403  0.4398 -0.2377
11816TIP3   OH256938   0.654   3.310  32.669  0.3854 -0.0739  0.0322
11816TIP3    H156939   0.733   3.364  32.673  0.1918  0.2000  0.2103
11816TIP3    H256940   0.603   3.337  32.745 -0.7813  1.1754 -1.1439
11817TIP3   OH256941   0.842   0.161   1.349  0.6242  0.3082  0.1325
11817TIP3    H156942   0.913   0.097   1.361  0.7987  0.5319  0.2916
11817TIP3    H256943   0.788   0.123   1.280  0.1722 -0.5101  0.9018
11818TIP3   OH256944   3.801   1.293  14.768  0.2172  0.7126  0.1784
11818TIP3    H156945   3.813   1.198  14.764  0.4083  0.7510 -0.1523
11818TIP3    H256946   3.772   1.309  14.858 -3.0254 -0.0291 -0.6019
11819TIP3   OH256947   3.522   0.143   7.304 -0.0291  0.2807 -0.1397
11819TIP3    H156948   3.534   0.214   7.240 -0.2027 -2.0579 -2.9611
11819TIP3    H256949   3.610   0.110   7.320 -0.2866 -2.3497 -3.2602
11820TIP3   OH256950   2.870   0.924   9.462  0.3323 -0.2240 -0.2848
11820TIP3    H156951   2.802   0.857   9.471  0.1188 -0.2018 -1.5387
11820TIP3    H256952   2.831   1.003   9.501 -0.4729 -0.1517 -1.1880
11821TIP3   OH256953   1.838   3.946  31.338  0.1841 -0.1155  0.6221
11821TIP3    H156954   1.782   4.012  31.377 -2.0968 -2.0351  0.7915
11821TIP3    H256955   1.882   3.992  31.266 -0.5311  1.7966  1.3335
11822TIP3   OH256956   0.479   1.432   7.736  0.6404 -0.7748 -0.0485
11822TIP3    H156957   0.433   1.360   7.692 -1.6875  0.5553  0.0362
11822TIP3    H256958   0.501   1.493   7.666  2.0800 -1.2642 -0.0454
11823TIP3   OH256959   1.479   0.591  45.727  0.2965 -0.0662  0.1359
11823TIP3    H156960   1.451   0.505  45.695 -1.5567  0.9782 -1.3193
11823TIP3    H256961   1.561   0.609  45.681  0.7378 -1.0809  0.5151
11824TIP3   OH256962   2.671   0.289  38.613  0.3732  0.6574  0.4672
11824TIP3    H156963   2.623   0.372  38.610  1.4740  1.3840  1.8095
11824TIP3    H256964   2.749   0.306  38.559 -0.4941 -0.2984 -1.1627
11825TIP3   OH256965   0.649   1.602   1.216 -0.2116  0.6279 -0.5919
11825TIP3    H156966   0.566   1.569   1.183  0.1822  0.4759 -1.4730
11825TIP3    H256967   0.666   1.551   1.296 -0.8567  0.5174 -0.5250
11826TIP3   OH256968   2.262   3.272  34.546 -0.5811 -0.5562 -0.4189
11826TIP3    H156969   2.191   3.317  34.590 -0.1854 -0.5763  0.2440
11826TIP3    H256970   2.238   3.274  34.453  0.5203  3.0975 -0.7784
11827TIP3   OH256971   2.326   2.857  34.179 -0.4846 -0.5633 -0.0992
11827TIP3    H156972   2.261   2.884  34.114 -0.7397 -2.5341 -0.7243
11827TIP3    H256973   2.410   2.867  34.134 -0.2269  2.3053  0.8168
11828TIP3   OH256974   2.561   2.900   8.951  0.0640  0.0243 -0.5293
11828TIP3    H156975   2.602   2.889   8.865  0.6771  0.2870 -0.2767
11828TIP3    H256976   2.470   2.871   8.938 -0.3645  1.7412 -1.7264
11829TIP3   OH256977   0.962   2.750   1.155  0.1413 -0.5894 -0.3111
11829TIP3    H156978   0.935   2.715   1.071 -0.6095 -0.3871 -0.1613
11829TIP3    H256979   0.928   2.688   1.219 -1.9230  0.7379  0.0143
11830TIP3   OH256980   3.069   1.297  33.822  0.2171 -1.2728  0.5055
11830TIP3    H156981   3.100   1.210  33.795 -0.9470 -1.8634  1.0234
11830TIP3    H256982   3.029   1.334  33.743  0.8829 -1.1146  0.2325
11831TIP3   OH256983   1.854   0.923  13.314  0.5219 -0.0907 -0.5730
11831TIP3    H156984   1.787   0.902  13.249  1.6996  1.7284 -2.4889
11831TIP3    H256985   1.819   0.999  13.361 -0.1257 -1.1283  0.7147
11832TIP3   OH256986   0.914   0.505   1.982  0.0529 -0.8660 -0.0629
11832TIP3    H156987   0.911   0.415   2.014 -1.1601 -1.0168 -0.5724
11832TIP3    H256988   0.823   0.535   1.983  0.4292  0.3576  0.0866
11833TIP3   OH256989   1.600   1.768  32.989  0.3366 -0.0388  0.5719
11833TIP3    H156990   1.663   1.776  32.917 -0.3414 -2.5116 -0.4090
11833TIP3    H256991   1.579   1.858  33.012 -0.7335  1.0042 -3.5210
11834TIP3   OH256992   0.823   0.651   8.923  0.3029 -0.3547  0.5270
11834TIP3    H156993   0.843   0.637   9.015  0.5487  0.8999  0.6890
11834TIP3    H256994   0.808   0.564   8.887 -0.3046 -0.8192  1.8628
11835TIP3   OH256995   1.373   2.815   8.926 -0.0899 -0.8970 -0.3885
11835TIP3    H156996   1.426   2.892   8.909 -1.5994  0.1084 -0.7083
11835TIP3    H256997   1.430   2.741   8.903  0.9450  0.1577 -1.3087
11836TIP3   OH256998   2.616   2.985  46.734  0.4073 -0.1568  0.1638
11836TIP3    H156999   2.668   2.909  46.759  0.0729 -0.3550  0.2700
11836TIP3    H257000   2.534   2.948  46.700  1.2475  0.0543 -2.2811
11837TIP3   OH257001   1.426   1.869   5.903 -0.4883  0.6764 -0.4830
11837TIP3    H157002   1.400   1.776   5.910  0.5303  0.3700 -0.6968
11837TIP3    H257003   1.513   1.867   5.865 -0.2448  1.7150 -0.0063
11838TIP3   OH257004   0.846   1.834  38.288 -0.0597 -0.3115  0.1719
11838TIP3    H157005   0.880   1.914  38.329 -1.0502 -0.2457  0.8905
11838TIP3    H257006   0.923   1.795  38.246  0.7652  0.1741  1.1907
11839TIP3   OH257007   2.020   1.635   9.262  0.2017 -0.2106  0.0220
11839TIP3    H157008   2.029   1.702   9.330  1.9976 -0.0441 -0.3391
11839TIP3    H257009   2.088   1.656   9.199  0.4442 -2.0748 -0.3758
11840TIP3   OH257010   2.151   3.531  38.067 -0.3176  0.4927 -0.4888
11840TIP3    H157011   2.117   3.593  38.133 -2.5174 -1.0385 -0.0538
11840TIP3    H257012   2.199   3.586  38.005  0.5330  2.2010  1.5445
11841TIP3   OH257013   3.380   2.492   4.926 -0.5552 -0.4024 -0.8479
11841TIP3    H157014   3.428   2.417   4.962 -1.0873 -1.0451 -1.4378
11841TIP3    H257015   3.430   2.569   4.954 -1.0595 -0.8333  1.4528
11842TIP3   OH257016   1.968   1.739  18.777 -0.0353  0.5528  0.8523
11842TIP3    H157017   1.922   1.741  18.861  0.8083 -0.5308  1.3629
11842TIP3    H257018   1.900   1.720  18.713 -0.2554 -1.8112  1.6886
11843TIP3   OH257019   1.977   0.592  37.213 -0.1781 -0.4419 -0.3536
11843TIP3    H157020   1.953   0.546  37.294  0.0475 -1.0465 -0.6181
11843TIP3    H257021   1.917   0.666  37.208  0.8771  0.5884  1.2277
11844TIP3   OH257022   4.108   0.782  32.716 -0.2077  0.6653 -0.4204
11844TIP3    H157023   4.169   0.733  32.661  0.1048  0.4598  0.1048
11844TIP3    H257024   4.026   0.783  32.666 -0.2959 -0.5946 -0.3473
11845TIP3   OH257025   0.925   0.576  33.393 -0.2015 -0.2580  0.0268
11845TIP3    H157026   0.870   0.631  33.338 -0.9250 -1.3016 -0.3159
11845TIP3    H257027   1.014   0.598  33.367 -0.4764  0.6873 -0.1541
11846TIP3   OH257028   0.207   2.184   6.430 -0.5378 -0.2288  0.1635
11846TIP3    H157029   0.167   2.230   6.356 -0.9211  0.7727  0.9524
11846TIP3    H257030   0.290   2.152   6.397 -1.8527 -2.1869 -1.4742
11847TIP3   OH257031   3.619   0.750  15.300 -0.4202 -0.4091  0.0131
11847TIP3    H157032   3.623   0.839  15.336 -0.4600 -0.5794  0.4562
11847TIP3    H257033   3.526   0.736  15.281 -0.3276 -0.1226 -0.6761
11848TIP3   OH257034   2.448   0.511  33.515 -0.3719  0.9703  0.0346
11848TIP3    H157035   2.471   0.592  33.559  0.6949  0.5511  0.2887
11848TIP3    H257036   2.499   0.512  33.434  0.9039 -0.1436  0.7772
11849TIP3   OH257037   0.205   0.936  10.174  0.2441  0.2553  0.1783
11849TIP3    H157038   0.123   0.912  10.217  0.4072  0.4942  0.6310
11849TIP3    H257039   0.234   0.856  10.131 -0.9423  0.5103 -1.1704
11850TIP3   OH257040   3.641   0.466  32.331 -0.2656  0.0126  0.1616
11850TIP3    H157041   3.563   0.493  32.283  0.4913 -0.0134 -1.1372
11850TIP3    H257042   3.701   0.540  32.324 -0.3528  0.2394  1.5991
11851TIP3   OH257043   1.164   4.077  35.323  0.0120 -0.0427  0.0559
11851TIP3    H157044   1.152   4.036  35.237 -1.1239 -1.1571  0.7105
11851TIP3    H257045   1.189   4.004  35.380 -0.0930  0.5331  0.8443
11852TIP3   OH257046   0.725   2.520  45.212  0.0354  0.5715  0.0108
11852TIP3    H157047   0.778   2.600  45.218  0.6685  0.0396  3.4300
11852TIP3    H257048   0.657   2.532  45.278  0.0567 -1.6077  0.4891
11853TIP3   OH257049   0.800   1.926  14.825  0.0826  0.1109 -0.2165
11853TIP3    H157050   0.730   1.966  14.877  0.1868 -0.6197  0.5031
11853TIP3    H257051   0.871   1.911  14.887  0.7074  0.3926 -0.8402
11854TIP3   OH257052   1.511   1.136  11.261 -0.1473  0.1025  0.5443
11854TIP3    H157053   1.450   1.063  11.267  0.4794 -0.5032 -0.2792
11854TIP3    H257054   1.544   1.147  11.351  0.1458 -0.9720  0.5815
11855TIP3   OH257055   2.698   0.023   6.362 -0.0455 -0.5048 -0.2460
11855TIP3    H157056   2.745   0.092   6.409  1.3567 -0.6001 -1.4445
11855TIP3    H257057   2.739  -0.059   6.390 -0.0219 -0.6574 -0.7144
11856TIP3   OH257058   3.398   1.010  44.385 -0.2166 -1.1363 -0.5291
11856TIP3    H157059   3.476   0.954  44.392 -1.1705 -2.4733 -0.1507
11856TIP3    H257060   3.332   0.965  44.438 -1.4729 -0.4425 -1.4559
11857TIP3   OH257061   1.379   2.846   5.949  0.0198  0.3008 -0.6624
11857TIP3    H157062   1.414   2.757   5.947 -0.4278  0.1068 -0.3104
11857TIP3    H257063   1.381   2.875   5.858 -0.1490 -0.2001 -0.8319
11858TIP3   OH257064   2.455   1.601  12.428  0.4047 -0.3111  0.9518
11858TIP3    H157065   2.417   1.665  12.488  1.6949  1.2702  0.1493
11858TIP3    H257066   2.441   1.637  12.341 -0.7606 -2.2032  0.2897
11859TIP3   OH257067   3.916   1.026  33.500 -0.1030  0.1296 -0.1103
11859TIP3    H157068   3.979   0.985  33.560  1.3356 -1.7353 -2.7145
11859TIP3    H257069   3.832   0.990  33.526  0.3543  0.0071  1.2795
11860TIP3   OH257070   0.909   0.266  43.218  0.3290  0.0870  0.3456
11860TIP3    H157071   0.943   0.293  43.304  1.3445 -0.5022  0.1469
11860TIP3    H257072   0.922   0.171  43.216 -0.2162  0.0177 -0.2410
11861TIP3   OH257073   3.333   2.348   8.925  0.6521  0.2844  0.2822
11861TIP3    H157074   3.412   2.399   8.940 -0.1414  1.1680  1.6064
11861TIP3    H257075   3.302   2.325   9.012  0.3667 -1.5362 -0.2546
11862TIP3   OH257076   3.551   1.685  43.615 -0.4299  0.3752  0.3473
11862TIP3    H157077   3.640   1.652  43.629 -0.1479 -0.1853 -2.2566
11862TIP3    H257078   3.554   1.775  43.648  1.3154  0.5729 -0.2228
11863TIP3   OH257079   3.300   2.852  30.757 -0.3541 -0.5184 -0.1450
11863TIP3    H157080   3.231   2.873  30.694  0.6044  1.3602 -0.6551
11863TIP3    H257081   3.381   2.881  30.715  0.5039 -0.6794  1.3093
11864TIP3   OH257082   2.732   0.977   3.034 -0.1142  0.1533 -0.4355
11864TIP3    H157083   2.706   1.058   2.991 -0.9710  0.7180  1.0738
11864TIP3    H257084   2.742   1.001   3.126 -2.1559 -1.8034  0.3966
11865TIP3   OH257085   0.389   2.800   2.125  0.5805  0.4228  0.4868
11865TIP3    H157086   0.435   2.782   2.043  0.8624  0.6443  0.5935
11865TIP3    H257087   0.361   2.892   2.117  1.5513  0.7867  1.0838
11866TIP3   OH257088   1.321   3.017   6.543 -1.2787  0.0103  0.2724
11866TIP3    H157089   1.383   3.018   6.471 -0.5227  0.0806  0.9105
11866TIP3    H257090   1.310   3.109   6.568 -1.8667  0.0255 -0.0217
11867TIP3   OH257091   3.059   0.750  45.628 -0.1741 -0.3722  0.9362
11867TIP3    H157092   3.090   0.825  45.576  0.5567  0.0775  1.9890
11867TIP3    H257093   3.021   0.690  45.563  0.1471  0.4506 -0.0394
11868TIP3   OH257094   3.904   1.723   0.084 -0.1308  0.5756 -0.1481
11868TIP3    H157095   3.917   1.694   0.174  0.3687  0.9923 -0.0797
11868TIP3    H257096   3.987   1.700   0.040 -0.8147 -0.7542 -0.8132
11869TIP3   OH257097   0.531   3.972   5.352 -0.6272 -0.5465  0.2126
11869TIP3    H157098   0.503   4.022   5.275  1.5682  1.6057  0.7220
11869TIP3    H257099   0.535   3.882   5.321 -1.7761 -0.0301 -1.6053
11870TIP3   OH257100   1.884   1.660   0.974 -0.6476  0.9708 -0.2406
11870TIP3    H157101   1.810   1.602   0.955 -2.2037  1.4473  3.4671
11870TIP3    H257102   1.848   1.748   0.961  0.0123  1.1819 -0.6440
11871TIP3   OH257103   4.027   3.201  46.771 -0.2394  0.1188 -0.0969
11871TIP3    H157104   3.965   3.167  46.835  0.7217 -1.0368  0.2755
11871TIP3    H257105   4.053   3.124  46.720 -1.5981  1.1499 -2.4638
11872TIP3   OH257106   0.136   4.010   4.456 -0.6769  0.0077 -0.0486
11872TIP3    H157107   0.136   3.987   4.549 -0.4616  1.4263  0.3162
11872TIP3    H257108   0.193   4.086   4.450  0.2377 -0.7541 -1.5326
11873TIP3   OH257109   2.559   0.729   5.585  0.0267 -0.1613  0.2154
11873TIP3    H157110   2.486   0.788   5.564 -1.1643 -1.9337 -0.9289
11873TIP3    H257111   2.606   0.719   5.503  0.0475 -1.0226  0.3293
11874TIP3   OH257112   1.286   0.811   3.827 -0.0758 -0.0478  0.0527
11874TIP3    H157113   1.260   0.861   3.904 -2.0280  0.3905 -0.8110
11874TIP3    H257114   1.267   0.869   3.753 -2.3168 -1.9250 -0.9948
11875TIP3   OH257115   3.401   1.078   3.350 -0.1470  0.3906  0.6621
11875TIP3    H157116   3.463   1.142   3.384  2.1618 -0.9531 -0.7156
11875TIP3    H257117   3.449   1.034   3.279 -2.1592 -1.7756  0.5233
11876TIP3   OH257118   4.063   2.112   7.875  0.2545  0.5050 -0.1000
11876TIP3    H157119   4.128   2.044   7.856  1.3904  1.6777 -0.5958
11876TIP3    H257120   3.981   2.078   7.840  0.6249 -0.9239  0.3448
11877TIP3   OH257121   0.590   2.432  10.463  0.2013  0.2407 -0.2710
11877TIP3    H157122   0.649   2.358  10.472 -0.5397 -0.2848  0.4076
11877TIP3    H257123   0.623   2.480  10.387  2.0942  0.5410  0.6700
11878TIP3   OH257124   1.325   0.825   4.187 -0.5665 -0.1471 -0.0760
11878TIP3    H157125   1.266   0.750   4.193  1.2940 -1.8097 -1.3991
11878TIP3    H257126   1.351   0.841   4.278 -0.6532 -1.3842  0.1869
11879TIP3   OH257127   2.721   2.289   9.169  0.5305  0.6726 -0.6288
11879TIP3    H157128   2.712   2.227   9.242 -0.1519  0.0248 -1.2499
11879TIP3    H257129   2.809   2.274   9.135  1.3385  1.8394  0.8118
11880TIP3   OH257130   0.558   0.167   1.479 -0.0944  0.0902 -0.2266
11880TIP3    H157131   0.617   0.228   1.522  0.1657  0.9396 -1.7225
11880TIP3    H257132   0.548   0.095   1.541  0.1372  1.3169  1.2961
11881TIP3   OH257133   0.283   1.912   1.977 -0.3057  0.1094  0.2336
11881TIP3    H157134   0.265   1.978   2.043  1.7047  2.6358 -1.5400
11881TIP3    H257135   0.223   1.840   1.997 -1.3192  1.6772  3.3687
11882TIP3   OH257136   1.736   3.294  28.387  0.1631 -0.5121 -0.6050
11882TIP3    H157137   1.824   3.257  28.391  0.0672 -0.8923 -1.6982
11882TIP3    H257138   1.706   3.276  28.298 -1.2324 -0.8491 -0.0935
11883TIP3   OH257139   0.415   0.602  41.495  0.4416  0.1318  0.1881
11883TIP3    H157140   0.485   0.659  41.526  0.9683 -0.1717 -0.4020
11883TIP3    H257141   0.420   0.607  41.400 -2.0736  2.1823  0.0404
11884TIP3   OH257142   2.362   0.332  14.667  0.0801 -0.1529  0.4793
11884TIP3    H157143   2.407   0.411  14.698  0.3010 -0.9027  2.2033
11884TIP3    H257144   2.391   0.263  14.727 -1.9566 -1.0460  0.5221
11885TIP3   OH257145   3.935   1.365  35.984  0.2346  0.1876 -0.0071
11885TIP3    H157146   3.843   1.366  36.011  0.0203 -1.2058 -0.6161
11885TIP3    H257147   3.936   1.415  35.903 -0.4953 -1.9153 -1.3924
11886TIP3   OH257148   3.960   3.446  44.106  0.1375 -0.3790  0.1950
11886TIP3    H157149   3.925   3.375  44.160  0.8780 -1.7618 -1.0359
11886TIP3    H257150   4.039   3.474  44.152 -0.4693  0.0702  0.9866
11887TIP3   OH257151   2.322   0.640  15.011 -0.7669  0.1501  0.1342
11887TIP3    H157152   2.361   0.605  15.091  0.4581 -1.0180 -0.9194
11887TIP3    H257153   2.228   0.633  15.024 -0.6014  0.5798  1.7079
11888TIP3   OH257154   3.916   0.265  13.662  0.7157 -0.5705 -0.0951
11888TIP3    H157155   3.942   0.313  13.741 -0.7553 -0.9647  0.6656
11888TIP3    H257156   3.998   0.237  13.622  1.6568  2.5324 -0.5777
11889TIP3   OH257157   1.606   2.636  11.280  0.2632  0.1250 -0.3013
11889TIP3    H157158   1.629   2.543  11.275  0.2354  0.0299  1.0103
11889TIP3    H257159   1.686   2.681  11.253  0.3069 -0.2754 -0.8593
11890TIP3   OH257160   2.297   3.639   6.921 -0.2236  0.3109 -0.3090
11890TIP3    H157161   2.246   3.670   6.996 -0.2473 -1.1125  0.2993
11890TIP3    H257162   2.380   3.685   6.927 -1.0444  1.9177 -0.7375
11891TIP3   OH257163   3.964   2.064  35.869  0.1434 -0.2651  0.2638
11891TIP3    H157164   4.000   1.979  35.891  0.7776  0.1434  0.8334
11891TIP3    H257165   3.911   2.089  35.945 -1.5706 -0.9523 -0.6387
11892TIP3   OH257166   3.725   0.025  36.377  0.3422 -0.1924 -0.0513
11892TIP3    H157167   3.767   0.044  36.293  0.8539 -1.7805 -0.1912
11892TIP3    H257168   3.797   0.021  36.440 -0.0013  0.6388  0.4030
11893TIP3   OH257169   0.922   3.514  37.282  0.0857 -0.1316 -0.0641
11893TIP3    H157170   0.916   3.578  37.211  2.0916  0.9730  0.6816
11893TIP3    H257171   0.950   3.565  37.358  0.3266 -1.6697  0.9236
11894TIP3   OH257172   1.420   2.964   3.749  0.9630 -0.1686 -0.1174
11894TIP3    H157173   1.507   2.970   3.709  0.5627  0.2362 -0.9558
11894TIP3    H257174   1.411   3.045   3.798  0.4147  0.5625 -1.3906
11895TIP3   OH257175   3.699   3.007  15.254 -0.3559 -0.5163  0.5061
11895TIP3    H157176   3.623   3.002  15.197 -0.6099 -0.4611  0.8386
11895TIP3    H257177   3.677   3.074  15.319 -0.1936 -0.7958  0.8517
11896TIP3   OH257178   1.065   1.302  47.008  0.5387  0.3905 -0.6635
11896TIP3    H157179   1.011   1.317  47.085  0.6493 -1.7683 -0.0933
11896TIP3    H257180   1.017   1.342  46.936 -1.0292 -0.0705  0.0913
11897TIP3   OH257181   2.303   0.891  46.764  0.1660 -0.5437 -0.5413
11897TIP3    H157182   2.302   0.817  46.825 -2.2012  0.5679  0.8849
11897TIP3    H257183   2.221   0.883  46.715  0.8788 -0.0039 -1.8827
11898TIP3   OH257184   2.818   0.137  11.574 -0.2966  0.6816  0.7455
11898TIP3    H157185   2.799   0.224  11.610 -1.6686  0.2116  1.2193
11898TIP3    H257186   2.739   0.114  11.525 -0.4742 -0.8172  1.6681
11899TIP3   OH257187   0.710   2.527  13.581 -0.2608 -0.6896  0.1524
11899TIP3    H157188   0.763   2.461  13.536  1.2773  0.9377 -0.5315
11899TIP3    H257189   0.687   2.486  13.664  0.9685 -1.9662 -0.0967
11900TIP3   OH257190   3.496   0.024   8.149 -0.0684 -0.2243  0.4227
11900TIP3    H157191   3.428   0.088   8.128  0.7417 -0.0760 -2.1580
11900TIP3    H257192   3.559   0.072   8.203  0.3126  1.0908 -1.1182
11901TIP3   OH257193   2.882   0.510  42.671  0.1432  0.4366 -0.1902
11901TIP3    H157194   2.913   0.600  42.685  1.8326 -0.1720  0.1938
11901TIP3    H257195   2.793   0.521  42.639  0.1666  2.2442  0.2206
11902TIP3   OH257196   1.161   3.558   6.241 -0.3440 -0.6041 -0.0532
11902TIP3    H157197   1.234   3.608   6.278 -0.6642 -1.0355  1.2354
11902TIP3    H257198   1.089   3.620   6.238 -0.6492 -0.8676  1.2317
11903TIP3   OH257199   0.488   1.560  10.846 -0.3221  0.1165 -0.3178
11903TIP3    H157200   0.563   1.611  10.814 -0.7753  0.1389 -1.3922
11903TIP3    H257201   0.412   1.614  10.826 -0.6792 -0.1568  0.2590
11904TIP3   OH257202   0.660   3.354   7.941  0.2358  0.2504  0.0948
11904TIP3    H157203   0.648   3.370   8.035 -2.2251  1.2503 -0.3137
11904TIP3    H257204   0.753   3.368   7.926  0.8633 -0.7674  2.5140
11905TIP3   OH257205   0.584   1.141   7.951 -0.1312 -0.2043  0.1245
11905TIP3    H157206   0.526   1.205   7.993 -0.6216 -0.5648  0.0071
11905TIP3    H257207   0.665   1.189   7.936 -0.0609  0.0354  1.1618
11906TIP3   OH257208   2.323   1.954   3.609 -0.1242 -0.3796  0.2209
11906TIP3    H157209   2.395   1.914   3.657  0.2165 -0.1086 -0.0506
11906TIP3    H257210   2.342   2.048   3.613 -0.0302 -0.3604 -0.5295
11907TIP3   OH257211   4.007   4.028   5.183  0.1473 -0.6416 -0.0856
11907TIP3    H157212   3.997   4.119   5.155  0.3725 -1.3907 -2.8350
11907TIP3    H257213   4.000   4.032   5.279  0.0500  2.2275 -0.1242
11908TIP3   OH257214   3.597   4.051   1.683 -0.3951  0.1966 -0.5250
11908TIP3    H157215   3.575   4.055   1.589  1.3163  0.1793 -0.9599
11908TIP3    H257216   3.690   4.028   1.685  0.5427  3.4992  1.0697
11909TIP3   OH257217   0.389   3.086  37.215  0.0361  0.2384  0.6444
11909TIP3    H157218   0.454   3.088  37.286  0.4541 -0.8736  0.3110
11909TIP3    H257219   0.439   3.102  37.136  0.1303 -1.8357  0.2485
11910TIP3   OH257220   3.773   1.004  11.288  0.6216  0.2923 -0.0126
11910TIP3    H157221   3.816   1.080  11.328 -1.6599  2.2483 -1.0730
11910TIP3    H257222   3.763   1.027  11.196 -0.8743 -0.9459 -0.1997
11911TIP3   OH257223   3.675   2.552  43.608  0.2693 -0.1782  0.4422
11911TIP3    H157224   3.615   2.585  43.675  0.5756 -2.8680  2.1950
11911TIP3    H257225   3.714   2.473  43.647  0.5406 -1.8581 -2.8744
11912TIP3   OH257226   0.863   0.202  25.175 -0.2998  0.0372 -0.0052
11912TIP3    H157227   0.838   0.117  25.140  2.0715 -0.5128 -0.5662
11912TIP3    H257228   0.929   0.235  25.114  1.5140  0.5819  2.0989
11913TIP3   OH257229   3.023   3.635  31.579  0.0637  0.3816  0.1723
11913TIP3    H157230   2.933   3.604  31.588 -0.0534  0.7349  0.2218
11913TIP3    H257231   3.075   3.576  31.635  0.2122 -1.3390 -1.6679
11914TIP3   OH257232   2.566   3.748  11.456 -0.0502  0.1522  0.2363
11914TIP3    H157233   2.538   3.692  11.528 -0.1523 -0.4307 -0.2473
11914TIP3    H257234   2.529   3.833  11.475 -1.6268 -0.4405 -0.0586
11915TIP3   OH257235   0.766   0.530  45.089 -0.1653 -0.2664 -0.4041
11915TIP3    H157236   0.771   0.591  45.163 -0.1119 -0.5015 -0.2143
11915TIP3    H257237   0.748   0.586  45.013  0.7433  0.0832 -0.3714
11916TIP3   OH257238   2.460   0.056  35.084 -0.2336 -0.1973  0.2726
11916TIP3    H157239   2.517   0.059  35.161  0.4178 -0.7608 -0.1838
11916TIP3    H257240   2.379   0.100  35.113  1.0958  2.4040  0.3446
11917TIP3   OH257241   1.499   0.033  40.798 -0.0397  0.1837 -0.1781
11917TIP3    H157242   1.492  -0.001  40.709 -0.6727  1.1773 -0.5242
11917TIP3    H257243   1.478   0.126  40.790 -1.7089 -0.0145  1.2159
11918TIP3   OH257244   2.190   0.993  14.966  0.5070  0.4060 -0.0616
11918TIP3    H157245   2.257   1.050  14.928 -0.0960  2.3015  1.5450
11918TIP3    H257246   2.107   1.037  14.945 -0.0789 -0.6342  0.0308
11919TIP3   OH257247   1.991   1.931  45.804  0.0247  0.8069  0.1598
11919TIP3    H157248   1.993   1.946  45.710 -4.2406 -1.4870 -0.5355
11919TIP3    H257249   1.913   1.977  45.835  2.9569  4.3415  3.4718
11920TIP3   OH257250   3.619   1.863  44.422  0.6235 -0.9549 -0.6638
11920TIP3    H157251   3.527   1.835  44.424  0.5222 -0.6238  1.1343
11920TIP3    H257252   3.621   1.933  44.357 -0.3961 -0.9663 -0.7312
11921TIP3   OH257253   0.879   3.708  40.145  0.4023  0.5954  0.0291
11921TIP3    H157254   0.900   3.618  40.119  1.0331  0.6485  0.3485
11921TIP3    H257255   0.948   3.761  40.106 -0.2769  1.0242 -0.6370
11922TIP3   OH257256   1.303   1.855  14.873  0.0124 -0.0716  0.1119
11922TIP3    H157257   1.380   1.846  14.817 -1.3357 -0.8804 -1.7021
11922TIP3    H257258   1.254   1.928  14.835  1.0882  2.3183  2.8706
11923TIP3   OH257259   2.570   1.732  20.811  0.5392  0.0856  0.3463
11923TIP3    H157260   2.486   1.734  20.764  0.7568  1.2621 -0.0379
11923TIP3    H257261   2.629   1.784  20.756  2.0739 -2.2029 -0.3270
11924TIP3   OH257262   1.497   3.260  36.608 -0.3005 -0.2069 -0.3283
11924TIP3    H157263   1.508   3.250  36.702 -0.9442  1.1499 -0.0804
11924TIP3    H257264   1.580   3.231  36.570 -0.4346 -1.8227  0.5546
11925TIP3   OH257265   0.931   3.123  44.906 -0.0021  0.4029 -0.1174
11925TIP3    H157266   0.978   3.184  44.849 -0.9330  1.1772 -0.0833
11925TIP3    H257267   0.842   3.123  44.872  0.7516 -4.1872 -2.8211
11926TIP3   OH257268   3.798   3.580  35.469 -0.2024 -0.0365 -0.4622
11926TIP3    H157269   3.823   3.644  35.403  1.2444  0.0460  0.1192
11926TIP3    H257270   3.855   3.600  35.544 -0.9861 -0.8654  0.3854
11927TIP3   OH257271   0.597   2.898  34.087  0.1957 -0.3271  0.0809
11927TIP3    H157272   0.508   2.916  34.056  0.3435  1.1067  0.4270
11927TIP3    H257273   0.646   2.978  34.067  1.6769 -1.4420 -1.0016
11928TIP3   OH257274   2.551   1.353   3.920  0.5088  0.4198  0.1313
11928TIP3    H157275   2.484   1.422   3.924 -1.0289 -0.8703 -1.5963
11928TIP3    H257276   2.526   1.291   3.987  0.2742  0.2011 -0.1561
11929TIP3   OH257277   1.104   2.754   5.898 -0.1842  0.0698 -0.4794
11929TIP3    H157278   1.020   2.732   5.859 -0.9729 -0.4926  1.3926
11929TIP3    H257279   1.099   2.848   5.916 -1.8355 -0.4649  2.5615
11930TIP3   OH257280   3.858   2.420   1.511 -0.1309  0.0136 -0.0748
11930TIP3    H157281   3.840   2.514   1.507 -0.7155 -0.0920 -0.0352
11930TIP3    H257282   3.953   2.414   1.511 -0.0535  0.5382 -2.0495
11931TIP3   OH257283   0.506   0.296  38.508 -0.2486 -0.2918  0.4213
11931TIP3    H157284   0.492   0.225  38.570  1.7764 -0.3173  0.9157
11931TIP3    H257285   0.595   0.283  38.476 -0.3559  1.1898 -0.5846
11932TIP3   OH257286   2.995   2.773   8.610  0.8838  0.6590 -0.0146
11932TIP3    H157287   2.920   2.832   8.604  1.7280  1.7373 -0.6394
11932TIP3    H257288   2.997   2.745   8.701 -2.0222 -1.8730 -0.5671
11933TIP3   OH257289   0.200   1.763   6.828  0.1328  0.1949  0.0878
11933TIP3    H157290   0.143   1.812   6.769 -0.0001  0.6535  0.5859
11933TIP3    H257291   0.201   1.815   6.908 -1.1441 -1.3355  1.1566
11934TIP3   OH257292   2.136   3.082  42.149 -0.5407 -0.1193 -0.3819
11934TIP3    H157293   2.121   3.174  42.170  0.2661  0.2835 -1.4986
11934TIP3    H257294   2.180   3.047  42.227 -0.3414  0.5809 -0.1702
11935TIP3   OH257295   3.731   0.528  28.824 -0.1862  0.0328  0.3634
11935TIP3    H157296   3.770   0.552  28.740 -2.5387  0.1513 -0.7662
11935TIP3    H257297   3.805   0.496  28.876  1.5038  0.8802 -1.3725
11936TIP3   OH257298   2.173   0.148  27.340  0.2258  0.1851 -0.6041
11936TIP3    H157299   2.175   0.194  27.256 -0.4073  0.2386 -0.5919
11936TIP3    H257300   2.261   0.160  27.376 -0.0369  1.7568 -0.4124
11937TIP3   OH257301   1.291   1.117  41.787  0.5503 -0.3271  0.2452
11937TIP3    H157302   1.273   1.046  41.726 -0.0962  0.0606 -0.0263
11937TIP3    H257303   1.387   1.122  41.791  0.5943 -1.0063  0.0369
11938TIP3   OH257304   0.185   2.285  33.484  0.6090 -0.0292  0.2588
11938TIP3    H157305   0.117   2.339  33.444  0.5259  0.8622  1.5156
11938TIP3    H257306   0.244   2.262  33.412 -1.4313 -1.5469 -1.0353
11939TIP3   OH257307   2.683   3.840   5.197  0.1413 -0.3562 -0.0947
11939TIP3    H157308   2.699   3.819   5.289  1.5450  2.3833  0.3774
11939TIP3    H257309   2.764   3.882   5.168 -0.6759 -0.1926 -2.3031
11940TIP3   OH257310   0.334   1.833   7.247  0.1106  0.1218  0.5158
11940TIP3    H157311   0.272   1.824   7.319 -0.9768  1.1103 -0.2599
11940TIP3    H257312   0.366   1.923   7.253 -0.0041  0.2190 -0.2466
11941TIP3   OH257313   3.418   3.869   0.256  0.3206 -0.5927  0.2673
11941TIP3    H157314   3.458   3.896   0.173  1.6835  2.6361  1.8126
11941TIP3    H257315   3.361   3.941   0.281 -1.2409 -2.1465  1.4852
11942TIP3   OH257316   1.523   0.069   4.719 -0.1472 -0.2574  0.3058
11942TIP3    H157317   1.551   0.159   4.734  0.7106 -0.5658  0.5765
11942TIP3    H257318   1.516   0.061   4.624  0.8953 -0.2266  0.2164
11943TIP3   OH257319   2.579   3.470  34.340  0.1742  0.0078  0.3174
11943TIP3    H157320   2.533   3.506  34.416  2.2790  1.7897  0.8579
11943TIP3    H257321   2.611   3.385  34.369 -0.3629 -0.0121  0.8745
11944TIP3   OH257322   2.522   1.217  34.862 -0.1741 -0.6058  0.4210
11944TIP3    H157323   2.483   1.302  34.842  1.7273  0.1098 -0.3919
11944TIP3    H257324   2.611   1.221  34.827  0.6620 -2.1842  2.1531
11945TIP3   OH257325   0.804   3.163  43.601 -0.1223  0.5727 -0.2225
11945TIP3    H157326   0.876   3.184  43.660 -0.6298 -1.0205  1.0177
11945TIP3    H257327   0.796   3.068  43.605 -0.4058  0.4324 -2.6310
11946TIP3   OH257328   2.213   4.103  10.186  0.1423 -0.0837  0.3789
11946TIP3    H157329   2.227   4.104  10.281  3.4333 -2.0039  0.0515
11946TIP3    H257330   2.122   4.075  10.176 -0.5291  0.8897  2.9309
11947TIP3   OH257331   0.820   0.234  10.741 -0.0454 -0.5154  0.0807
11947TIP3    H157332   0.828   0.154  10.689 -0.4091 -0.5720  0.1085
11947TIP3    H257333   0.889   0.292  10.707 -0.0261 -0.6992 -0.1940
11948TIP3   OH257334   1.033   0.235  28.252  0.1572  0.2914 -0.3147
11948TIP3    H157335   0.976   0.165  28.219 -1.0896 -0.6292  3.3979
11948TIP3    H257336   1.116   0.192  28.269 -0.6545 -0.4681  2.1125
11949TIP3   OH257337   4.047   1.012   4.207  0.1235 -0.1100  0.1805
11949TIP3    H157338   4.030   0.919   4.192 -0.7406  0.1041 -0.2373
11949TIP3    H257339   4.098   1.040   4.131  3.2738 -0.9416  1.8248
11950TIP3   OH257340   2.219   3.993  41.296 -0.3367 -0.1274 -0.2564
11950TIP3    H157341   2.142   3.942  41.317 -0.9014  0.5931 -0.5329
11950TIP3    H257342   2.211   4.073  41.348 -1.1906  1.1766 -2.2503
11951TIP3   OH257343   2.142   1.837  37.650  0.2227  0.4526 -0.2434
11951TIP3    H157344   2.188   1.815  37.569  0.2686  0.7908 -0.3122
11951TIP3    H257345   2.205   1.816  37.719  0.4027  0.7158 -0.3263
11952TIP3   OH257346   3.216   1.537  13.103  0.6893  0.3180 -0.7664
11952TIP3    H157347   3.246   1.459  13.150 -0.4578  1.0500  1.2989
11952TIP3    H257348   3.262   1.533  13.019 -0.1427 -3.1653 -1.2272
11953TIP3   OH257349   2.201   2.717   1.254  0.1934  0.8512 -0.3154
11953TIP3    H157350   2.294   2.701   1.270  0.0762  1.2949  0.9274
11953TIP3    H257351   2.182   2.799   1.300 -1.0017  0.3168  0.1945
11954TIP3   OH257352   3.307   2.134  32.538  0.0076 -0.3715 -0.5671
11954TIP3    H157353   3.264   2.210  32.577 -0.5117 -0.4696 -0.9359
11954TIP3    H257354   3.249   2.061  32.558  0.2241 -0.5795 -0.6946
11955TIP3   OH257355   0.194   2.781  41.636 -0.2599 -0.6209  0.4993
11955TIP3    H157356   0.282   2.794  41.600 -0.7933 -1.2051 -1.0625
11955TIP3    H257357   0.207   2.788  41.731  1.1835  0.9783  0.2469
11956TIP3   OH257358   3.515   2.358  38.020  0.8565 -0.6472 -0.9057
11956TIP3    H157359   3.570   2.418  37.971 -0.4739  0.3783 -1.2168
11956TIP3    H257360   3.439   2.343  37.963 -0.3895  0.0089  0.4950
11957TIP3   OH257361   0.678   0.110  41.784 -0.0593  0.0574 -0.1774
11957TIP3    H157362   0.750   0.107  41.847  0.7747  0.4136 -1.0953
11957TIP3    H257363   0.646   0.200  41.787  0.7720  0.4046 -1.1043
11958TIP3   OH257364   1.246   1.612  21.676 -1.0688  0.2354 -0.0189
11958TIP3    H157365   1.338   1.585  21.668 -0.5168  1.8469  0.5958
11958TIP3    H257366   1.197   1.530  21.671  0.4591 -0.7569  0.5219
11959TIP3   OH257367   1.818   0.563  14.227  0.4376  0.2747  0.2157
11959TIP3    H157368   1.740   0.509  14.220  1.6150 -1.3976 -0.9470
11959TIP3    H257369   1.820   0.591  14.318 -1.6776  0.6571  0.1909
11960TIP3   OH257370   1.584   1.179  38.510 -0.3700 -0.0037 -0.3785
11960TIP3    H157371   1.590   1.141  38.597  0.2343 -0.2311 -0.5154
11960TIP3    H257372   1.596   1.273  38.523 -2.7289  0.2857  0.0607
11961TIP3   OH257373   1.179   2.445  33.040  0.8601  0.1854  0.0279
11961TIP3    H157374   1.098   2.398  33.059  0.6270  0.0768 -1.1471
11961TIP3    H257375   1.248   2.380  33.051  0.4928 -0.6909 -2.1889
11962TIP3   OH257376   2.970   2.818   2.741 -0.3411  0.7085 -0.3550
11962TIP3    H157377   2.972   2.722   2.742  0.6564  0.6541 -2.0839
11962TIP3    H257378   2.995   2.844   2.830 -2.2277 -0.5957  0.6158
11963TIP3   OH257379   1.389   1.252   3.289  0.3444  0.4720 -0.4649
11963TIP3    H157380   1.296   1.232   3.299  0.8967 -0.9538  3.0406
11963TIP3    H257381   1.398   1.340   3.324  0.4717  0.1410  0.3499
11964TIP3   OH257382   0.547   1.847  11.578  0.3037 -0.1817 -0.3316
11964TIP3    H157383   0.503   1.837  11.493 -2.1500  1.6825  0.5993
11964TIP3    H257384   0.505   1.782  11.634 -1.2755  1.4924  0.5206
11965TIP3   OH257385   2.415   2.510  37.419 -0.3303  0.0328 -0.3052
11965TIP3    H157386   2.436   2.513  37.512 -1.2404  1.1300 -0.1190
11965TIP3    H257387   2.408   2.602  37.393 -0.8729 -0.2725 -1.2685
11966TIP3   OH257388   0.920   0.479   5.821  0.5065  0.2475  0.8117
11966TIP3    H157389   0.988   0.427   5.863  0.6765 -0.2903 -0.1049
11966TIP3    H257390   0.841   0.426   5.827  1.2839 -1.6452 -2.8184
11967TIP3   OH257391   2.017   0.809   0.839  0.4619 -0.1485  0.0978
11967TIP3    H157392   2.051   0.898   0.850 -1.7796  0.7620  0.1281
11967TIP3    H257393   1.985   0.806   0.749  1.4523 -1.3051 -0.2461
11968TIP3   OH257394   0.575   2.209  43.514 -0.0610  0.1999  0.3005
11968TIP3    H157395   0.587   2.121  43.480  3.0853 -0.4550  2.6584
11968TIP3    H257396   0.622   2.265  43.452  1.5015 -0.3845  0.8908
11969TIP3   OH257397   0.295   2.928  34.639 -0.5749  0.1407 -0.3523
11969TIP3    H157398   0.204   2.954  34.656 -0.8650  1.2319 -3.0685
11969TIP3    H257399   0.307   2.944  34.546  2.3033 -0.4071 -0.1553
11970TIP3   OH257400   0.620   1.341  31.963  0.5035  1.0812 -0.0634
11970TIP3    H157401   0.641   1.249  31.979  2.0888  1.8042  2.8602
11970TIP3    H257402   0.540   1.339  31.910 -0.5837 -2.0020  1.4221
11971TIP3   OH257403   3.421   3.282  10.919  0.5518  0.0816  0.0985
11971TIP3    H157404   3.434   3.358  10.976  3.9921 -0.0914 -0.2259
11971TIP3    H257405   3.464   3.210  10.965  0.1267 -0.9163 -1.0142
11972TIP3   OH257406   4.090   1.430  40.291  0.4234  0.0249 -0.4746
11972TIP3    H157407   4.021   1.448  40.354 -0.5404 -0.1477 -1.4635
11972TIP3    H257408   4.086   1.503  40.229  2.5491  1.1759  0.6175
11973TIP3   OH257409   0.489   2.527  38.006  0.1841 -0.0361 -0.0518
11973TIP3    H157410   0.494   2.576  38.087 -1.1994  0.9223 -0.5093
11973TIP3    H257411   0.577   2.492  37.993  0.3935 -0.3190  1.9045
11974TIP3   OH257412   2.946   0.657  14.797  0.2613  0.0602 -0.0383
11974TIP3    H157413   3.030   0.611  14.797  0.4270  0.2843 -1.9400
11974TIP3    H257414   2.968   0.749  14.789 -0.1354  0.0636 -1.4781
11975TIP3   OH257415   0.994   1.111   2.918 -0.2735  0.3954  0.2101
11975TIP3    H157416   1.045   1.070   2.849 -0.7636 -0.4337  0.3320
11975TIP3    H257417   1.013   1.060   2.997  1.2469  2.0704  1.0035
11976TIP3   OH257418   2.444   2.307  17.667  0.0711  0.2038  0.0921
11976TIP3    H157419   2.472   2.398  17.675 -1.5821  0.5800  2.8235
11976TIP3    H257420   2.409   2.285  17.753 -0.0056 -2.9047 -0.6175
11977TIP3   OH257421   2.702   1.531   1.301  0.0764 -0.4186  0.6609
11977TIP3    H157422   2.673   1.569   1.218  1.6952  3.1570  1.5434
11977TIP3    H257423   2.661   1.586   1.368  2.9161  0.1571  2.0589
11978TIP3   OH257424   1.069   0.027  32.012 -0.6813 -0.2285  0.0263
11978TIP3    H157425   1.014   0.104  32.000 -0.7713 -0.0670  1.3558
11978TIP3    H257426   1.137   0.054  32.074  1.0344 -0.3751 -1.6887
11979TIP3   OH257427   0.646   2.924  45.471 -0.1044 -0.2486  0.0135
11979TIP3    H157428   0.646   2.923  45.375  1.2768 -0.4090 -0.0017
11979TIP3    H257429   0.558   2.895  45.495 -0.2894 -0.7547 -1.1995
11980TIP3   OH257430   3.022   2.511  32.164  0.1118 -0.1040 -0.0385
11980TIP3    H157431   3.022   2.542  32.074  0.9589  1.3904  0.4415
11980TIP3    H257432   3.114   2.511  32.190 -0.2420  1.1963  1.3517
11981TIP3   OH257433   1.432   1.913   9.662  0.8452  0.4021 -0.4057
11981TIP3    H157434   1.462   2.002   9.645 -1.7289  1.2367 -1.0147
11981TIP3    H257435   1.443   1.868   9.579  2.1424  0.1047 -0.0992
11982TIP3   OH257436   3.497   0.198   1.115 -0.4648  0.5970 -0.6658
11982TIP3    H157437   3.533   0.111   1.102 -0.9458  0.6377 -2.5689
11982TIP3    H257438   3.571   0.252   1.143 -0.0163 -0.2569 -0.1884
11983TIP3   OH257439   1.923   2.212  39.177 -0.4760 -0.0303  0.1606
11983TIP3    H157440   1.972   2.258  39.108 -0.8583 -1.3694 -1.0486
11983TIP3    H257441   1.926   2.120  39.151 -0.4954 -0.6029  2.0461
11984TIP3   OH257442   3.350   2.912  32.635  0.2629  0.1270 -0.5498
11984TIP3    H157443   3.305   2.860  32.568  1.1897 -0.3194 -0.8389
11984TIP3    H257444   3.337   3.003  32.608  2.3391 -0.0841 -2.5168
11985TIP3   OH257445   1.474   3.729  35.770  0.5136 -0.3325  0.6177
11985TIP3    H157446   1.492   3.823  35.760 -2.0530  0.0862 -0.7300
11985TIP3    H257447   1.506   3.690  35.689  1.0486 -0.5474  0.9312
11986TIP3   OH257448   1.116   0.605  41.177  0.1660  0.3665  0.7745
11986TIP3    H157449   1.205   0.594  41.212  0.1868  1.0314  0.9547
11986TIP3    H257450   1.077   0.518  41.183  0.8762  0.0092  0.4837
11987TIP3   OH257451   2.507   3.781   1.597 -0.1721  0.6442  0.3921
11987TIP3    H157452   2.476   3.759   1.509 -1.7146  0.5160  0.9400
11987TIP3    H257453   2.468   3.867   1.615  0.5339  0.8913  0.7756
11988TIP3   OH257454   0.884   0.075  11.804 -0.0302 -0.6727  0.3657
11988TIP3    H157455   0.971   0.062  11.766 -0.1434 -0.6043  0.0808
11988TIP3    H257456   0.845  -0.013  11.802 -0.7896 -0.3382 -1.5474
11989TIP3   OH257457   1.583   0.540  46.284 -0.1340 -0.0295 -0.2225
11989TIP3    H157458   1.589   0.512  46.375  0.7831 -3.2206 -1.1506
11989TIP3    H257459   1.599   0.634  46.286  0.5632 -0.1353  2.8194
11990TIP3   OH257460   3.971   0.298   1.123 -0.6877  0.8055  0.6059
11990TIP3    H157461   3.960   0.210   1.086  2.5665  0.2442  0.6734
11990TIP3    H257462   3.910   0.301   1.197 -0.3499 -1.6959  1.0699
11991TIP3   OH257463   2.684   1.094   8.627  0.4500 -0.5801 -0.4896
11991TIP3    H157464   2.685   1.088   8.531 -0.1473  0.9428 -0.6052
11991TIP3    H257465   2.593   1.081   8.652  0.9419 -3.6473  0.1242
11992TIP3   OH257466   4.091   2.244  20.659 -0.3675  0.2904 -0.2481
11992TIP3    H157467   4.097   2.231  20.564  1.4715  0.4553 -0.2063
11992TIP3    H257468   4.024   2.311  20.671 -0.1166  0.7796 -1.4868
11993TIP3   OH257469   3.565   4.021  14.006 -0.3596 -0.4901 -0.7034
11993TIP3    H157470   3.534   4.032  14.095  0.6610 -0.1410 -0.3819
11993TIP3    H257471   3.522   4.091  13.956  0.8510  0.7920 -0.0129
11994TIP3   OH257472   0.453   0.517  43.651  0.1753  0.7807 -0.5604
11994TIP3    H157473   0.366   0.477  43.647  0.3739  0.0349  1.5792
11994TIP3    H257474   0.448   0.591  43.590 -2.4431  1.6414  0.5662
11995TIP3   OH257475   1.188   3.292  41.265 -0.5524 -0.4209 -0.3169
11995TIP3    H157476   1.141   3.339  41.335 -1.2844 -0.2718 -0.8977
11995TIP3    H257477   1.129   3.297  41.190  1.1581  1.3239 -1.6251
11996TIP3   OH257478   2.423   3.705  27.469  0.5501 -0.3165 -0.3199
11996TIP3    H157479   2.334   3.705  27.433 -0.0480  0.7281  1.0451
11996TIP3    H257480   2.457   3.617  27.451 -0.7216 -0.7007 -0.9533
11997TIP3   OH257481   2.327   4.099  32.611 -0.0708  0.4786 -0.5069
11997TIP3    H157482   2.361   4.073  32.697 -0.4559  1.1278 -0.1515
11997TIP3    H257483   2.405   4.105  32.556  0.0944 -0.7555 -0.4313
11998TIP3   OH257484   1.015   3.576  46.127  0.4496  0.1475 -0.2670
11998TIP3    H157485   0.994   3.497  46.077  1.9717 -0.6243  0.2425
11998TIP3    H257486   1.106   3.596  46.104  0.2232  1.5435 -0.0831
11999TIP3   OH257487   3.567   0.287  26.130  0.3643 -0.0809 -0.0598
11999TIP3    H157488   3.549   0.370  26.086  2.0194  0.0377 -0.6133
11999TIP3    H257489   3.527   0.221  26.074  0.5124  0.2356 -0.5476
12000TIP3   OH257490   1.878   0.199  13.824 -0.7596  0.1590  0.4263
12000TIP3    H157491   1.811   0.197  13.755 -0.1703  1.9483 -0.2728
12000TIP3    H257492   1.851   0.272  13.880  0.4512  0.7333  0.2819
12001TIP3   OH257493   4.039   3.809   4.582 -0.0314  0.3325 -0.0351
12001TIP3    H157494   4.067   3.789   4.671  1.4979 -1.0831 -0.7852
12001TIP3    H257495   4.002   3.897   4.587  1.8959  1.0970  1.6078
12002TIP3   OH257496   4.103   3.221  35.470 -0.5057 -0.3809  0.1018
12002TIP3    H157497   4.162   3.283  35.513 -1.2998  0.9588 -0.6292
12002TIP3    H257498   4.063   3.273  35.399 -1.9215 -1.4763  0.0634
12003TIP3   OH257499   3.705   0.797  34.704 -0.2901 -0.1842  0.0959
12003TIP3    H157500   3.761   0.865  34.743  4.0960 -1.7605 -2.7118
12003TIP3    H257501   3.712   0.723  34.765  2.4727 -0.9799 -1.0330
12004TIP3   OH257502   0.062   1.341  38.707  0.6106  0.3026  0.2029
12004TIP3    H157503  -0.013   1.399  38.716 -1.3608 -1.5872 -2.5028
12004TIP3    H257504   0.033   1.258  38.744  1.0009 -0.6702 -1.5421
12005TIP3   OH257505   2.227   1.783   5.268 -0.0839  0.1087  0.1122
12005TIP3    H157506   2.183   1.868   5.278  0.0853  0.1837  0.2338
12005TIP3    H257507   2.305   1.803   5.216 -1.3720 -0.4214 -2.1278
12006TIP3   OH257508   3.219   2.266  36.831 -0.0932  0.4013  0.5394
12006TIP3    H157509   3.299   2.214  36.840  0.2657  0.5336 -1.3130
12006TIP3    H257510   3.186   2.275  36.920  2.7763  1.6472  1.6167
12007TIP3   OH257511   1.646   3.674  45.317  0.0542  0.5629 -0.4765
12007TIP3    H157512   1.683   3.730  45.249  1.8729 -1.4913 -1.2738
12007TIP3    H257513   1.557   3.657  45.288 -0.0825  1.9019 -0.9160
12008TIP3   OH257514   3.820   2.760  42.910  0.2528 -0.1836 -0.0170
12008TIP3    H157515   3.832   2.778  43.003 -0.3778 -1.4216  0.3349
12008TIP3    H257516   3.908   2.742  42.877  0.7694  2.3580 -0.1781
12009TIP3   OH257517   4.032   0.632  38.019  0.5313 -0.5038 -0.3157
12009TIP3    H157518   3.953   0.579  38.015 -0.4394  0.9568 -1.1765
12009TIP3    H257519   4.033   0.681  37.937  1.6087  0.5140  0.2741
12010TIP3   OH257520   2.700   1.543   3.207 -0.0910 -0.5645  0.0635
12010TIP3    H157521   2.734   1.631   3.192 -0.7273 -0.4299 -0.6377
12010TIP3    H257522   2.634   1.531   3.139  0.6075 -1.9253 -0.4151
12011TIP3   OH257523   3.774   3.556   9.988  0.2377 -0.4701  0.5665
12011TIP3    H157524   3.727   3.473  10.000  1.8610 -1.1894  2.7294
12011TIP3    H257525   3.850   3.533   9.936  0.8002 -0.4029  1.3443
12012TIP3   OH257526   0.476   3.039   9.417  0.3486 -0.1837 -0.3507
12012TIP3    H157527   0.528   3.096   9.361 -0.0920  0.3603 -0.2115
12012TIP3    H257528   0.387   3.046   9.382 -0.2720  1.4305  1.3787
12013TIP3   OH257529   2.710   1.895  44.260 -0.2900  0.4052 -0.0094
12013TIP3    H157530   2.770   1.822  44.275 -1.4330 -0.5018  0.3162
12013TIP3    H257531   2.743   1.937  44.180 -1.1507 -2.1498 -1.8217
12014TIP3   OH257532   0.693   1.644  44.477  0.2323 -0.1342  0.1416
12014TIP3    H157533   0.616   1.630  44.532 -0.4577  0.4061 -0.6465
12014TIP3    H257534   0.683   1.580  44.406 -0.7392  1.4279 -1.2126
12015TIP3   OH257535   0.882   0.049  24.283 -0.2867 -0.4375  0.4944
12015TIP3    H157536   0.967   0.017  24.253 -0.4907  1.1562 -2.0462
12015TIP3    H257537   0.818  -0.002  24.233 -0.6834  1.3440 -0.8854
12016TIP3   OH257538   1.933   1.184  46.159 -0.1239 -0.3059 -0.2835
12016TIP3    H157539   1.850   1.228  46.142  0.3818  1.2416  1.0241
12016TIP3    H257540   1.963   1.157  46.072 -1.5608 -0.1317 -0.8779
12017TIP3   OH257541   1.544   3.240  46.385 -0.4497  0.0561  0.7320
12017TIP3    H157542   1.589   3.212  46.305 -0.6961  0.3014  0.5066
12017TIP3    H257543   1.455   3.260  46.357 -1.0213 -1.4318  1.3613
12018TIP3   OH257544   2.016   2.884  37.842  0.2446  0.3150  0.1006
12018TIP3    H157545   2.000   2.897  37.935  0.9715 -0.9054  0.4104
12018TIP3    H257546   2.101   2.841  37.837  0.1851  0.2870 -1.1261
12019TIP3   OH257547   0.659   3.610   0.659 -0.5273  0.0937 -0.3447
12019TIP3    H157548   0.658   3.624   0.565  0.6067 -2.1557 -0.7461
12019TIP3    H257549   0.683   3.518   0.670  1.6856  0.8465  2.1889
12020TIP3   OH257550   3.055   1.183  11.586 -0.7128  0.4436  0.8660
12020TIP3    H157551   3.023   1.109  11.638 -0.2329  0.2753  0.9305
12020TIP3    H257552   2.994   1.254  11.604 -0.5362  0.3927  1.6893
12021TIP3   OH257553   0.785   1.158   0.964  0.0245 -0.0673  0.5421
12021TIP3    H157554   0.820   1.138   0.878  0.4196 -0.8752  0.8847
12021TIP3    H257555   0.842   1.227   0.998 -0.2985  0.4478  0.0538
12022TIP3   OH257556   2.774   1.941  39.839 -0.0935  0.8078 -0.0298
12022TIP3    H157557   2.805   1.851  39.827 -0.4426  0.8376 -1.2786
12022TIP3    H257558   2.835   1.979  39.903 -0.7210 -0.6806  1.5445
12023TIP3   OH257559   2.217   0.686  43.983 -0.4080  0.0745  0.2200
12023TIP3    H157560   2.281   0.718  44.047  0.1113 -0.2768 -0.1185
12023TIP3    H257561   2.138   0.669  44.035 -0.0083 -0.1591  0.7662
12024TIP3   OH257562   0.028   0.623  35.466 -0.1940 -0.0653  0.6471
12024TIP3    H157563  -0.001   0.544  35.422  2.3022 -1.8995  2.0667
12024TIP3    H257564  -0.024   0.625  35.547 -0.0708 -0.4328  0.7379
12025TIP3   OH257565   2.669   1.469  43.105  0.0539 -0.2020 -0.2013
12025TIP3    H157566   2.666   1.427  43.019 -0.5454  0.8428 -0.7084
12025TIP3    H257567   2.713   1.406  43.161 -1.1747 -1.6654 -0.8346
12026TIP3   OH257568   0.774   1.978   7.007 -0.2381  0.2966 -0.3584
12026TIP3    H157569   0.722   2.047   7.049 -1.3424 -0.6609 -0.0940
12026TIP3    H257570   0.787   2.009   6.918  0.0384  1.2371 -0.0093
12027TIP3   OH257571   3.018   0.308  46.111  0.4690 -0.1170  0.5371
12027TIP3    H157572   2.940   0.266  46.075  0.4836  0.7278 -0.5258
12027TIP3    H257573   2.987   0.395  46.139  1.0720  0.3119 -0.1163
12028TIP3   OH257574   0.530   3.938  45.396  0.6299 -0.1302 -1.1683
12028TIP3    H157575   0.601   3.879  45.418  0.4670 -0.2327 -0.9181
12028TIP3    H257576   0.452   3.896  45.432  0.3612 -0.3070 -1.9401
12029TIP3   OH257577   2.427   3.826  42.408  0.0188  0.7187 -0.0820
12029TIP3    H157578   2.332   3.819  42.394  0.2429  0.3344 -1.5438
12029TIP3    H257579   2.435   3.878  42.489 -1.4654 -1.6970  1.7521
12030TIP3   OH257580   1.659   3.013  30.351 -0.6424 -0.9271 -0.3452
12030TIP3    H157581   1.663   2.930  30.398  0.2031 -0.5919  0.2124
12030TIP3    H257582   1.581   3.057  30.387 -0.8415 -1.2906 -0.3257
12031TIP3   OH257583   4.029   3.371  34.907 -0.3345  0.2271  0.0817
12031TIP3    H157584   4.034   3.463  34.881  1.0892 -0.1452 -1.1067
12031TIP3    H257585   3.960   3.334  34.851  1.6198 -0.2071 -2.1945
12032TIP3   OH257586   1.558   2.452  37.698  0.0314  0.0755  0.4166
12032TIP3    H157587   1.585   2.366  37.728  1.3905  0.6969  1.0619
12032TIP3    H257588   1.585   2.456  37.606  0.2955 -0.0372  0.4932
12033TIP3   OH257589   0.708   1.275  43.007 -0.0217  0.0633 -0.2347
12033TIP3    H157590   0.746   1.231  43.083 -3.5414 -1.9923  0.5737
12033TIP3    H257591   0.718   1.212  42.935 -1.7752 -0.5348  0.0067
12034TIP3   OH257592   2.093   1.487   6.132  0.0903  0.3481  0.2510
12034TIP3    H157593   2.111   1.505   6.039  1.7485 -0.1813  0.4491
12034TIP3    H257594   2.016   1.541   6.151  0.5721  1.5836 -1.0659
12035TIP3   OH257595   2.714   2.277  34.252  0.0612 -0.2211  0.0891
12035TIP3    H157596   2.730   2.297  34.344  1.3467 -0.8093  0.0099
12035TIP3    H257597   2.641   2.214  34.254  0.1550 -0.3201  0.7153
12036TIP3   OH257598   0.173   0.824  42.767 -0.2321 -0.5061 -0.0067
12036TIP3    H157599   0.216   0.820  42.853  3.8769 -2.1568 -1.8329
12036TIP3    H257600   0.185   0.736  42.731 -2.0089  0.0697 -2.2173
12037TIP3   OH257601   0.103   0.870  11.393  0.0175  0.0482  0.3121
12037TIP3    H157602   0.154   0.947  11.418 -0.9742  1.6595 -2.2816
12037TIP3    H257603   0.169   0.803  11.375  1.0934  1.2126 -0.2447
12038TIP3   OH257604   1.841   1.936  37.249  0.0610 -0.0012 -0.1898
12038TIP3    H157605   1.892   2.017  37.244 -1.5089  0.9518 -1.5694
12038TIP3    H257606   1.755   1.963  37.282  0.0775 -1.4314  1.1839
12039TIP3   OH257607   3.236   0.055   1.801 -0.4696 -0.5919  0.1601
12039TIP3    H157608   3.180   0.123   1.838  1.6214  0.5560  1.4534
12039TIP3    H257609   3.311   0.051   1.860 -0.3383 -3.8730 -0.0306
12040TIP3   OH257610   0.166   2.326  36.844  0.6962  0.1921  0.2162
12040TIP3    H157611   0.241   2.349  36.899  1.5881 -1.7628 -0.0747
12040TIP3    H257612   0.176   2.380  36.766  1.0505  0.9020  0.7446
12041TIP3   OH257613   3.018   2.754   4.404  0.3349  0.0648  0.4764
12041TIP3    H157614   2.998   2.681   4.462  1.2056 -0.2119  0.4440
12041TIP3    H257615   3.109   2.740   4.379  0.4977  1.1308  0.4278
12042TIP3   OH257616   0.939   1.154  15.164  0.7664 -0.3105  0.2241
12042TIP3    H157617   0.989   1.235  15.171 -0.7143  0.8293 -1.6483
12042TIP3    H257618   0.893   1.147  15.247 -0.9357  2.0856 -0.4325
12043TIP3   OH257619   2.422   1.472  19.991 -0.3133  0.3142 -0.5568
12043TIP3    H157620   2.352   1.423  19.949 -0.0796 -0.9363  0.4356
12043TIP3    H257621   2.446   1.419  20.067  0.9014  1.3038 -0.2100
12044TIP3   OH257622   2.147   1.226  33.984  0.1681  0.1516 -0.0094
12044TIP3    H157623   2.228   1.178  33.968  0.4500 -0.2601  2.3075
12044TIP3    H257624   2.136   1.281  33.906  4.6037  2.8944  0.9207
12045TIP3   OH257625   2.161   2.124  32.484  0.1315 -0.0625 -0.6122
12045TIP3    H157626   2.155   2.086  32.396 -0.7293 -2.6329  0.4373
12045TIP3    H257627   2.078   2.171  32.495 -0.4145 -0.9808 -0.6839
12046TIP3   OH257628   3.537   1.384  20.122  0.4195 -0.5219 -0.1726
12046TIP3    H157629   3.483   1.405  20.198  1.3441  1.0294  0.0949
12046TIP3    H257630   3.584   1.304  20.147  1.9021  0.7988  1.5770
12047TIP3   OH257631   4.066   1.224   6.438  0.4815  0.3030 -0.2645
12047TIP3    H157632   4.161   1.221   6.447  0.5741 -2.0434 -1.3936
12047TIP3    H257633   4.033   1.205   6.526  1.0127  1.6316  0.2458
12048TIP3   OH257634   1.482   3.212  39.893 -0.4573 -0.5372  0.1937
12048TIP3    H157635   1.496   3.306  39.891 -4.4761  0.2579 -1.1998
12048TIP3    H257636   1.555   3.176  39.843  0.8540  1.8658  0.2184
12049TIP3   OH257637   0.948   2.760  44.601  0.0821  0.0836 -0.9644
12049TIP3    H157638   0.907   2.749  44.687 -1.5174 -2.0764 -1.9047
12049TIP3    H257639   0.977   2.672  44.577 -1.1126  0.2475 -3.3643
12050TIP3   OH257640   1.485   3.828  27.384 -0.6924  0.4756  0.3271
12050TIP3    H157641   1.442   3.760  27.437  1.1709 -1.4041 -0.4303
12050TIP3    H257642   1.577   3.804  27.385 -0.2319  1.9520 -1.5406
12051TIP3   OH257643   1.769   1.024  39.983 -0.1445  0.2665  0.5845
12051TIP3    H157644   1.696   1.045  40.042  0.5503  0.7301  1.2865
12051TIP3    H257645   1.781   1.103  39.931 -0.8843 -0.2087 -0.3407
12052TIP3   OH257646   1.847   1.653  15.703 -0.0815  0.6580 -0.1006
12052TIP3    H157647   1.863   1.730  15.647 -1.9338  0.6956 -0.6732
12052TIP3    H257648   1.751   1.644  15.703  0.0893 -2.6420 -1.4183
12053TIP3   OH257649   2.528   1.631  39.130  0.2577  0.0191 -0.8709
12053TIP3    H157650   2.540   1.568  39.060  1.4079  1.0163 -1.5989
12053TIP3    H257651   2.433   1.646  39.133  0.1800 -0.1267 -2.1335
12054TIP3   OH257652   1.183   2.575   4.022 -0.1360  0.1656 -0.4160
12054TIP3    H157653   1.234   2.608   3.948  0.3652 -1.2982 -0.7717
12054TIP3    H257654   1.227   2.611   4.099  0.7729 -0.1421 -0.7665
12055TIP3   OH257655   3.288   0.449  33.653 -0.3693 -0.7125 -0.0766
12055TIP3    H157656   3.277   0.512  33.582 -0.2850 -0.3847  0.1999
12055TIP3    H257657   3.344   0.381  33.615  0.7296  0.0835  0.0425
12056TIP3   OH257658   2.570   1.807  19.040 -0.1641 -0.0948  0.5619
12056TIP3    H157659   2.602   1.873  18.979  2.7314 -0.0897  1.9185
12056TIP3    H257660   2.484   1.782  19.005  0.8114  0.7155 -2.8359
12057TIP3   OH257661   2.481   0.263  31.471  0.0937 -0.3795  0.2161
12057TIP3    H157662   2.560   0.309  31.444 -0.6334  0.1444 -1.1470
12057TIP3    H257663   2.452   0.308  31.550  0.9223 -0.3184  0.4923
12058TIP3   OH257664   1.163   1.739  42.675 -0.6291 -0.0673  0.7133
12058TIP3    H157665   1.222   1.724  42.748  0.2382 -1.3149 -0.2057
12058TIP3    H257666   1.114   1.658  42.666 -0.1633 -0.2246 -0.5759
12059TIP3   OH257667   2.768   2.457  13.922 -0.0702  0.1062  0.3138
12059TIP3    H157668   2.831   2.482  13.989 -0.3717 -0.7876  0.9565
12059TIP3    H257669   2.684   2.487  13.957 -0.1183  0.4320 -0.0841
12060TIP3   OH257670   0.929   2.486  21.633  0.0987 -0.2038  0.2471
12060TIP3    H157671   0.995   2.497  21.702  1.8787  1.9880 -1.6317
12060TIP3    H257672   0.975   2.436  21.565 -0.0835  1.4297 -1.1292
12061TIP3   OH257673   2.645   1.387  15.979 -0.0062  0.0997  0.5874
12061TIP3    H157674   2.666   1.294  15.986 -1.9261 -0.4489 -0.2479
12061TIP3    H257675   2.640   1.404  15.885 -0.2922  0.8900  0.7368
12062TIP3   OH257676   2.103   0.367  31.853  0.5479 -0.0474 -0.6318
12062TIP3    H157677   2.088   0.371  31.947  1.5166 -1.3375 -0.3935
12062TIP3    H257678   2.016   0.375  31.814  0.0669 -0.1873  0.4016
12063TIP3   OH257679   3.532   0.024  25.468  1.1080  0.0377 -0.3993
12063TIP3    H157680   3.559   0.051  25.380 -0.0702  0.7324 -0.5619
12063TIP3    H257681   3.565   0.093  25.526  1.3976 -0.1354 -0.3555
12064TIP3   OH257682   2.222   2.117  22.782 -0.7011 -0.2935 -0.0733
12064TIP3    H157683   2.172   2.147  22.707  1.3363 -2.0366 -2.2958
12064TIP3    H257684   2.292   2.182  22.791  0.1000 -1.0202 -0.8911
12065TIP3   OH257685   3.340   0.490  43.594  0.0382 -0.0391  0.5007
12065TIP3    H157686   3.279   0.530  43.655 -0.9229 -1.0614  0.2264
12065TIP3    H257687   3.298   0.409  43.567 -0.0535  0.8477 -2.3041
12066TIP3   OH257688   1.288   0.919   9.087  0.1201  0.2790 -0.0412
12066TIP3    H157689   1.345   0.970   9.028  0.1977  1.0824  0.7051
12066TIP3    H257690   1.208   0.971   9.093  0.7722  1.1582  1.9491
12067TIP3   OH257691   0.170   0.863   7.144 -0.0405 -0.3668  0.3509
12067TIP3    H157692   0.157   0.833   7.234 -0.8643 -1.1980 -0.0306
12067TIP3    H257693   0.203   0.952   7.153 -0.6227 -0.2440  1.4701
12068TIP3   OH257694   1.459   3.879  39.526  0.0585  0.5276  0.9375
12068TIP3    H157695   1.522   3.813  39.496  1.7581  1.6701  1.8462
12068TIP3    H257696   1.439   3.929  39.447 -0.1390 -0.1739  0.5283
12069TIP3   OH257697   3.834   2.145  34.030 -0.4064  0.2333  0.0650
12069TIP3    H157698   3.900   2.078  34.017  0.1520  0.6077  0.8602
12069TIP3    H257699   3.758   2.114  33.981  0.3323 -0.2300 -0.8209
12070TIP3   OH257700   3.204   3.464   5.833 -0.1619  0.4932 -0.0171
12070TIP3    H157701   3.225   3.400   5.764  1.5438  0.9517  0.0182
12070TIP3    H257702   3.279   3.458   5.893 -1.4495  0.3544  1.6366
12071TIP3   OH257703   0.111   1.872  36.787 -0.5370 -0.8411  0.3743
12071TIP3    H157704   0.057   1.912  36.718 -0.0844  0.2941  0.6537
12071TIP3    H257705   0.097   1.778  36.777 -0.1895 -0.7372 -1.5344
12072TIP3   OH257706   0.559   3.684  29.153  0.7106  0.2573  0.8374
12072TIP3    H157707   0.544   3.643  29.068 -0.9059  0.5907  0.9264
12072TIP3    H257708   0.634   3.741  29.139  0.9687 -0.3048 -0.1468
12073TIP3   OH257709   2.412   2.654  14.104 -0.1619 -0.5114 -0.1952
12073TIP3    H157710   2.371   2.740  14.115 -2.6533 -1.5814 -0.5538
12073TIP3    H257711   2.478   2.667  14.035  0.0960  1.2557  0.3331
12074TIP3   OH257712   0.579   3.430  38.896 -0.0557  0.1361  0.4924
12074TIP3    H157713   0.607   3.384  38.976  1.0771  1.0782  0.6723
12074TIP3    H257714   0.566   3.360  38.832  1.4815 -0.4967  0.8001
12075TIP3   OH257715   2.536   3.947  34.938 -0.1739 -0.1150  0.1017
12075TIP3    H157716   2.528   3.966  34.844 -2.8183 -0.5264  0.1801
12075TIP3    H257717   2.546   4.032  34.979  0.0391  0.1439 -0.4659
12076TIP3   OH257718   3.317   1.812  46.792 -0.1557  0.3660  0.3289
12076TIP3    H157719   3.265   1.891  46.806 -0.8177  0.1020 -0.5574
12076TIP3    H257720   3.354   1.793  46.878 -3.1294 -0.5383  1.5598
12077TIP3   OH257721   0.717   1.483   4.757  0.6010 -0.7034  0.1832
12077TIP3    H157722   0.729   1.574   4.728  0.9353 -0.4071  1.2118
12077TIP3    H257723   0.691   1.436   4.678 -3.8387  1.0512  0.3361
12078TIP3   OH257724   1.913   0.696  12.454  0.6153 -0.1042 -0.2076
12078TIP3    H157725   1.966   0.757  12.404  2.4106 -1.1149  0.3627
12078TIP3    H257726   1.854   0.656  12.389  1.0302  0.5419 -0.9947
12079TIP3   OH257727   1.443   0.572  32.912  0.0882 -0.4630 -0.0782
12079TIP3    H157728   1.526   0.594  32.955  1.1997 -3.0583 -0.6941
12079TIP3    H257729   1.390   0.534  32.982 -0.0257 -0.1267  0.0188
12080TIP3   OH257730   2.946   3.737  40.625  0.0544 -0.0455 -0.9760
12080TIP3    H157731   2.874   3.800  40.628  0.5634  0.5554  2.2942
12080TIP3    H257732   2.925   3.672  40.693  1.2205 -1.5022 -1.9260
12081TIP3   OH257733   3.419   0.073  12.697  0.1478  0.4736  0.5352
12081TIP3    H157734   3.433   0.142  12.762  1.1341  0.5670  0.2429
12081TIP3    H257735   3.470   0.101  12.621  1.9096 -1.3235  0.9611
12082TIP3   OH257736   2.526   0.636  47.623 -0.2677 -0.0627 -0.4913
12082TIP3    H157737   2.588   0.564  47.608 -0.3390 -0.1823 -0.2154
12082TIP3    H257738   2.449   0.614  47.571  0.1340  0.3687 -1.2901
12083TIP3   OH257739   1.312   2.033   1.052 -0.2015 -0.8194 -0.3551
12083TIP3    H157740   1.290   2.122   1.021  0.5382 -0.3467  0.4433
12083TIP3    H257741   1.250   2.017   1.123 -0.8985 -1.3049 -1.0449
12084TIP3   OH257742   1.795   2.997   9.416 -0.2216  0.3446  0.5032
12084TIP3    H157743   1.820   3.089   9.406  0.4480  0.1056 -0.0747
12084TIP3    H257744   1.853   2.950   9.356  1.0368 -0.7152  2.4807
12085TIP3   OH257745   0.906   0.283  35.743 -0.4018  0.0057  0.6523
12085TIP3    H157746   0.901   0.310  35.834 -0.1163  2.0385  0.1184
12085TIP3    H257747   0.822   0.241  35.725 -1.7305  2.2667  1.0934
12086TIP3   OH257748   0.599   2.113   0.121 -0.5393 -0.0387 -0.1569
12086TIP3    H157749   0.582   2.190   0.176  0.0305 -0.3084  0.4213
12086TIP3    H257750   0.539   2.046   0.154 -0.7268  0.0276 -0.3659
12087TIP3   OH257751   3.106   0.871  32.370 -0.4156 -0.2085 -0.0293
12087TIP3    H157752   3.056   0.838  32.445  0.9282  2.1557  2.0845
12087TIP3    H257753   3.193   0.832  32.381  0.0437  0.8444  0.2158
12088TIP3   OH257754   2.453   3.259   6.404  0.5621 -0.0936  0.2136
12088TIP3    H157755   2.485   3.169   6.416 -1.2696 -0.9198 -0.6588
12088TIP3    H257756   2.382   3.250   6.341  0.8783  2.1208 -0.5160
12089TIP3   OH257757   2.902   0.466  40.986 -0.4207 -0.0700 -0.3032
12089TIP3    H157758   2.895   0.387  41.038 -1.2390  1.2457  1.6986
12089TIP3    H257759   2.996   0.478  40.972 -0.3326 -2.6533 -2.8222
12090TIP3   OH257760   4.050   3.001  14.184  0.1571  0.1812 -0.2110
12090TIP3    H157761   4.051   2.966  14.094  0.5838  0.1403 -0.1932
12090TIP3    H257762   4.140   2.993  14.213  0.2443  1.2216 -0.1657
12091TIP3   OH257763   2.204   2.241  12.586 -0.0950  0.1701 -0.0046
12091TIP3    H157764   2.135   2.232  12.651  2.4167 -1.6640  2.6558
12091TIP3    H257765   2.233   2.332  12.593 -0.8220  0.3860  0.3121
12092TIP3   OH257766   1.252   1.258   9.650 -0.8045 -0.3551  0.1799
12092TIP3    H157767   1.276   1.335   9.597  2.6039 -0.3174  1.5432
12092TIP3    H257768   1.211   1.198   9.588  0.8262  0.6462 -1.9861
12093TIP3   OH257769   3.632   4.094  45.534 -0.2944  0.2265  0.0382
12093TIP3    H157770   3.624   4.188  45.551 -1.6906  0.2398 -0.6310
12093TIP3    H257771   3.542   4.062  45.531  0.1670 -1.4790  2.0427
12094TIP3   OH257772   0.471   1.009  13.574  0.1758  0.2660 -0.0268
12094TIP3    H157773   0.516   0.938  13.619 -1.1700 -0.5023  0.1312
12094TIP3    H257774   0.407   0.966  13.518  0.6963  1.2799 -1.4657
12095TIP3   OH257775   2.871   2.509  30.925 -0.1839  0.1735 -0.1726
12095TIP3    H157776   2.887   2.418  30.900 -3.0853  0.0227 -1.9992
12095TIP3    H257777   2.827   2.547  30.849 -3.2725  1.7471  2.1597
12096TIP3   OH257778   1.875   1.659  13.104  0.2535 -0.2281  0.0315
12096TIP3    H157779   1.884   1.579  13.052 -1.2734 -0.6493  0.3713
12096TIP3    H257780   1.815   1.714  13.053  0.9491  0.5363  0.0164
12097TIP3   OH257781   1.517   3.510  31.799 -0.2622 -0.4913  0.1385
12097TIP3    H157782   1.445   3.538  31.856  1.0919  2.4144  0.6029
12097TIP3    H257783   1.578   3.465  31.858  0.6470  1.5924  0.8777
12098TIP3   OH257784   3.214   0.742  44.363 -0.2065  0.1292 -0.5402
12098TIP3    H157785   3.155   0.728  44.289  1.2328  0.1883 -1.7427
12098TIP3    H257786   3.281   0.675  44.354  1.4586  1.7479 -0.8684
12099TIP3   OH257787   1.773   0.336  43.401  0.2384  0.2521  0.2232
12099TIP3    H157788   1.752   0.334  43.307  0.1887  0.1360  0.2370
12099TIP3    H257789   1.814   0.422  43.414  1.3866 -0.2106 -0.1555
12100TIP3   OH257790   2.483   3.014  42.650  0.0996 -0.4942 -0.5892
12100TIP3    H157791   2.516   2.991  42.563  1.8067  0.4658 -0.2347
12100TIP3    H257792   2.470   2.930  42.694  1.1795 -0.9382 -1.0919
12101TIP3   OH257793   1.100   2.000   4.638 -0.5275 -0.4191 -0.4292
12101TIP3    H157794   1.167   2.064   4.613 -1.7716  0.6553 -1.1519
12101TIP3    H257795   1.073   1.960   4.555 -1.6028  0.0150 -0.2990
12102TIP3   OH257796   0.897   1.977  13.087 -0.2051  0.3695 -0.2424
12102TIP3    H157797   0.970   2.038  13.099  1.4636 -1.5200 -0.2458
12102TIP3    H257798   0.916   1.905  13.147 -1.2974 -0.8562 -1.2972
12103TIP3   OH257799   2.213   2.215  14.071  0.4379  0.2108 -0.1922
12103TIP3    H157800   2.217   2.311  14.072  1.2260  0.1847  1.8031
12103TIP3    H257801   2.146   2.193  14.136  0.5761 -0.6126 -0.3202
12104TIP3   OH257802   0.779   0.555  45.712  0.4759  0.2248 -0.5355
12104TIP3    H157803   0.792   0.460  45.718  2.2871  0.4150 -0.9277
12104TIP3    H257804   0.744   0.579  45.798 -1.2521 -0.9406 -0.8560
12105TIP3   OH257805   3.781   1.248  40.283  0.2794 -0.3007 -0.4299
12105TIP3    H157806   3.810   1.321  40.338 -3.1233 -0.3364  1.7292
12105TIP3    H257807   3.775   1.285  40.195  2.1020  0.9224 -0.0986
12106TIP3   OH257808   1.653   3.340  36.264 -0.3039  0.2609 -0.1929
12106TIP3    H157809   1.582   3.401  36.246 -0.3655  0.4261  0.5766
12106TIP3    H257810   1.608   3.260  36.294 -0.2206 -0.1346 -1.0924
12107TIP3   OH257811   0.808   1.791  16.256  0.1777  0.1599 -0.5579
12107TIP3    H157812   0.868   1.856  16.220 -0.2768  0.4958 -0.7151
12107TIP3    H257813   0.844   1.770  16.342  1.3892 -0.8159 -1.2735
12108TIP3   OH257814   3.365   2.979  32.265 -0.2975 -0.6876 -0.0459
12108TIP3    H157815   3.443   2.983  32.210 -1.2034  0.8483 -1.3006
12108TIP3    H257816   3.369   3.058  32.319 -0.4287 -1.1812  0.7046
12109TIP3   OH257817   2.934   1.359   4.435  0.1857 -0.4087  0.1458
12109TIP3    H157818   2.852   1.329   4.472 -0.4942  0.9766 -0.1641
12109TIP3    H257819   2.989   1.380   4.510 -0.6517  0.9950  0.3942
12110TIP3   OH257820   2.994   3.891   2.076  0.5033 -0.1136  0.0318
12110TIP3    H157821   3.085   3.864   2.087  0.6488  0.0413 -0.7182
12110TIP3    H257822   2.984   3.967   2.133  1.0506  0.3155 -0.4383
12111TIP3   OH257823   1.762   2.511  37.269 -0.0584  0.5065  0.0138
12111TIP3    H157824   1.791   2.466  37.349  0.1665  1.2932  0.3938
12111TIP3    H257825   1.743   2.441  37.207 -0.3722 -0.1217  0.8048
12112TIP3   OH257826   0.925   3.994   6.714  0.0872  0.3399  0.3749
12112TIP3    H157827   0.848   3.944   6.740  1.0883 -1.3261  0.2666
12112TIP3    H257828   0.895   4.050   6.642 -0.9993 -0.3238  0.3024
12113TIP3   OH257829   2.532   3.202  46.320 -0.1804 -0.4748  0.1828
12113TIP3    H157830   2.612   3.212  46.268 -0.4251  0.5558 -0.0199
12113TIP3    H257831   2.563   3.206  46.411  0.0203 -0.2469  0.1075
12114TIP3   OH257832   3.381   2.256   6.147 -0.3034 -0.0425 -0.1892
12114TIP3    H157833   3.474   2.238   6.164 -0.0733  0.5862 -0.7463
12114TIP3    H257834   3.335   2.180   6.184  0.5517 -1.2069 -1.4317
12115TIP3   OH257835   0.180   1.497  31.394  0.4777 -0.2331 -0.4037
12115TIP3    H157836   0.149   1.416  31.435 -1.3876  0.5628 -0.1769
12115TIP3    H257837   0.252   1.469  31.337  0.8778 -1.8291  0.8053
12116TIP3   OH257838   2.274   2.078  11.510 -0.5393 -0.2480 -0.1513
12116TIP3    H157839   2.306   2.154  11.559  0.6772 -1.0414  0.3285
12116TIP3    H257840   2.242   2.018  11.577  3.3619 -2.4185  0.0951
12117TIP3   OH257841   3.789   0.919  20.940  0.5330 -0.0911  0.3549
12117TIP3    H157842   3.779   0.861  21.016  1.3859 -1.2473 -0.3792
12117TIP3    H257843   3.731   0.992  20.959  1.0481 -0.1218  2.3354
12118TIP3   OH257844   0.139   2.558  32.217 -0.3704  0.0594  0.0334
12118TIP3    H157845   0.160   2.485  32.276 -0.5945 -0.1201 -0.1126
12118TIP3    H257846   0.089   2.619  32.272 -0.3016  0.0436  0.1152
12119TIP3   OH257847   0.613   3.349  37.798  0.2912  0.1721  0.1475
12119TIP3    H157848   0.563   3.408  37.854 -0.2723 -0.7623  0.6595
12119TIP3    H257849   0.694   3.333  37.847 -0.5262 -1.2556  1.1193
12120TIP3   OH257850   0.300   0.605  35.919  0.1192 -0.3601 -0.4845
12120TIP3    H157851   0.362   0.595  35.992 -1.1718 -0.2227  0.6600
12120TIP3    H257852   0.214   0.590  35.958 -0.6226 -0.0518 -1.9419
12121TIP3   OH257853   2.975   3.136  41.009  0.2871  0.1944  0.4563
12121TIP3    H157854   2.986   3.041  41.016  1.0297  0.2446  0.0268
12121TIP3    H257855   3.057   3.173  41.042  0.0898  0.6831  0.4072
12122TIP3   OH257856   0.486   0.034  42.680 -0.2122  0.2469  0.0315
12122TIP3    H157857   0.494  -0.023  42.756 -0.8274 -0.7589 -0.6387
12122TIP3    H257858   0.575   0.064  42.663 -0.0436  0.3579  1.0341
12123TIP3   OH257859   2.949   2.350  40.275  0.0644  0.0315  0.3884
12123TIP3    H157860   3.036   2.324  40.305  0.9302  1.1818 -1.0066
12123TIP3    H257861   2.939   2.440  40.306 -0.7565 -0.1852  0.7732
12124TIP3   OH257862   1.982   0.120  12.993 -0.6150 -0.2418  0.2814
12124TIP3    H157863   1.898   0.151  13.025 -1.1726 -1.1277 -0.2847
12124TIP3    H257864   1.976   0.127  12.897 -0.6827 -1.8246  0.1363
12125TIP3   OH257865   0.640   1.611   3.179  0.1202  0.1482 -0.5810
12125TIP3    H157866   0.679   1.698   3.186  2.0123 -0.6741 -0.4145
12125TIP3    H257867   0.682   1.571   3.103 -0.6967 -0.6354 -0.6389
12126TIP3   OH257868   0.776   4.090  25.007 -0.1284 -0.1353  0.1667
12126TIP3    H157869   0.736   4.095  24.920  1.4660  0.1876 -0.5980
12126TIP3    H257870   0.724   4.025  25.054 -2.3303  1.2013 -0.2768
12127TIP3   OH257871   1.886   0.081  35.679  0.0059  0.4442 -0.2518
12127TIP3    H157872   1.811   0.105  35.733 -0.7102 -1.1036 -0.4838
12127TIP3    H257873   1.942   0.031  35.738  0.2893  0.6063 -0.3835
12128TIP3   OH257874   0.650   3.070  35.570  0.1670  0.4719  0.1891
12128TIP3    H157875   0.671   3.095  35.481 -1.8832 -0.2931 -0.5768
12128TIP3    H257876   0.731   3.031  35.604  0.1269 -2.4023 -2.5286
12129TIP3   OH257877   2.395   0.787  35.184  0.5493 -0.6095 -0.1908
12129TIP3    H157878   2.377   0.791  35.090 -1.5537 -2.7318  0.0115
12129TIP3    H257879   2.366   0.700  35.210  0.5184  0.1209  2.5442
12130TIP3   OH257880   3.217   2.563  43.539  0.0081  0.5366 -0.3607
12130TIP3    H157881   3.245   2.522  43.621  0.5905 -0.5341 -1.0662
12130TIP3    H257882   3.200   2.654  43.563 -1.3694 -0.0745  1.2789
12131TIP3   OH257883   2.530   1.914  19.293 -0.0838 -0.2380  0.0732
12131TIP3    H157884   2.484   1.997  19.281 -0.2795 -0.2803  0.5159
12131TIP3    H257885   2.573   1.898  19.208 -0.9674 -0.2502 -0.3819
12132TIP3   OH257886   2.496   3.116  31.516  0.0398 -0.2212 -0.0824
12132TIP3    H157887   2.473   3.170  31.440 -0.6406 -1.3443 -0.6957
12132TIP3    H257888   2.417   3.066  31.534  0.9901 -1.8127 -0.2062
12133TIP3   OH257889   1.614   0.409   5.305  0.2866 -0.3172  0.0228
12133TIP3    H157890   1.635   0.317   5.323  0.9849 -0.2332 -0.3477
12133TIP3    H257891   1.698   0.454   5.308  0.0935  0.1184 -0.9273
12134TIP3   OH257892   0.831   1.033  13.106  0.0079  0.2965 -0.1782
12134TIP3    H157893   0.804   1.057  13.194  0.0216  1.8609 -0.5766
12134TIP3    H257894   0.868   0.945  13.115 -1.8503 -0.4280  1.0020
12135TIP3   OH257895   1.586   2.468  37.039 -0.1322 -0.4851 -0.1337
12135TIP3    H157896   1.510   2.501  37.088 -0.3566 -1.7965  0.4395
12135TIP3    H257897   1.629   2.547  37.006 -0.8312  0.3580  0.8990
12136TIP3   OH257898   3.537   0.630  31.202 -0.0663  0.2129  0.2927
12136TIP3    H157899   3.459   0.588  31.238  0.1975  0.0996  0.7366
12136TIP3    H257900   3.519   0.636  31.108 -0.7764  0.5582  0.4396
12137TIP3   OH257901   2.181   4.100  40.351  0.1853  0.7202 -0.0258
12137TIP3    H157902   2.176   4.159  40.275  2.1386  1.5540  0.4325
12137TIP3    H257903   2.267   4.118  40.389  0.3954 -1.7044  0.7616
12138TIP3   OH257904   3.304   3.665   5.149 -0.5334 -0.1573  0.0515
12138TIP3    H157905   3.295   3.570   5.147 -0.5987 -0.1503 -0.0033
12138TIP3    H257906   3.357   3.683   5.227  0.0523 -0.2833 -0.3072
12139TIP3   OH257907   1.263   2.460   6.860 -0.0195 -0.7046  0.3959
12139TIP3    H157908   1.187   2.473   6.804 -1.0360 -1.8142  1.4751
12139TIP3    H257909   1.336   2.446   6.799 -0.6119  0.5631 -0.6452
12140TIP3   OH257910   3.846   1.111  10.766 -0.5030  0.0549  0.1408
12140TIP3    H157911   3.900   1.188  10.749 -1.0336  0.8278  1.7916
12140TIP3    H257912   3.829   1.074  10.679  0.1105  1.5444 -0.6503
12141TIP3   OH257913   3.909   1.483  45.048 -0.2162 -0.5554 -0.1507
12141TIP3    H157914   3.975   1.542  45.011 -1.9105  0.5978 -1.5389
12141TIP3    H257915   3.873   1.532  45.122 -0.2008 -0.7502 -0.0145
12142TIP3   OH257916   3.860   1.029  36.425 -0.0229  0.2937 -0.2465
12142TIP3    H157917   3.791   1.008  36.488 -0.1177 -0.7192 -0.6798
12142TIP3    H257918   3.877   0.947  36.379  0.4031  0.9014 -1.2014
12143TIP3   OH257919   2.009   1.682   5.101 -0.6183 -0.2089 -0.1842
12143TIP3    H157920   2.081   1.705   5.160  0.2335  0.2815 -1.3812
12143TIP3    H257921   2.052   1.658   5.019 -1.8313  0.4669 -1.0402
12144TIP3   OH257922   1.758   0.052   2.361 -0.3240  0.3086 -0.2764
12144TIP3    H157923   1.749   0.137   2.405 -0.5450  1.1882 -1.9577
12144TIP3    H257924   1.851   0.043   2.345  0.3960 -1.8709  3.7527
12145TIP3   OH257925   2.657   2.945   0.875 -0.0706 -0.2407  0.7100
12145TIP3    H157926   2.732   2.887   0.869  0.4510  0.5894 -2.7610
12145TIP3    H257927   2.693   3.033   0.871 -1.1544  0.1746 -1.1927
12146TIP3   OH257928   1.357   1.009  37.734  0.4530  0.5802 -0.3799
12146TIP3    H157929   1.275   0.990  37.778 -0.4250  2.1152 -1.2625
12146TIP3    H257930   1.383   0.926  37.694  0.7150 -0.5637  2.0159
12147TIP3   OH257931   0.522   0.480  39.588  0.2871 -0.7674  0.1727
12147TIP3    H157932   0.461   0.416  39.550  1.3857 -2.0218  0.4491
12147TIP3    H257933   0.488   0.495  39.676 -1.7959  1.5204 -0.8990
12148TIP3   OH257934   3.291   2.829  46.985 -0.0583  0.3872  0.2772
12148TIP3    H157935   3.372   2.798  46.943  0.4904  1.4378  0.5448
12148TIP3    H257936   3.260   2.898  46.927 -2.2995 -1.7829 -1.3422
12149TIP3   OH257937   1.776   1.643  32.117  0.4497 -0.1424  0.2190
12149TIP3    H157938   1.810   1.711  32.058  3.9947 -0.9028  1.1563
12149TIP3    H257939   1.681   1.654  32.113  0.6528  1.9784 -3.0158
12150TIP3   OH257940   2.878   0.963   2.077  0.1316 -0.0366  0.3437
12150TIP3    H157941   2.904   0.962   2.169  0.8512 -0.8423  0.1347
12150TIP3    H257942   2.956   0.992   2.030  0.2951 -1.2212 -0.1568
12151TIP3   OH257943   3.320   2.115   6.469  0.3340  0.9210 -0.9251
12151TIP3    H157944   3.406   2.099   6.507 -0.8167 -2.5213  0.5555
12151TIP3    H257945   3.278   2.177   6.529  0.5999 -0.0031  0.2403
12152TIP3   OH257946   3.684   3.687  11.074 -0.2371  0.5671  0.1082
12152TIP3    H157947   3.753   3.639  11.028 -2.3968 -2.0948 -0.6388
12152TIP3    H257948   3.729   3.735  11.142  2.3817 -0.8586 -0.4926
12153TIP3   OH257949   1.981   2.997  47.146 -0.1353 -0.1690  0.1315
12153TIP3    H157950   2.034   2.983  47.224 -0.5088  0.1881  0.4518
12153TIP3    H257951   2.028   3.064  47.096  0.6154 -1.0896 -0.4352
12154TIP3   OH257952   3.317   2.738   6.410 -0.2065 -0.1668 -0.4690
12154TIP3    H157953   3.404   2.708   6.437 -0.0344  0.4853 -0.2966
12154TIP3    H257954   3.334   2.804   6.343 -0.5131  0.9691  0.5458
12155TIP3   OH257955   3.321   1.892  41.670 -0.3663 -0.2348 -0.1760
12155TIP3    H157956   3.400   1.838  41.665 -0.1640  0.1811 -1.9308
12155TIP3    H257957   3.316   1.935  41.585 -0.7432  2.2123  0.9942
12156TIP3   OH257958   0.538   2.781  37.604  0.1781  0.5588 -0.9864
12156TIP3    H157959   0.592   2.854  37.632  1.1696 -0.8967  1.1688
12156TIP3    H257960   0.598   2.706  37.602 -0.8446 -0.2647 -2.8944
12157TIP3   OH257961   3.827   2.379   3.827 -0.1727  0.1237 -0.3839
12157TIP3    H157962   3.742   2.417   3.805 -0.9605 -1.7750 -0.8393
12157TIP3    H257963   3.807   2.288   3.849  1.4081  0.2693  2.0805
12158TIP3   OH257964   2.146   1.596  32.187 -0.0071 -0.1140 -0.2935
12158TIP3    H157965   2.157   1.688  32.212  0.5386 -0.4470  0.7616
12158TIP3    H257966   2.148   1.548  32.270 -1.0178 -1.0256 -0.7587
12159TIP3   OH257967   3.164   1.234  31.886 -0.0524 -0.4250  0.0607
12159TIP3    H157968   3.088   1.285  31.916  0.5314  0.3795  0.2043
12159TIP3    H257969   3.194   1.279  31.808  1.6740  0.6822  1.2785
12160TIP3   OH257970   1.402   3.786  10.048  0.0555  0.2097  1.2313
12160TIP3    H157971   1.334   3.724  10.020  0.0494 -0.1866  2.0839
12160TIP3    H257972   1.359   3.872  10.044  0.5891  0.4236 -1.6638
12161TIP3   OH257973   0.338   3.258   8.661 -0.0803  0.7087 -0.4015
12161TIP3    H157974   0.287   3.176   8.668 -1.6127  1.5648 -1.0880
12161TIP3    H257975   0.413   3.244   8.719 -0.0432 -1.3699 -0.8767
12162TIP3   OH257976   0.262   1.065   3.233  0.0188  0.1239 -0.2803
12162TIP3    H157977   0.203   0.991   3.249  0.2904 -0.0102  0.0993
12162TIP3    H257978   0.260   1.077   3.138 -0.6405  0.1335 -0.2728
12163TIP3   OH257979   0.028   2.616  35.169 -0.3490  0.4325  0.2848
12163TIP3    H157980   0.094   2.668  35.215 -0.4818 -0.0201  1.0105
12163TIP3    H257981  -0.023   2.679  35.119 -1.4622  1.2492  2.3010
12164TIP3   OH257982   0.739   3.613  33.866  0.5550 -0.2249  0.0778
12164TIP3    H157983   0.688   3.661  33.801 -0.2504 -0.0338  0.8358
12164TIP3    H257984   0.830   3.634  33.844  0.3229 -0.4868 -1.2207
12165TIP3   OH257985   3.996   2.841  30.997  0.2356 -0.2811  0.0721
12165TIP3    H157986   3.901   2.854  30.998  0.4057  1.2018  1.3725
12165TIP3    H257987   4.021   2.840  31.089  1.3896 -1.6047 -0.2236
12166TIP3   OH257988   2.434   0.734   4.569  0.3529 -0.3170 -0.3863
12166TIP3    H157989   2.494   0.663   4.592  0.1885 -0.2030  0.4381
12166TIP3    H257990   2.445   0.798   4.640 -2.2587 -1.2312  0.9647
12167TIP3   OH257991   3.783   1.187  42.983 -0.0739 -0.0143  0.1859
12167TIP3    H157992   3.820   1.273  42.963  1.7866 -0.7465  0.3009
12167TIP3    H257993   3.839   1.125  42.936 -1.7511 -1.1543 -0.4046
12168TIP3   OH257994   1.234   3.082  43.137  0.1806 -0.0344 -0.6467
12168TIP3    H157995   1.295   3.039  43.197 -1.3151  0.0711  1.0365
12168TIP3    H257996   1.165   3.017  43.123 -0.3028  0.5456 -0.9858
12169TIP3   OH257997   2.950   3.263  31.752  0.0142  0.1578 -0.3315
12169TIP3    H157998   2.897   3.199  31.705 -1.4112  1.8185 -1.1319
12169TIP3    H257999   2.958   3.229  31.841 -0.6384 -1.1287 -0.7495
12170TIP3   OH258000   0.978   3.909   9.605  0.0907  0.4949  0.2777
12170TIP3    H158001   1.034   3.892   9.682 -1.7609  0.5534  1.7211
12170TIP3    H258002   0.949   3.822   9.578  0.2154  0.5260  0.0382
12171TIP3   OH258003   0.909   4.071  46.701  0.1403 -0.5703 -0.1049
12171TIP3    H158004   0.826   4.025  46.688 -0.4004  0.9448 -2.7646
12171TIP3    H258005   0.908   4.141  46.635  3.0154  0.2437  0.5911
12172TIP3   OH258006   1.668   0.281  34.496  0.2204 -0.1858 -0.0462
12172TIP3    H158007   1.680   0.374  34.516 -1.9535  0.4226 -1.2408
12172TIP3    H258008   1.747   0.257  34.448  0.2907  1.3932 -0.7990
12173TIP3   OH258009   3.313   0.242  25.713  0.3312 -0.2661  0.1084
12173TIP3    H158010   3.234   0.248  25.660  1.1416 -1.5382 -1.3014
12173TIP3    H258011   3.385   0.237  25.650  1.5499  0.7034  1.3523
12174TIP3   OH258012   3.421   0.575   3.707 -0.8765  0.4004 -0.6400
12174TIP3    H158013   3.337   0.619   3.689 -0.5167  1.4938  0.2251
12174TIP3    H258014   3.485   0.646   3.707  0.0551 -0.4254 -1.2533
12175TIP3   OH258015   2.980   3.781  29.678  0.2711  0.1384 -0.2017
12175TIP3    H158016   2.903   3.834  29.696 -0.0515 -0.8344  1.4388
12175TIP3    H258017   3.005   3.805  29.589 -2.2612  0.0887 -1.0133
12176TIP3   OH258018   0.347   2.740  11.902 -0.2417  0.7595  0.1380
12176TIP3    H158019   0.253   2.757  11.897 -0.4004 -0.3851 -1.9303
12176TIP3    H258020   0.379   2.759  11.814  1.2783  0.0750  0.5167
12177TIP3   OH258021   0.986   0.048   6.939 -0.2289  0.2540 -0.7397
12177TIP3    H158022   0.975  -0.007   6.862  0.9064 -0.3330 -0.5029
12177TIP3    H258023   1.001   0.136   6.904 -1.5281  0.3464 -1.1293
12178TIP3   OH258024   0.492   0.035  45.561  0.4994  0.0239  0.6318
12178TIP3    H158025   0.515  -0.041  45.509 -1.0972  0.1200 -0.2997
12178TIP3    H258026   0.546   0.028  45.640  2.0734 -0.7838 -0.4701
12179TIP3   OH258027   1.659   1.822   0.422  0.0464  0.0760 -0.0941
12179TIP3    H158028   1.623   1.766   0.491  1.9823 -0.6794  0.3791
12179TIP3    H258029   1.643   1.775   0.341  0.2099 -0.3907  0.1411
12180TIP3   OH258030   1.432   0.061  36.493 -0.1572 -0.0588 -0.4062
12180TIP3    H158031   1.352   0.076  36.443 -0.4727  0.6177  0.2856
12180TIP3    H258032   1.475  -0.012  36.449 -1.9419 -1.5166  0.1389
12181TIP3   OH258033   3.900   0.296  36.032 -0.3918 -0.7493 -0.3262
12181TIP3    H158034   3.957   0.286  35.955  1.3486 -0.4551  0.8574
12181TIP3    H258035   3.840   0.222  36.028 -0.1167 -0.9158 -1.7861
12182TIP3   OH258036   0.177   1.384  32.480  0.3319 -0.4552 -0.5425
12182TIP3    H158037   0.157   1.373  32.573  1.3036 -0.4724 -0.3332
12182TIP3    H258038   0.210   1.473  32.472  1.0431 -0.7262 -0.7224
12183TIP3   OH258039   3.569   0.395  32.641  0.0410  0.0800 -0.0060
12183TIP3    H158040   3.556   0.306  32.674  0.3767 -0.4001 -1.0985
12183TIP3    H258041   3.611   0.382  32.556 -1.8871  1.2101 -1.1872
12184TIP3   OH258042   3.209   0.576  10.664 -0.0364  0.0682 -0.5759
12184TIP3    H158043   3.280   0.524  10.701  1.2642  1.1040 -1.5295
12184TIP3    H258044   3.241   0.666  10.666 -1.0223  0.4700 -1.7110
12185TIP3   OH258045   3.153   2.279  18.060 -0.0002 -0.0317 -0.3070
12185TIP3    H158046   3.164   2.223  17.983 -1.0746 -0.1782 -0.3779
12185TIP3    H258047   3.204   2.358  18.040  1.3497 -0.8813 -0.2989
12186TIP3   OH258048   1.750   2.626   9.217  0.2379 -0.5288  0.2857
12186TIP3    H158049   1.825   2.661   9.265 -0.5596  1.5121  0.1267
12186TIP3    H258050   1.679   2.624   9.282  0.2207 -1.7482  0.2477
12187TIP3   OH258051   3.903   2.633   3.352 -0.1035 -0.0006  0.1845
12187TIP3    H158052   3.864   2.559   3.399 -1.6111 -0.7564 -2.0682
12187TIP3    H258053   3.831   2.696   3.342  0.5873  0.8139  0.1864
12188TIP3   OH258054   1.232   2.829  36.846 -0.3635 -0.0119  0.2450
12188TIP3    H158055   1.246   2.923  36.844  0.4278 -0.0610 -3.4535
12188TIP3    H258056   1.316   2.792  36.874 -0.3675  0.3125  0.6980
12189TIP3   OH258057   0.330   2.743   5.832 -0.0696  0.1882  0.3477
12189TIP3    H158058   0.311   2.712   5.920  0.3089  0.1116  0.4038
12189TIP3    H258059   0.352   2.835   5.843 -1.6899  0.6367  0.1206
12190TIP3   OH258060   0.689   3.890  14.720 -0.0714 -0.6217 -0.1169
12190TIP3    H158061   0.772   3.914  14.679  0.0311 -1.3398 -0.3444
12190TIP3    H258062   0.714   3.841  14.799 -0.2617 -1.7676 -0.7422
12191TIP3   OH258063   3.145   0.770  37.909 -0.3480 -0.5996  0.3959
12191TIP3    H158064   3.180   0.834  37.970  1.1964 -1.1071  0.0803
12191TIP3    H258065   3.052   0.791  37.903  0.1180  1.6347  0.2704
12192TIP3   OH258066   1.949   2.010   4.109  0.1162 -0.3540  0.3908
12192TIP3    H158067   2.005   2.045   4.041 -0.1093 -0.3756  0.1936
12192TIP3    H258068   1.871   1.978   4.063 -0.6139  0.8027  0.7946
12193TIP3   OH258069   2.267   3.136  33.158  0.8244 -0.1003 -0.1963
12193TIP3    H158070   2.192   3.076  33.151  0.2388  0.7186 -1.2305
12193TIP3    H258071   2.289   3.135  33.251 -0.3406 -0.5252  0.0963
12194TIP3   OH258072   2.514   0.340   1.314  0.4151  0.4076  0.1768
12194TIP3    H158073   2.557   0.421   1.286 -0.5757  0.6880 -0.5737
12194TIP3    H258074   2.469   0.308   1.235 -0.0534 -0.3245  0.7285
12195TIP3   OH258075   3.966   0.097   0.534  0.0297 -0.1162 -0.3259
12195TIP3    H158076   3.881   0.122   0.570 -0.6124 -1.6436 -0.6871
12195TIP3    H258077   3.974   0.004   0.554  1.5681 -0.0391 -0.4332
12196TIP3   OH258078   3.067   1.165   7.768  0.2868  0.2328 -0.2529
12196TIP3    H158079   2.985   1.120   7.750  1.0607 -1.1084 -0.5364
12196TIP3    H258080   3.052   1.255   7.740 -1.1771  0.0805 -0.0001
12197TIP3   OH258081   0.034   3.099  12.505  0.7281  0.5580  0.3677
12197TIP3    H158082   0.111   3.092  12.448  0.1329  0.0388 -0.3912
12197TIP3    H258083  -0.015   3.173  12.469 -0.2107 -0.4692 -0.4942
12198TIP3   OH258084   3.001   3.593  32.573 -0.3372 -0.7847  0.2622
12198TIP3    H158085   2.999   3.636  32.487  0.8821  1.8108  1.4243
12198TIP3    H258086   2.915   3.610  32.611 -1.3343 -2.9738 -0.8007
12199TIP3   OH258087   1.278   2.691  38.886 -0.4520 -0.3282 -0.8516
12199TIP3    H158088   1.364   2.730  38.900 -1.0123  0.3970  0.8347
12199TIP3    H258089   1.223   2.728  38.955 -1.4165 -2.9301 -0.0892
12200TIP3   OH258090   1.353   0.935  10.084  0.4290 -0.4588 -0.3764
12200TIP3    H158091   1.375   0.950   9.992 -0.3030 -1.4128 -0.7172
12200TIP3    H258092   1.258   0.944  10.089  0.4329 -0.6798  0.2332
12201TIP3   OH258093   1.308   0.532  32.447 -0.2497 -0.2309  0.3726
12201TIP3    H158094   1.375   0.600  32.440 -1.3657  0.7418 -1.8757
12201TIP3    H258095   1.317   0.498  32.536  1.4821  1.6645  0.9898
12202TIP3   OH258096   1.633   0.993   5.204 -0.2116 -0.4378 -0.2461
12202TIP3    H158097   1.670   0.944   5.130 -0.7023  0.5427 -1.1794
12202TIP3    H258098   1.696   0.982   5.275  0.9332 -0.3465 -1.2145
12203TIP3   OH258099   2.602   0.650  32.198  0.3443 -0.1926  0.1155
12203TIP3    H158100   2.513   0.634  32.165  0.1348 -1.8272  1.3540
12203TIP3    H258101   2.659   0.632  32.123 -0.2982 -0.2013 -0.3799
12204TIP3   OH258102   0.711   0.490  14.123 -0.0154 -0.4163 -0.2070
12204TIP3    H158103   0.790   0.468  14.172  0.3321 -2.0486 -1.4291
12204TIP3    H258104   0.714   0.434  14.046 -1.3720  0.9197 -1.2831
12205TIP3   OH258105   3.279   3.324  47.564  0.3559  0.2777  0.4300
12205TIP3    H158106   3.304   3.321  47.656  0.9494 -0.6810  0.2518
12205TIP3    H258107   3.301   3.237  47.530  0.2106  0.6386 -0.6339
12206TIP3   OH258108   1.649   2.849  38.021  0.6002 -0.0976  0.4873
12206TIP3    H158109   1.629   2.914  38.089 -0.8475 -0.5172  0.4967
12206TIP3    H258110   1.572   2.793  38.019  0.6270 -0.1204 -1.4914
12207TIP3   OH258111   2.188   2.130  21.646 -0.4611  0.1615 -0.1093
12207TIP3    H158112   2.212   2.181  21.723 -0.5280 -1.9063  1.3550
12207TIP3    H258113   2.266   2.131  21.590  0.6586 -0.7114  1.3720
12208TIP3   OH258114   3.405   3.710   2.959  0.0581  0.4362  0.3173
12208TIP3    H158115   3.431   3.628   3.000 -0.4100 -0.7876 -1.6522
12208TIP3    H258116   3.429   3.778   3.021  1.3302 -1.1300  1.6086
12209TIP3   OH258117   3.697   0.298  47.242  0.3930 -0.0003  0.3300
12209TIP3    H158118   3.619   0.247  47.263 -0.8058  2.0075  1.1432
12209TIP3    H258119   3.730   0.260  47.162 -1.4621 -0.9346 -0.0497
12210TIP3   OH258120   1.295   3.765  11.290  0.7490  0.0309 -0.3437
12210TIP3    H158121   1.236   3.715  11.234 -1.1044  2.0301 -0.3017
12210TIP3    H258122   1.241   3.793  11.364  2.4995 -0.4299  1.1895
12211TIP3   OH258123   1.552   0.330  14.157 -0.2050 -0.3111  0.1023
12211TIP3    H158124   1.611   0.314  14.084 -0.1374 -3.6399  0.7462
12211TIP3    H258125   1.596   0.291  14.233 -2.4661 -1.5043  0.8941
12212TIP3   OH258126   3.167   1.881  43.296  0.0996 -0.1013  0.1113
12212TIP3    H158127   3.194   1.790  43.287 -0.4637 -0.4826  1.8686
12212TIP3    H258128   3.078   1.877  43.329  0.0115  1.0848  0.0722
12213TIP3   OH258129   0.759   3.281  37.572  0.4739 -0.0658  0.0330
12213TIP3    H158130   0.758   3.186  37.585  1.8225 -0.1586 -0.4061
12213TIP3    H258131   0.697   3.314  37.637 -0.8020 -1.3094 -0.4722
12214TIP3   OH258132   3.400   3.205  34.900  0.1935 -0.3567 -0.4090
12214TIP3    H158133   3.435   3.129  34.853  2.2458  0.1522  0.1993
12214TIP3    H258134   3.476   3.261  34.916 -1.1739  1.6033 -0.3789
12215TIP3   OH258135   2.931   4.043  11.417  0.4456 -0.2799  0.2689
12215TIP3    H158136   2.906   4.006  11.502  1.3802  0.3346  0.8339
12215TIP3    H258137   2.936   4.137  11.433  0.0808 -0.1043 -0.6258
12216TIP3   OH258138   0.520   0.788   0.321 -0.5287  0.1802  0.2117
12216TIP3    H158139   0.563   0.874   0.324 -1.4789  0.6470  1.6173
12216TIP3    H258140   0.525   0.756   0.412  0.7213 -1.7553 -0.4681
12217TIP3   OH258141   1.075   3.679  45.212 -0.6590  0.3822  0.3416
12217TIP3    H158142   1.050   3.690  45.304 -1.1271 -0.9297  0.3878
12217TIP3    H258143   1.112   3.764  45.187 -0.6344  0.7910  1.7027
12218TIP3   OH258144   1.363   2.147  38.488 -0.0131 -0.5345  0.0603
12218TIP3    H158145   1.399   2.089  38.555  1.1424 -0.1627 -0.2196
12218TIP3    H258146   1.328   2.221  38.537 -1.3170 -1.3465  0.4062
12219TIP3   OH258147   2.094   2.949  30.419  0.3755  0.2742 -0.3077
12219TIP3    H158148   2.001   2.973  30.412  0.0731 -0.7229  0.1778
12219TIP3    H258149   2.135   2.993  30.344 -0.6522 -0.0371 -1.0882
12220TIP3   OH258150   3.003   3.663   5.182 -0.2767 -0.1036 -0.0608
12220TIP3    H158151   3.092   3.636   5.157 -0.1764 -3.4338  3.0912
12220TIP3    H258152   3.012   3.753   5.211  2.0368 -0.2607 -0.1205
12221TIP3   OH258153   1.265   3.579  11.961 -0.4900 -0.1983 -0.7158
12221TIP3    H158154   1.236   3.514  11.897 -0.6755 -0.6398 -0.2000
12221TIP3    H258155   1.189   3.593  12.017 -0.6791  1.0202 -1.2459
12222TIP3   OH258156   2.433   3.360  34.869  0.4318 -0.6229  0.2195
12222TIP3    H158157   2.511   3.376  34.815  2.3590 -0.8008  2.7872
12222TIP3    H258158   2.408   3.270  34.847 -0.1179 -0.0303 -1.8187
12223TIP3   OH258159   1.750   3.735  34.785  0.5568 -0.3323  0.4883
12223TIP3    H158160   1.672   3.707  34.737 -0.3157  0.1094  1.6064
12223TIP3    H258161   1.804   3.657  34.791  0.5546 -0.4720 -0.9245
12224TIP3   OH258162   3.707   3.056  37.900  0.4528  0.7607  0.5725
12224TIP3    H158163   3.700   3.085  37.809 -1.7450 -0.3797  0.3210
12224TIP3    H258164   3.787   3.002  37.902 -0.7160 -1.1800 -1.3105
12225TIP3   OH258165   0.354   0.130   7.884 -0.3703 -0.2690  0.1318
12225TIP3    H158166   0.365   0.140   7.789  2.2504  0.4512  0.4088
12225TIP3    H258167   0.443   0.119   7.917 -1.2414 -0.8794  2.4978
12226TIP3   OH258168   2.344   3.831  28.722  0.6913 -0.6690  0.0816
12226TIP3    H158169   2.368   3.841  28.630 -3.0616  0.2363 -0.9904
12226TIP3    H258170   2.415   3.872  28.770  1.9113  0.5126 -2.5185
12227TIP3   OH258171   0.221   3.565  33.756 -0.1169 -0.0305  0.2473
12227TIP3    H158172   0.316   3.561  33.769  0.0068  0.6006 -0.3866
12227TIP3    H258173   0.203   3.498  33.690  0.1546  1.0157 -0.9384
12228TIP3   OH258174   1.430   3.060   6.144 -0.0387 -0.0123 -0.4558
12228TIP3    H158175   1.376   3.003   6.089 -0.9516  0.4851 -0.0945
12228TIP3    H258176   1.432   3.016   6.229 -0.9539  0.5830 -0.1025
12229TIP3   OH258177   0.473   1.336  44.443  0.1892 -0.3001 -0.2334
12229TIP3    H158178   0.510   1.251  44.419 -0.4601 -0.2086 -1.6238
12229TIP3    H258179   0.514   1.398  44.383 -0.2753  0.1953 -0.0485
12230TIP3   OH258180   3.476   1.442  44.203  0.1395 -0.3724  0.7793
12230TIP3    H158181   3.461   1.523  44.155  2.6684 -0.9633 -1.2683
12230TIP3    H258182   3.526   1.468  44.280 -0.5038  0.1737  1.0176
12231TIP3   OH258183   3.921   1.770  40.574 -0.4639  0.9579  0.0312
12231TIP3    H158184   3.930   1.676  40.558  0.4888  1.2266 -1.2700
12231TIP3    H258185   4.011   1.803  40.566 -0.7952  1.9777  0.4378
12232TIP3   OH258186   3.637   1.707  38.295 -0.0841 -0.0924  0.5473
12232TIP3    H158187   3.678   1.637  38.244 -1.2849  0.7233 -1.6533
12232TIP3    H258188   3.695   1.782  38.282 -2.1178  1.1091 -2.7020
12233TIP3   OH258189   2.777   4.081  32.650  0.1503 -0.0865 -0.1821
12233TIP3    H158190   2.867   4.074  32.618  0.0544  2.5582 -1.2062
12233TIP3    H258191   2.786   4.121  32.737 -0.0419 -0.0665 -0.1699
12234TIP3   OH258192   2.513   1.974   1.523  0.3382 -0.2745  0.2832
12234TIP3    H158193   2.463   2.023   1.588 -0.5811 -2.9013  1.7093
12234TIP3    H258194   2.459   1.975   1.445 -0.5283 -0.5133  0.8657
12235TIP3   OH258195   1.755   1.917  36.392 -1.1279 -0.2322 -0.1246
12235TIP3    H158196   1.710   1.940  36.473  0.8552  0.9229  0.7182
12235TIP3    H258197   1.829   1.864  36.419  0.5586  1.5654 -0.9152
12236TIP3   OH258198   2.686   1.423  41.486 -0.0535 -0.0171 -0.3858
12236TIP3    H158199   2.652   1.362  41.421  0.4205  0.0440 -0.6909
12236TIP3    H258200   2.780   1.425  41.471 -0.0216  0.5077 -0.1355
12237TIP3   OH258201   0.882   1.990  36.081  0.4344 -0.3167  0.2834
12237TIP3    H158202   0.858   1.900  36.059  0.1754 -0.6043  1.6426
12237TIP3    H258203   0.977   1.994  36.064  1.1329 -1.8597  3.1907
12238TIP3   OH258204   3.355   2.499  33.367  0.9339 -0.0302 -0.3461
12238TIP3    H158205   3.444   2.530  33.386  0.3674  0.8762  0.9351
12238TIP3    H258206   3.316   2.569  33.315  0.3529  0.4922  0.7520
12239TIP3   OH258207   2.159   2.588   1.824  0.1177 -0.1594  0.2823
12239TIP3    H158208   2.181   2.543   1.906 -0.7359  0.9960  1.1791
12239TIP3    H258209   2.238   2.638   1.802  0.3192 -0.4018  0.4518
12240TIP3   OH258210   1.824   2.271   3.010 -0.3249 -0.2740 -0.2473
12240TIP3    H158211   1.867   2.188   3.026 -1.2322 -0.2413  3.3925
12240TIP3    H258212   1.895   2.335   3.005  0.2607 -0.8642  0.3503
12241TIP3   OH258213   1.925   2.053   6.901  0.1290 -0.2570  0.8073
12241TIP3    H158214   1.878   2.134   6.925  1.6746  0.7163  0.7100
12241TIP3    H258215   1.928   2.002   6.982 -0.1245  0.1735  1.0921
12242TIP3   OH258216   0.712   1.756  40.559  0.5019 -0.1110  0.2125
12242TIP3    H158217   0.806   1.748  40.578  0.6109 -1.5246 -0.7731
12242TIP3    H258218   0.679   1.813  40.629  1.9192 -0.3204  1.1129
12243TIP3   OH258219   0.873   3.749  25.473  0.5685 -0.4622  0.3770
12243TIP3    H158220   0.800   3.720  25.418 -1.0522 -1.2725  2.8023
12243TIP3    H258221   0.940   3.778  25.411 -1.5126 -0.3828 -1.9664
12244TIP3   OH258222   3.661   3.316  33.926 -0.7164 -0.2475  0.0646
12244TIP3    H158223   3.566   3.318  33.936 -0.6998 -0.0484  0.1754
12244TIP3    H258224   3.675   3.273  33.841 -0.9308  0.6237 -0.4175
12245TIP3   OH258225   0.387   1.091  20.868 -0.6405  0.1699  0.2508
12245TIP3    H158226   0.334   1.012  20.876 -0.8769  0.4678  1.8568
12245TIP3    H258227   0.474   1.065  20.900 -1.0372  0.8407  1.9656
12246TIP3   OH258228   2.025   1.483  15.570 -0.2378  0.1545 -0.7363
12246TIP3    H158229   1.961   1.526  15.627  1.8390  0.3676  1.6341
12246TIP3    H258230   2.070   1.421  15.628  1.0130 -0.7040 -2.5584
12247TIP3   OH258231   0.429   3.363  14.854  0.2949 -0.1911 -0.5650
12247TIP3    H158232   0.347   3.324  14.823  0.5860  0.0035 -1.6262
12247TIP3    H258233   0.495   3.296  14.839  0.4295 -0.1294 -0.2638
12248TIP3   OH258234   2.300   0.135  40.779  0.3885 -0.0218 -0.0580
12248TIP3    H158235   2.307   0.215  40.830  0.4686  1.0956 -1.7383
12248TIP3    H258236   2.241   0.079  40.829  1.2904  0.5777  1.7498
12249TIP3   OH258237   1.089   3.419  31.055  0.3726  0.4578  0.2981
12249TIP3    H158238   1.044   3.393  30.975  0.8092 -1.7079  0.6966
12249TIP3    H258239   1.181   3.399  31.039  0.4597 -0.0530  1.3412
12250TIP3   OH258240   3.485   1.004  34.316  0.1897  0.2158 -0.0132
12250TIP3    H158241   3.573   1.042  34.316  0.6414 -0.8079 -1.0865
12250TIP3    H258242   3.487   0.936  34.383  0.3837 -0.1781 -0.4166
12251TIP3   OH258243   1.483   0.897  47.339  0.1687 -0.2917  0.3417
12251TIP3    H158244   1.502   0.969  47.279  0.0564 -0.6680 -0.1503
12251TIP3    H258245   1.540   0.913  47.415  0.1389  0.3126  0.2325
12252TIP3   OH258246   1.665   0.911  33.519 -0.4231 -0.3048  0.2141
12252TIP3    H158247   1.688   1.002  33.535  0.1567 -0.7454  2.1162
12252TIP3    H258248   1.737   0.878  33.465 -0.2283  0.1711  0.1745
12253TIP3   OH258249   1.954   4.052  26.734 -0.4612  0.2070  0.8276
12253TIP3    H158250   1.938   4.079  26.824  2.6490  1.5011  1.1111
12253TIP3    H258251   1.968   3.957  26.740 -0.5884  0.2298  1.6298
12254TIP3   OH258252   0.750   1.596  40.164 -0.6346  0.3270 -0.1896
12254TIP3    H158253   0.820   1.605  40.099  2.3500  2.2192  2.9581
12254TIP3    H258254   0.732   1.502  40.168  0.1994  0.0073 -2.5576
12255TIP3   OH258255   2.233   3.161   5.235  0.8752  0.2960 -0.4000
12255TIP3    H158256   2.194   3.126   5.315 -1.1149 -0.9201 -1.8138
12255TIP3    H258257   2.325   3.134   5.238  0.8467  0.3059  1.4598
12256TIP3   OH258258   1.408   3.980  34.942 -0.3456 -1.0288  0.5231
12256TIP3    H158259   1.443   4.061  34.906 -0.0087 -0.9931  0.9230
12256TIP3    H258260   1.483   3.936  34.981 -0.9892 -0.0871  3.0272
12257TIP3   OH258261   2.882   0.219   6.917 -0.4486  0.1551  0.2162
12257TIP3    H158262   2.791   0.244   6.936 -0.0741  1.5249  0.3189
12257TIP3    H258263   2.925   0.221   7.003  0.0901  1.3810 -0.0587
12258TIP3   OH258264   2.247   2.646  15.323  0.1187 -0.2157  0.0818
12258TIP3    H158265   2.248   2.662  15.417  2.0128 -0.0662  0.0772
12258TIP3    H258266   2.235   2.732  15.283 -0.4077 -0.2459  0.1611
12259TIP3   OH258267   3.505   0.779  34.505  0.1248  0.0971 -0.1677
12259TIP3    H158268   3.444   0.812  34.571  0.1361 -0.4318  0.1200
12259TIP3    H258269   3.576   0.741  34.556 -1.0060 -2.5276 -0.3572
12260TIP3   OH258270   2.203   3.132  12.092 -0.4046  0.5217  0.2972
12260TIP3    H158271   2.178   3.081  12.015  0.3495 -0.9515  0.9871
12260TIP3    H258272   2.229   3.067  12.157 -2.5115  1.6051  2.3915
12261TIP3   OH258273   0.174   0.160  38.981  0.0647  0.5595  0.0116
12261TIP3    H158274   0.101   0.136  38.923 -0.6527  0.9480  0.7292
12261TIP3    H258275   0.162   0.105  39.058 -0.1922  1.4915  0.6520
12262TIP3   OH258276   0.156   1.685  13.449  0.8713  0.4836  0.1381
12262TIP3    H158277   0.213   1.611  13.429  1.4603  0.6605  1.0668
12262TIP3    H258278   0.171   1.702  13.542 -1.8906 -0.4633  0.8282
12263TIP3   OH258279   1.201   1.222  13.592 -0.0158 -0.2459  0.0514
12263TIP3    H158280   1.186   1.308  13.632  1.5550 -0.3744  0.9751
12263TIP3    H258281   1.123   1.208  13.537  0.6053  2.6671 -1.7896
12264TIP3   OH258282   2.489   0.207  32.059 -0.0096 -0.1362 -0.1771
12264TIP3    H158283   2.489   0.256  32.141  0.1615 -0.7636  0.2013
12264TIP3    H258284   2.412   0.150  32.064  0.8924 -1.3504  0.2703
12265TIP3   OH258285   2.393   0.517  33.221  0.3035  0.0036 -0.4091
12265TIP3    H158286   2.381   0.611  33.237  0.9507 -0.0432  0.4325
12265TIP3    H258287   2.305   0.485  33.202 -0.1367  0.5552  0.5977
12266TIP3   OH258288   3.081   0.132   4.819  0.3156  0.3367 -0.3411
12266TIP3    H158289   3.072   0.042   4.849 -0.9259  0.3737 -0.5383
12266TIP3    H258290   3.172   0.156   4.838 -0.2522  0.2349  2.9895
12267TIP3   OH258291   3.268   3.092  41.552 -0.1282 -0.0513  0.7171
12267TIP3    H158292   3.243   3.105  41.461 -0.2815  0.3763  0.8154
12267TIP3    H258293   3.359   3.120  41.556 -0.1394 -0.0132  0.7071
12268TIP3   OH258294   2.146   4.010   7.026 -0.2064  0.3203  0.3126
12268TIP3    H158295   2.078   4.076   7.040 -0.4493 -0.2247  1.8997
12268TIP3    H258296   2.117   3.962   6.948 -0.2042  1.8275 -0.6466
12269TIP3   OH258297   3.464   3.475   1.580  0.4615 -0.0873  0.0106
12269TIP3    H158298   3.523   3.546   1.604 -0.3893  0.8712 -0.5776
12269TIP3    H258299   3.379   3.503   1.613  0.3999 -1.6678  1.2750
12270TIP3   OH258300   0.930   2.163  10.609 -0.7683  0.0268  0.1153
12270TIP3    H158301   0.982   2.243  10.596 -0.6787 -0.0733 -0.1303
12270TIP3    H258302   0.979   2.114  10.675  0.7863 -1.2237 -1.8564
12271TIP3   OH258303   2.545   3.537  29.515  0.3853 -0.7203 -0.4434
12271TIP3    H158304   2.451   3.550  29.511  0.6276  2.8472  1.4332
12271TIP3    H258305   2.581   3.598  29.451  1.5081 -2.8843 -2.0235
12272TIP3   OH258306   3.670   2.100  45.563  0.4010  0.1898  0.8370
12272TIP3    H158307   3.593   2.115  45.618 -0.4389 -1.7300  0.2636
12272TIP3    H258308   3.645   2.134  45.477  0.2904 -0.2052  0.7122
12273TIP3   OH258309   3.189   2.192  42.545 -0.3713 -0.3584  0.0858
12273TIP3    H158310   3.123   2.163  42.608 -0.6517 -2.0770 -0.9161
12273TIP3    H258311   3.273   2.182  42.591 -0.5475 -1.8938  0.1290
12274TIP3   OH258312   2.332   0.687   1.809  0.5841 -0.0404  0.1124
12274TIP3    H158313   2.337   0.731   1.724  3.9634 -1.1797 -0.4364
12274TIP3    H258314   2.325   0.594   1.788  1.5686 -0.3456  1.0577
12275TIP3   OH258315   2.328   1.654  39.492  0.6546 -0.8641 -0.3394
12275TIP3    H158316   2.360   1.565  39.507 -1.7511 -2.2685 -2.6905
12275TIP3    H258317   2.239   1.654  39.528  0.7488  0.7602 -0.0114
12276TIP3   OH258318   1.581   1.051  37.055  0.1508  0.1170  0.0920
12276TIP3    H158319   1.592   1.050  36.960  1.8807  1.2147  0.2372
12276TIP3    H258320   1.644   0.987  37.087  2.6432  2.6515  0.6609
12277TIP3   OH258321   2.235   1.249  32.650 -0.0110 -0.2742 -0.0151
12277TIP3    H158322   2.148   1.277  32.679 -0.5985 -1.7049 -0.2962
12277TIP3    H258323   2.294   1.285  32.716 -0.3419  3.6586 -1.6195
12278TIP3   OH258324   0.765   3.160  35.349 -0.2227  0.5070 -0.5980
12278TIP3    H158325   0.744   3.253  35.340  0.3926  0.7118 -0.0156
12278TIP3    H258326   0.775   3.128  35.260 -0.0541  1.0897 -0.7887
12279TIP3   OH258327   1.150   0.499   7.616 -0.1107 -0.2183  0.5677
12279TIP3    H158328   1.158   0.587   7.578  0.4799 -0.0638  1.0335
12279TIP3    H258329   1.157   0.440   7.541 -2.7738  0.1573 -0.0804
12280TIP3   OH258330   3.927   2.150   5.665  0.6702 -0.0993 -0.2512
12280TIP3    H158331   3.913   2.245   5.665 -0.4575 -0.2550  0.4181
12280TIP3    H258332   4.009   2.138   5.713 -0.5771  0.3601  2.1046
12281TIP3   OH258333   3.426   2.054  20.611  0.9939 -0.5283 -0.0589
12281TIP3    H158334   3.479   2.065  20.690 -1.8499  0.1982  1.9192
12281TIP3    H258335   3.385   2.140  20.598 -0.4151 -1.2930 -0.9008
12282TIP3   OH258336   0.653   1.920  44.519  0.5688 -0.0873  0.7086
12282TIP3    H158337   0.681   2.011  44.522  1.6308 -0.4329  2.1154
12282TIP3    H258338   0.558   1.925  44.508  0.7825  1.1319 -1.1036
12283TIP3   OH258339   1.409   3.564   8.687 -0.1206 -0.8675  0.2056
12283TIP3    H158340   1.414   3.475   8.651  0.2250 -1.3412  1.3775
12283TIP3    H258341   1.495   3.579   8.725  0.4626  0.7104 -1.5737
12284TIP3   OH258342   3.783   1.083  32.328 -0.1405  0.2667 -0.5899
12284TIP3    H158343   3.790   1.022  32.255  0.4132  0.5132 -0.7450
12284TIP3    H258344   3.873   1.109  32.347 -0.2844  0.2911  0.1049
12285TIP3   OH258345   1.511   3.951   0.919  0.6835  0.4679  0.1036
12285TIP3    H158346   1.520   3.938   0.824  2.3697  0.5818  0.2209
12285TIP3    H258347   1.571   4.022   0.940  0.0250  0.7275  1.2149
12286TIP3   OH258348   0.836   1.779   1.126 -0.1602 -0.3934  0.2913
12286TIP3    H158349   0.757   1.737   1.159  0.0227  0.5813  2.0989
12286TIP3    H258350   0.843   1.860   1.176  1.1633  0.2996 -0.9162
12287TIP3   OH258351   2.202   1.356   9.338 -0.3554 -0.0378 -0.0029
12287TIP3    H158352   2.108   1.376   9.336  0.0682  2.2122 -0.3749
12287TIP3    H258353   2.238   1.418   9.401  0.8372 -1.1607  0.4430
12288TIP3   OH258354   3.098   0.088   8.585  0.0625 -0.1065  0.0874
12288TIP3    H158355   3.055   0.129   8.659 -0.4767 -0.4019 -0.0635
12288TIP3    H258356   3.030   0.078   8.519  0.8347  1.5512 -1.0470
12289TIP3   OH258357   2.008   1.565  14.601 -0.0899 -0.4364  0.1261
12289TIP3    H158358   2.088   1.596  14.644  1.0696 -2.5858 -0.3167
12289TIP3    H258359   1.943   1.564  14.671  0.7617 -0.3323  0.9512
12290TIP3   OH258360   3.356   1.124  39.416  0.7021  0.2291 -0.5945
12290TIP3    H158361   3.425   1.120  39.482 -0.9429  2.6677  1.4501
12290TIP3    H258362   3.323   1.034  39.410  1.9852 -0.3667  0.6470
12291TIP3   OH258363   1.383   1.885  38.105  0.3806 -0.1168  0.0532
12291TIP3    H158364   1.431   1.803  38.096  0.2986 -0.3617  1.4943
12291TIP3    H258365   1.313   1.880  38.041  0.5780 -1.0167 -0.1046
12292TIP3   OH258366   2.219   2.999  10.394 -0.0130 -0.2802  0.2174
12292TIP3    H158367   2.180   2.913  10.406 -1.0427 -0.0231 -1.0843
12292TIP3    H258368   2.232   3.007  10.300  2.7177 -0.1124  0.5305
12293TIP3   OH258369   0.214   2.526  36.063 -0.3266  0.2969 -0.2637
12293TIP3    H158370   0.163   2.603  36.039 -0.4247 -0.0238 -1.1272
12293TIP3    H258371   0.155   2.476  36.120  0.6103  2.0066  2.3842
12294TIP3   OH258372   2.724   0.692  39.247 -0.1816 -0.3063 -0.8022
12294TIP3    H158373   2.644   0.640  39.234 -0.2093 -0.2819 -0.7259
12294TIP3    H258374   2.720   0.720  39.338  0.1477 -0.6971 -0.6616
12295TIP3   OH258375   3.077   3.752   1.028  0.0618 -0.1368 -0.3659
12295TIP3    H158376   3.057   3.659   1.034  2.3559 -0.5779  2.7789
12295TIP3    H258377   3.088   3.780   1.118  1.1082  2.8196 -1.3012
12296TIP3   OH258378   0.659   1.055  39.542 -0.7416 -0.3179  0.6342
12296TIP3    H158379   0.723   1.077  39.609 -1.2294 -1.2059  1.4143
12296TIP3    H258380   0.665   0.960  39.533  0.4891 -0.0814 -1.8056
12297TIP3   OH258381   3.587   2.566  47.580  0.2950 -0.0655  0.3955
12297TIP3    H158382   3.586   2.473  47.559  0.5460 -0.2578  1.1975
12297TIP3    H258383   3.500   2.584  47.617  0.1319  0.0943 -0.0589
12298TIP3   OH258384   4.026   2.505  12.625  0.0015 -0.5689 -0.0025
12298TIP3    H158385   4.066   2.434  12.675  1.5678 -0.4820 -1.0639
12298TIP3    H258386   4.046   2.584  12.676  1.8899 -0.4400 -0.8472
12299TIP3   OH258387   0.369   1.914  44.536 -0.2634  0.7085 -0.4995
12299TIP3    H158388   0.387   1.825  44.567  0.9770  1.4276  1.0014
12299TIP3    H258389   0.291   1.942  44.584 -0.0986  0.7577 -0.2561
12300TIP3   OH258390   3.026   0.962  46.591 -0.4766 -0.1051 -0.1474
12300TIP3    H158391   2.946   0.919  46.561 -1.1408  1.0337 -0.0892
12300TIP3    H258392   3.035   1.037  46.532  1.7306 -1.3438 -1.5208
12301TIP3   OH258393   0.764   3.925  11.788  0.3231  0.0252  0.3052
12301TIP3    H158394   0.786   3.852  11.846 -0.7330 -0.7308 -0.2219
12301TIP3    H258395   0.690   3.894  11.737 -0.5313  1.6778  0.4632
12302TIP3   OH258396   1.637   3.722  41.544 -0.6048  0.1346  0.3632
12302TIP3    H158397   1.659   3.634  41.516  0.3452  0.6041 -0.4316
12302TIP3    H258398   1.585   3.710  41.624 -0.2720 -1.1203  0.4077
12303TIP3   OH258399   2.385   0.558   8.200 -0.2069 -0.4789  0.3944
12303TIP3    H158400   2.321   0.584   8.134  0.5281  1.1526  0.2627
12303TIP3    H258401   2.371   0.464   8.212 -2.7756 -0.1566  0.5663
12304TIP3   OH258402   2.320   2.534  32.855  0.1835 -0.3239 -0.2411
12304TIP3    H158403   2.286   2.603  32.798  0.6580  0.8744  0.8694
12304TIP3    H258404   2.285   2.555  32.941  3.3794  0.7876  0.8971
12305TIP3   OH258405   2.460   3.517  35.495  0.1101 -0.6159 -0.6550
12305TIP3    H158406   2.533   3.547  35.549  0.2199 -1.6798 -0.2027
12305TIP3    H258407   2.499   3.498  35.410  0.3697 -1.1849 -0.4142
12306TIP3   OH258408   3.770   2.673  36.659  0.6339  0.8772 -0.2665
12306TIP3    H158409   3.818   2.596  36.628  0.2332 -0.9165  3.1583
12306TIP3    H258410   3.835   2.743  36.658  2.5095 -0.7222  1.2115
12307TIP3   OH258411   3.606   1.906  10.095 -0.7119 -0.4159  0.7079
12307TIP3    H158412   3.627   1.933  10.006  1.0126  0.4430  1.3165
12307TIP3    H258413   3.547   1.832  10.085  0.7570 -1.4255 -1.1932
12308TIP3   OH258414   0.736   1.098  42.772 -0.2974  0.6480  0.2216
12308TIP3    H158415   0.765   1.109  42.681 -0.2958 -0.4275  0.0862
12308TIP3    H258416   0.810   1.057  42.816 -0.9329 -0.4458  0.2999
12309TIP3   OH258417   3.170   0.767  11.931  0.1472  0.4671  0.0896
12309TIP3    H158418   3.075   0.765  11.931  0.1448  0.3971 -0.5524
12309TIP3    H258419   3.196   0.690  11.882  0.4966  1.4215 -1.2728
12310TIP3   OH258420   3.779   0.510  33.522  0.8589  0.1328 -0.1225
12310TIP3    H158421   3.749   0.445  33.586  0.8146  0.2731  0.0004
12310TIP3    H258422   3.706   0.571  33.513  0.7615 -0.0403 -0.5135
12311TIP3   OH258423   3.777   3.304   0.606 -0.0323 -0.1522  0.1154
12311TIP3    H158424   3.785   3.220   0.652 -1.3609  1.2783  3.1883
12311TIP3    H258425   3.855   3.353   0.632  0.2627 -0.0202 -0.9358
12312TIP3   OH258426   3.273   4.035   3.512  0.1434  0.1202 -0.6500
12312TIP3    H158427   3.240   4.111   3.560  1.8955 -0.9117  2.4493
12312TIP3    H258428   3.239   3.959   3.560  1.1891 -1.0360 -1.6569
12313TIP3   OH258429   0.764   3.453  35.356  0.6240  0.1049 -0.2906
12313TIP3    H158430   0.813   3.522  35.310 -0.6852  2.3412  1.4426
12313TIP3    H258431   0.757   3.484  35.446  1.0187 -2.9674  0.9149
12314TIP3   OH258432   0.169   0.739  44.164 -1.2607 -0.2009  0.4358
12314TIP3    H158433   0.176   0.828  44.131 -0.7991 -0.9846 -1.8010
12314TIP3    H258434   0.257   0.702  44.153 -1.3878 -0.8669  1.5204
12315TIP3   OH258435   3.336   3.784  34.872 -0.3694 -0.5189 -0.4810
12315TIP3    H158436   3.381   3.704  34.843 -1.2020 -1.3371  0.4010
12315TIP3    H258437   3.265   3.752  34.927 -0.7675  0.8467 -0.1781
12316TIP3   OH258438   1.087   1.570   7.422 -0.3088 -0.2325 -0.2115
12316TIP3    H158439   1.051   1.589   7.508 -0.5912 -2.1992  0.1410
12316TIP3    H258440   1.112   1.656   7.387 -0.4315  0.6228  1.6982
12317TIP3   OH258441   3.084   3.652  14.579  0.3217 -0.0366 -0.5077
12317TIP3    H158442   3.011   3.601  14.545  0.6983 -1.1549  0.3125
12317TIP3    H258443   3.156   3.633  14.518  0.3327 -0.1238 -0.4681
12318TIP3   OH258444   0.800   1.595  42.934 -0.1879  0.1904  0.2570
12318TIP3    H158445   0.785   1.593  42.840  1.5569 -1.6501 -0.0697
12318TIP3    H258446   0.764   1.512  42.966  0.0672  0.3715  1.0444
12319TIP3   OH258447   3.898   3.886   0.877 -0.3087  0.2529  0.0721
12319TIP3    H158448   3.814   3.839   0.884  0.7572 -1.4760  2.6468
12319TIP3    H258449   3.911   3.897   0.783 -2.3887 -1.3923 -0.4873
12320TIP3   OH258450   3.740   1.904  42.494 -0.2509 -0.0398 -0.6595
12320TIP3    H158451   3.826   1.928  42.527 -0.3906  0.2112 -0.4778
12320TIP3    H258452   3.699   1.987  42.470 -0.9828 -0.0240  0.5784
12321TIP3   OH258453   0.561   1.294   3.570 -0.1589 -0.3436  0.3217
12321TIP3    H158454   0.584   1.201   3.567 -1.0828 -0.5727 -0.2753
12321TIP3    H258455   0.480   1.300   3.518  0.7296  1.0477 -0.9781
12322TIP3   OH258456   2.031   0.398  32.132 -0.4096  0.7168  1.0338
12322TIP3    H158457   2.062   0.481  32.170 -0.7880  1.5425 -0.3789
12322TIP3    H258458   1.950   0.422  32.087  0.4846  0.0231 -1.0674
12323TIP3   OH258459   3.315   1.059  43.518  0.3192 -0.2930 -0.1243
12323TIP3    H158460   3.398   1.035  43.558  0.6118  0.0400 -0.5262
12323TIP3    H258461   3.261   1.091  43.590 -0.0502 -2.0138  0.4203
12324TIP3   OH258462   3.133   1.987  32.968 -0.0453  0.2767 -0.2187
12324TIP3    H158463   3.064   1.920  32.960  1.3603 -1.3684  0.8375
12324TIP3    H258464   3.113   2.031  33.050  1.3282 -1.6961  1.2609
12325TIP3   OH258465   3.783   2.935  10.224 -0.0150  0.6605 -0.1061
12325TIP3    H158466   3.713   2.973  10.279 -0.3299  0.1332 -0.1333
12325TIP3    H258467   3.820   3.010  10.178 -1.3928  0.8084 -1.0312
12326TIP3   OH258468   0.984   3.116  31.291  0.3466 -0.2186  0.1736
12326TIP3    H158469   1.074   3.117  31.324  0.7139 -0.4953 -0.7850
12326TIP3    H258470   0.970   3.025  31.264 -1.1109 -0.8161  2.6214
12327TIP3   OH258471   2.565   0.277  34.871 -0.1891  0.1991 -0.2166
12327TIP3    H158472   2.487   0.237  34.909 -0.0565 -1.0136 -1.1478
12327TIP3    H258473   2.551   0.371  34.880 -1.3353 -0.0158  0.4429
12328TIP3   OH258474   2.954   2.471  41.854 -0.1747 -0.2042 -0.6518
12328TIP3    H158475   2.973   2.530  41.781 -3.1352 -0.1330 -1.4765
12328TIP3    H258476   2.998   2.389  41.832  0.5099  0.4021 -1.5835
12329TIP3   OH258477   1.236   2.484  41.130 -0.1039  0.3422  0.7183
12329TIP3    H158478   1.202   2.409  41.082  0.9344  1.4499 -1.9821
12329TIP3    H258479   1.163   2.545  41.135  0.2231  0.9290 -1.1136
12330TIP3   OH258480   1.325   3.615  46.406 -0.2426  0.1988  0.2128
12330TIP3    H158481   1.410   3.646  46.438  2.9518 -5.2346 -1.5724
12330TIP3    H258482   1.326   3.636  46.312 -0.1653 -0.9797 -0.0672
12331TIP3   OH258483   1.696   2.530  10.592  0.2247 -0.2243 -0.2052
12331TIP3    H158484   1.659   2.618  10.604 -0.0069 -0.4658  1.0099
12331TIP3    H258485   1.716   2.500  10.680 -0.9926 -1.9460 -0.4537
12332TIP3   OH258486   3.341   1.523  34.355  0.2630  0.3392 -0.4527
12332TIP3    H158487   3.260   1.474  34.348 -0.4485  1.4524 -0.2946
12332TIP3    H258488   3.380   1.494  34.438 -0.3958  0.3998 -0.1125
12333TIP3   OH258489   2.058   1.106  43.792 -0.2954 -0.1642  0.3580
12333TIP3    H158490   2.128   1.060  43.745 -1.3733 -1.7393  0.2321
12333TIP3    H258491   2.102   1.181  43.831  1.0745 -0.0063 -1.3403
12334TIP3   OH258492   2.401   1.764  44.949  0.1857  0.3967  0.1092
12334TIP3    H158493   2.387   1.781  45.042 -0.0338 -2.1237  0.6185
12334TIP3    H258494   2.458   1.687  44.947 -0.5351 -0.1609 -1.8124
12335TIP3   OH258495   0.882   0.116  46.458  0.0774 -0.8648 -0.2108
12335TIP3    H158496   0.790   0.142  46.460  0.1409 -0.6673  0.3531
12335TIP3    H258497   0.915   0.150  46.375 -0.0795  0.0368  0.0881
12336TIP3   OH258498   2.880   0.583  43.295  0.9977  0.0590  0.5492
12336TIP3    H158499   2.800   0.607  43.341  0.4201  0.9122 -0.8335
12336TIP3    H258500   2.877   0.633  43.213  2.1226 -1.1473 -0.2818
12337TIP3   OH258501   1.070   2.292  15.597  0.3974 -0.3864  0.2306
12337TIP3    H158502   1.152   2.244  15.586  0.9693  0.5735  0.1609
12337TIP3    H258503   1.089   2.381  15.565 -1.0226 -0.4565 -0.9324
12338TIP3   OH258504   1.535   4.068  32.028  0.0242 -0.1526 -0.1638
12338TIP3    H158505   1.454   4.017  32.031 -0.1408  0.1601  0.6484
12338TIP3    H258506   1.599   4.008  31.988  0.0381 -1.3033  1.4797
12339TIP3   OH258507   1.679   0.331   0.869  0.2913  0.3298 -0.1568
12339TIP3    H158508   1.655   0.328   0.777 -2.3543 -1.5209  0.4849
12339TIP3    H258509   1.770   0.361   0.869 -0.0754  1.8514 -3.2319
12340TIP3   OH258510   0.866   3.571   0.118  0.1122 -0.0139  0.0566
12340TIP3    H158511   0.946   3.528   0.147  0.7333  0.6819 -0.5741
12340TIP3    H258512   0.893   3.621   0.040 -1.1701 -0.6596 -0.8326
12341TIP3   OH258513   3.877   2.386  34.289  0.0409  0.0459 -0.9298
12341TIP3    H158514   3.818   2.433  34.349  2.5799  1.3233  0.7187
12341TIP3    H258515   3.859   2.424  34.203 -1.0437  0.8926 -0.3559
12342TIP3   OH258516   3.232   0.341  10.151  0.5228  0.0649  0.0112
12342TIP3    H158517   3.234   0.376  10.240 -0.2967 -3.1111  1.4291
12342TIP3    H258518   3.263   0.413  10.096  1.6582  1.9739  2.9056
12343TIP3   OH258519   0.163   2.180  20.363  0.0857 -0.1866 -0.1453
12343TIP3    H158520   0.176   2.206  20.272  1.3400 -1.5152 -0.3804
12343TIP3    H258521   0.071   2.200  20.381  0.6477  3.4692 -0.5323
12344TIP3   OH258522   4.086   3.118  14.926  0.0053  0.1828  0.0725
12344TIP3    H158523   4.071   3.048  14.989  0.3983 -0.2135 -0.2602
12344TIP3    H258524   4.002   3.132  14.883 -0.1554  0.1537  0.3772
12345TIP3   OH258525   2.576   0.266  12.391 -0.3550 -0.1718 -0.5146
12345TIP3    H158526   2.593   0.302  12.478  0.1357  0.8364 -1.0033
12345TIP3    H258527   2.494   0.218  12.400 -0.0355 -0.5416  0.6227
12346TIP3   OH258528   0.745   0.831  32.396  0.2750 -0.1248 -0.3899
12346TIP3    H158529   0.682   0.773  32.354 -1.0758  1.4498 -0.6784
12346TIP3    H258530   0.756   0.903  32.334  1.4698  0.2030  0.1798
12347TIP3   OH258531   2.945   0.026  28.357 -0.0770  0.2873 -0.8171
12347TIP3    H158532   2.965   0.101  28.412 -0.4088 -0.4391  0.3276
12347TIP3    H258533   2.881   0.059  28.294 -1.4562  0.5925  0.6893
12348TIP3   OH258534   3.222   1.999   1.455 -0.1220  0.1789  0.3736
12348TIP3    H158535   3.286   1.979   1.386 -0.1122  0.4105  0.3143
12348TIP3    H258536   3.180   2.080   1.425 -1.9309 -1.0770 -0.6448
12349TIP3   OH258537   1.880   2.418  32.143 -0.2273 -0.9504  0.4145
12349TIP3    H158538   1.849   2.351  32.203 -1.2019 -1.9906 -1.1688
12349TIP3    H258539   1.931   2.371  32.077  1.6422  0.2804  0.9032
12350TIP3   OH258540   1.343   0.062  37.737  0.0629 -0.0883  0.3484
12350TIP3    H158541   1.332   0.081  37.644  0.7776  0.7909  0.4228
12350TIP3    H258542   1.254   0.054  37.771 -0.2122  0.1573 -0.3025
12351TIP3   OH258543   1.456   1.510  43.235 -0.2984 -0.1738 -0.5604
12351TIP3    H158544   1.552   1.514  43.241 -0.3774  2.5983  0.4208
12351TIP3    H258545   1.428   1.494  43.325 -0.7941 -1.2653 -0.8918
12352TIP3   OH258546   1.183   2.630  14.752  0.0327 -0.0194  0.2247
12352TIP3    H158547   1.240   2.578  14.809 -0.6118  0.3571  1.2424
12352TIP3    H258548   1.121   2.671  14.812  1.1852  2.8450 -0.3715
12353TIP3   OH258549   0.954   2.824  40.671 -0.1352  0.1835 -0.2342
12353TIP3    H158550   0.874   2.790  40.631  0.7545 -1.4902 -0.6828
12353TIP3    H258551   0.966   2.772  40.750  0.6183  0.2573 -0.2864
12354TIP3   OH258552   4.029   2.894   2.681 -0.5548 -0.4165  0.4809
12354TIP3    H158553   4.001   2.846   2.759  1.3353  1.5204  2.4978
12354TIP3    H258554   4.125   2.889   2.682 -0.2405  3.1421  0.7540
12355TIP3   OH258555   1.458   2.058  18.697  0.2326  0.7069 -0.6522
12355TIP3    H158556   1.524   2.067  18.765 -1.2858 -0.6606  1.1247
12355TIP3    H258557   1.438   1.964  18.695 -2.4897  1.1996 -0.2092
12356TIP3   OH258558   3.479   1.385  41.492 -0.5929 -0.1671 -0.0619
12356TIP3    H158559   3.565   1.420  41.514 -0.3575 -0.1899 -0.9075
12356TIP3    H258560   3.464   1.316  41.557  0.4331 -0.7759 -0.4453
12357TIP3   OH258561   3.830   1.342  10.466  0.2918  0.0190 -1.0596
12357TIP3    H158562   3.881   1.392  10.402  0.2313  1.2169 -0.1932
12357TIP3    H258563   3.877   1.354  10.549 -2.1122  2.4042  0.1036
12358TIP3   OH258564   0.490   0.757  31.927  0.3138  0.2785  0.5044
12358TIP3    H158565   0.574   0.714  31.912 -0.3617 -1.1179  0.5960
12358TIP3    H258566   0.450   0.762  31.841  0.6304  1.2782  0.4048
12359TIP3   OH258567   0.976   3.728  34.228 -0.0364 -0.5419  0.3104
12359TIP3    H158568   1.066   3.738  34.260  0.0215 -1.9561  0.6175
12359TIP3    H258569   0.949   3.818  34.208  1.8063 -0.1789 -0.8139
12360TIP3   OH258570   0.453   2.250  16.327 -0.5192  0.2284  0.2996
12360TIP3    H158571   0.414   2.166  16.351  0.2341 -0.9973 -2.4256
12360TIP3    H258572   0.389   2.290  16.269  0.0757  0.5353 -0.1533
12361TIP3   OH258573   2.813   0.113  45.608 -0.1069 -0.6751  0.0657
12361TIP3    H158574   2.732   0.124  45.658  0.5830 -1.4339  1.4178
12361TIP3    H258575   2.841   0.202  45.587 -0.0584 -0.2758  1.6855
12362TIP3   OH258576   1.950   2.880  41.635  0.1244  0.1100  0.0385
12362TIP3    H158577   2.033   2.902  41.593 -1.1747  1.7002 -1.8973
12362TIP3    H258578   1.911   2.813  41.579  0.2519 -0.9439  1.1668
12363TIP3   OH258579   2.720   2.841  13.071  0.1145 -0.0498 -0.5438
12363TIP3    H158580   2.635   2.796  13.064  0.1776 -0.1083 -0.9741
12363TIP3    H258581   2.755   2.839  12.982  0.7123 -0.3094 -0.3061
12364TIP3   OH258582   1.849   2.095   2.691 -0.7635 -0.2764  0.3061
12364TIP3    H158583   1.753   2.099   2.685 -0.8693 -0.4589  1.5915
12364TIP3    H258584   1.867   2.102   2.785  0.4186 -1.5860  0.1995
12365TIP3   OH258585   0.464   0.517  30.828  0.8603  0.0595 -0.2416
12365TIP3    H158586   0.424   0.472  30.753  0.4170  1.1962 -0.7163
12365TIP3    H258587   0.390   0.550  30.879  0.9963 -3.3126  2.4959
12366TIP3   OH258588   0.258   1.622  19.039  0.0821 -0.3181 -0.6319
12366TIP3    H158589   0.180   1.578  19.072 -1.2446  1.2454 -1.5001
12366TIP3    H258590   0.240   1.635  18.945  1.0940  0.6213 -0.7097
12367TIP3   OH258591   1.650   0.787   8.534  0.1960  0.3004  0.6559
12367TIP3    H158592   1.638   0.813   8.625 -0.1375 -0.4831  0.8470
12367TIP3    H258593   1.606   0.856   8.483 -1.8258 -0.5131  1.1922
12368TIP3   OH258594   3.696   3.200  13.406  0.1022 -0.2651 -0.2333
12368TIP3    H158595   3.613   3.166  13.439  0.9621 -1.6948  0.5235
12368TIP3    H258596   3.717   3.144  13.331  0.8398 -0.5300  0.1598
12369TIP3   OH258597   1.640   2.193  40.520 -0.3461 -0.3710 -0.3052
12369TIP3    H158598   1.715   2.136  40.538 -0.0195  0.3216  0.6029
12369TIP3    H258599   1.674   2.282  40.533 -0.4174  0.1786 -3.2354
12370TIP3   OH258600   1.346   2.429   9.171 -0.0396 -0.1109  0.0606
12370TIP3    H158601   1.343   2.381   9.253 -0.2054  0.0641  0.1592
12370TIP3    H258602   1.419   2.391   9.122 -0.4868 -0.7982 -0.0746
12371TIP3   OH258603   0.929   0.414   3.981 -0.2663 -0.3174 -0.7756
12371TIP3    H158604   0.957   0.505   3.989 -0.8992 -0.1875  0.1292
12371TIP3    H258605   0.975   0.381   3.904  1.2915  0.2676 -0.1217
12372TIP3   OH258606   1.508   0.078   8.429  0.5414 -0.1526  0.4332
12372TIP3    H158607   1.502  -0.017   8.419 -0.3036 -0.0070 -0.7140
12372TIP3    H258608   1.423   0.103   8.464 -0.1938  0.4059 -1.5985
12373TIP3   OH258609   3.468   0.760   5.003 -0.3635 -0.1799  0.4285
12373TIP3    H158610   3.560   0.771   5.030 -0.1956  0.1574 -0.2700
12373TIP3    H258611   3.428   0.845   5.020 -0.3104 -0.0324 -0.1771
12374TIP3   OH258612   1.918   0.274  43.805  0.2869  0.2576  0.1544
12374TIP3    H158613   1.904   0.364  43.834 -0.4458  0.6915 -1.4231
12374TIP3    H258614   2.001   0.276  43.759 -0.0188  0.2684 -0.4013
12375TIP3   OH258615   0.659   0.563   5.463  0.3466 -0.7137 -0.1603
12375TIP3    H158616   0.564   0.569   5.462  0.4069  0.2381 -0.4778
12375TIP3    H258617   0.685   0.574   5.371  0.7352 -1.6226 -0.1748
12376TIP3   OH258618   1.119   3.269   7.892  0.4288  0.0298  0.2724
12376TIP3    H158619   1.160   3.197   7.940  2.1042  1.2047  0.7077
12376TIP3    H258620   1.079   3.324   7.960 -0.6860 -0.3683 -0.0395
12377TIP3   OH258621   0.737   1.290  44.552 -0.0768  0.0063  0.0003
12377TIP3    H158622   0.668   1.339  44.506  0.5634  0.6539 -0.2845
12377TIP3    H258623   0.811   1.289  44.491  0.0408 -1.0447  0.1322
12378TIP3   OH258624   4.075   4.033  40.043 -0.3483 -0.0458  0.5261
12378TIP3    H158625   4.071   4.070  40.131  1.1290  1.2581  0.1036
12378TIP3    H258626   4.079   4.109  39.985 -0.5816 -0.8732 -0.6221
12379TIP3   OH258627   1.984   1.822  20.412 -0.4152  0.4725 -0.6576
12379TIP3    H158628   2.027   1.738  20.404  0.1905  0.7472 -0.3513
12379TIP3    H258629   2.026   1.864  20.487 -2.0484  0.2471  0.4410
12380TIP3   OH258630   1.944   0.083  45.060 -0.3750  0.1554  0.2098
12380TIP3    H158631   2.018   0.036  45.023  0.4456  0.6110  1.2181
12380TIP3    H258632   1.867   0.034  45.031  0.3290 -0.4738 -0.6379
12381TIP3   OH258633   1.087   3.852  12.837  0.1586 -0.0220 -0.0260
12381TIP3    H158634   1.077   3.803  12.756  0.7246  1.0171 -0.7463
12381TIP3    H258635   1.098   3.943  12.810 -0.2367  0.4339  1.2457
12382TIP3   OH258636   0.694   1.853  47.467  0.0408  0.4122  0.2343
12382TIP3    H158637   0.719   1.777  47.415  1.2275 -1.5969  3.4619
12382TIP3    H258638   0.777   1.898  47.486 -0.2851  0.8052  0.7708
12383TIP3   OH258639   3.431   0.209  44.987 -0.1173  0.7663 -0.0935
12383TIP3    H158640   3.478   0.218  44.904 -0.3391  0.7839 -0.2181
12383TIP3    H258641   3.346   0.252  44.971 -0.7094 -0.4254 -0.2999
12384TIP3   OH258642   3.453   0.999  10.007 -0.5901 -0.3797 -0.9257
12384TIP3    H158643   3.378   0.980   9.951  0.0056 -0.3637 -1.7533
12384TIP3    H258644   3.527   0.957   9.963  0.0026  0.2002 -0.5045
12385TIP3   OH258645   0.500   0.457   1.358  0.0628 -0.1372 -0.4181
12385TIP3    H158646   0.432   0.442   1.424  0.8421  1.3408  0.7795
12385TIP3    H258647   0.458   0.516   1.295 -0.2384 -0.4445 -0.5120
12386TIP3   OH258648   3.536   3.049  11.029 -0.2593  0.3305 -0.2011
12386TIP3    H158649   3.568   3.070  11.117 -2.4671 -0.1601  0.7888
12386TIP3    H258650   3.604   2.992  10.991  0.3708 -0.0946  1.4831
12387TIP3   OH258651   1.616   1.474  42.484 -0.0611 -0.0064 -0.1991
12387TIP3    H158652   1.709   1.468  42.505 -0.1605  0.8094  0.5014
12387TIP3    H258653   1.605   1.416  42.408  1.4683  1.7096 -1.8291
12388TIP3   OH258654   0.455   3.159  30.339 -0.5759  0.4949 -0.0273
12388TIP3    H158655   0.480   3.178  30.430 -1.0686  0.4019  0.1318
12388TIP3    H258656   0.367   3.196  30.330 -0.4347  0.7089 -0.5386
12389TIP3   OH258657   1.215   1.004   6.267 -0.1311 -0.2722  0.0311
12389TIP3    H158658   1.155   0.929   6.271  0.9280 -1.0882  1.9346
12389TIP3    H258659   1.199   1.051   6.349 -1.6677  2.4035 -1.6433
12390TIP3   OH258660   2.599   2.467   5.901 -0.1469  0.2961  0.4124
12390TIP3    H158661   2.605   2.525   5.825  0.7571 -2.4995 -1.8358
12390TIP3    H258662   2.506   2.455   5.915 -0.3634 -0.6025 -1.5229
12391TIP3   OH258663   1.145   2.380  43.540  0.9308 -0.0174  0.4181
12391TIP3    H158664   1.102   2.326  43.606  0.4551 -1.3187 -0.8933
12391TIP3    H258665   1.097   2.362  43.459  2.0143  0.8862 -0.4694
12392TIP3   OH258666   2.119   1.110  13.175  0.4605 -0.0438 -0.3868
12392TIP3    H158667   2.204   1.083  13.209  0.8330  1.7448  0.2321
12392TIP3    H258668   2.134   1.126  13.082  1.1962  1.5869 -0.0232
12393TIP3   OH258669   2.294   1.787  44.617 -0.0083 -0.1348  0.1101
12393TIP3    H158670   2.286   1.701  44.576 -1.0958 -0.2769  0.5818
12393TIP3    H258671   2.387   1.810  44.608  0.0600 -0.8225 -1.0657
12394TIP3   OH258672   3.611   2.105  13.482 -0.6292 -0.0942 -0.0352
12394TIP3    H158673   3.606   2.011  13.466  1.2760 -0.3537  0.5780
12394TIP3    H258674   3.690   2.133  13.436 -0.7706  1.0747  0.3906
12395TIP3   OH258675   4.092   3.270  36.036 -0.1824 -0.2036 -0.7765
12395TIP3    H158676   4.122   3.194  35.986 -0.9815 -0.8534 -0.2969
12395TIP3    H258677   4.068   3.234  36.122  3.0529  1.1197  0.9113
12396TIP3   OH258678   0.710   3.752   7.974 -0.5353  0.5468  0.0273
12396TIP3    H158679   0.746   3.777   7.889  0.4947 -0.1697  0.2365
12396TIP3    H258680   0.768   3.793   8.038  1.0223 -2.0118  0.3754
12397TIP3   OH258681   0.316   0.091  46.820  0.0755  0.2924  0.3120
12397TIP3    H158682   0.241   0.114  46.875 -0.4486  2.5125 -1.1862
12397TIP3    H258683   0.386   0.070  46.882 -1.7981 -2.2689  1.7675
12398TIP3   OH258684   3.509   2.809  47.372 -0.1969  0.0185  0.2069
12398TIP3    H158685   3.499   2.718  47.399  0.7121 -0.0362  0.3918
12398TIP3    H258686   3.422   2.836  47.344 -0.8440 -0.3828  1.7475
12399TIP3   OH258687   3.144   4.086  36.787 -0.3782 -0.6954  0.2843
12399TIP3    H158688   3.077   4.127  36.841 -2.8022 -0.7757 -2.4276
12399TIP3    H258689   3.217   4.147  36.788 -1.0277  0.1237  2.1336
12400TIP3   OH258690   0.075   0.111   1.461 -0.5497 -0.5255 -0.1629
12400TIP3    H158691   0.060   0.198   1.425  1.8968  0.7020  1.4852
12400TIP3    H258692   0.043   0.116   1.552  2.5127 -0.1505  1.0216
12401TIP3   OH258693   1.376   1.893  16.057 -0.3315 -0.2302 -0.3264
12401TIP3    H158694   1.402   1.826  15.994 -0.7160 -0.3763 -0.3341
12401TIP3    H258695   1.391   1.854  16.143 -0.1530 -0.1672 -0.3286
12402TIP3   OH258696   2.209   3.041  45.601 -0.5447  0.1868  0.7576
12402TIP3    H158697   2.161   2.960  45.582 -1.3835  1.1992 -1.8855
12402TIP3    H258698   2.292   3.032  45.554 -0.6610  0.8640  0.4069
12403TIP3   OH258699   1.707   0.026  32.210 -0.0705  0.0263  0.0276
12403TIP3    H158700   1.634   0.026  32.149  1.1849 -2.1047 -1.6118
12403TIP3    H258701   1.740   0.116  32.208 -1.7754  0.6812 -0.2284
12404TIP3   OH258702   2.684   1.964  21.374 -0.7081 -0.9394 -0.0684
12404TIP3    H158703   2.745   1.949  21.447 -0.8942  3.3914  1.2428
12404TIP3    H258704   2.737   1.951  21.296  0.5067 -2.1722  0.9026
12405TIP3   OH258705   1.467   4.000  40.540  0.2057  0.3325 -0.0016
12405TIP3    H158706   1.387   3.966  40.500  0.4250  0.0913 -0.2429
12405TIP3    H258707   1.537   3.948  40.501  0.5161  0.8111 -0.0934
12406TIP3   OH258708   2.122   1.458  42.842  0.2168 -0.1832  0.1962
12406TIP3    H158709   2.138   1.392  42.775  3.3958  0.0620  0.5375
12406TIP3    H258710   2.137   1.541  42.798  0.5853  0.0690  0.7800
12407TIP3   OH258711   1.810   1.284   6.466  0.2473 -0.5421  0.0262
12407TIP3    H158712   1.771   1.371   6.453  1.0272 -0.2578 -0.4707
12407TIP3    H258713   1.854   1.265   6.383 -0.3700 -1.6565 -0.0629
12408TIP3   OH258714   2.401   3.316  42.706  0.4046  0.3068  0.2869
12408TIP3    H158715   2.480   3.367  42.724  0.1159  1.3621 -1.2906
12408TIP3    H258716   2.409   3.290  42.614 -0.9343  0.1577  0.1943
12409TIP3   OH258717   3.737   0.992  15.445  0.0251 -0.0361 -0.0572
12409TIP3    H158718   3.655   1.003  15.492 -1.0392 -1.2279 -1.5386
12409TIP3    H258719   3.777   1.078  15.446 -0.4907  0.2342  1.9912
12410TIP3   OH258720   0.200   0.985  14.976 -0.4583  0.2382  0.0319
12410TIP3    H158721   0.253   0.917  14.935 -0.0550 -0.0280  0.9608
12410TIP3    H258722   0.111   0.968  14.944  0.1509  1.5414 -2.6473
12411TIP3   OH258723   2.143   2.182  42.121  1.0051  0.3445 -0.0881
12411TIP3    H158724   2.158   2.272  42.151  2.2640  0.8888 -2.1295
12411TIP3    H258725   2.124   2.191  42.028  0.5153 -1.4724 -0.1941
12412TIP3   OH258726   0.011   3.910   3.428  0.4616  0.1602  0.3944
12412TIP3    H158727   0.098   3.873   3.442  0.6404 -0.0233 -1.0522
12412TIP3    H258728   0.007   3.928   3.334 -0.8984  0.5960  0.5096
12413TIP3   OH258729   0.712   1.527   7.878  0.3947  0.1213 -0.9256
12413TIP3    H158730   0.709   1.608   7.827 -0.6157 -0.1096 -1.2533
12413TIP3    H258731   0.641   1.474   7.842  1.0876 -0.9379 -0.7539
12414TIP3   OH258732   1.359   2.024  13.069 -0.0288  0.2398 -0.8270
12414TIP3    H158733   1.410   1.962  13.121  2.2560  2.1014 -0.7077
12414TIP3    H258734   1.369   1.994  12.979  2.4959  1.2852 -0.9648
12415TIP3   OH258735   2.030   1.216  38.076 -0.1549 -0.3622  0.1384
12415TIP3    H158736   2.113   1.262  38.068  0.0617 -0.4058  1.7799
12415TIP3    H258737   2.004   1.197  37.986  0.7680  1.1386 -0.4880
12416TIP3   OH258738   1.712   2.856  45.796  0.0245 -0.1969  0.1970
12416TIP3    H158739   1.664   2.783  45.757  0.0367  0.3371 -0.8535
12416TIP3    H258740   1.650   2.928  45.798 -0.3795 -0.5239  2.3671
12417TIP3   OH258741   2.003   2.938  39.964  0.4076  0.3634  0.1704
12417TIP3    H158742   2.034   3.003  40.027  2.0930 -1.6228  1.4972
12417TIP3    H258743   2.070   2.870  39.964 -0.8328 -0.9679 -1.8524
12418TIP3   OH258744   1.285   0.481   9.938  0.1680  0.1354  0.1565
12418TIP3    H158745   1.350   0.423   9.898  1.8552  0.9060  1.6448
12418TIP3    H258746   1.294   0.563   9.891  1.3807  0.7031  1.3174
12419TIP3   OH258747   1.949   2.114  44.982  0.0728 -0.0444  0.0221
12419TIP3    H158748   1.990   2.115  45.069  0.2158 -1.1489 -0.0121
12419TIP3    H258749   1.890   2.039  44.985  0.0959 -0.1020 -0.8415
12420TIP3   OH258750   2.375   0.729   5.291  0.1431  0.1553  0.3964
12420TIP3    H158751   2.437   0.656   5.288  0.8121  0.6732  1.2109
12420TIP3    H258752   2.300   0.694   5.338  0.2630 -0.1447  0.3700
12421TIP3   OH258753   0.545   0.390  26.452  0.5469  0.0554  1.1344
12421TIP3    H158754   0.476   0.391  26.386  0.5349 -1.3368  1.0880
12421TIP3    H258755   0.613   0.448  26.417  0.1710  0.0140  0.3142
12422TIP3   OH258756   0.356   0.676   7.404 -0.1001 -0.5395 -0.5725
12422TIP3    H158757   0.352   0.582   7.390 -0.9206 -0.6208  0.1411
12422TIP3    H258758   0.264   0.704   7.407  0.1331  0.4329 -1.7515
12423TIP3   OH258759   3.505   0.323  34.003  0.1918 -0.0776 -0.0203
12423TIP3    H158760   3.479   0.331  34.094  0.2018 -0.7180  0.0487
12423TIP3    H258761   3.518   0.229  33.990 -2.4265 -0.3605 -1.3770
12424TIP3   OH258762   2.262   3.491  45.383 -0.5862  0.4003  0.5011
12424TIP3    H158763   2.200   3.560  45.405 -1.1475 -0.2162  0.8908
12424TIP3    H258764   2.272   3.441  45.465 -0.0322  0.1385  0.2807
12425TIP3   OH258765   0.232   3.828   3.212  0.0728  0.1945  0.2290
12425TIP3    H158766   0.245   3.819   3.118 -1.7081 -0.0745 -0.0145
12425TIP3    H258767   0.250   3.920   3.230 -0.9624  0.5812 -0.6282
12426TIP3   OH258768   3.962   2.899   0.161 -0.0588  0.0092 -0.0979
12426TIP3    H158769   3.879   2.929   0.124  0.2693  0.4437 -0.4969
12426TIP3    H258770   4.022   2.973   0.149  0.2236 -0.0735  0.7451
12427TIP3   OH258771   2.846   3.778  43.686 -0.0190 -0.2471 -0.2994
12427TIP3    H158772   2.901   3.800  43.610  0.3309 -0.6361 -0.1639
12427TIP3    H258773   2.874   3.690  43.710  0.1400  0.0201  0.5197
12428TIP3   OH258774   1.477   1.344  44.724 -0.3780  0.3998 -0.4082
12428TIP3    H158775   1.471   1.325  44.631  1.1524 -0.6889 -0.3222
12428TIP3    H258776   1.548   1.408  44.732 -0.5582  0.5555 -0.0087
12429TIP3   OH258777   1.907   2.138  21.820 -0.1660  0.0411 -0.0772
12429TIP3    H158778   1.817   2.154  21.791 -0.1688 -0.3221 -0.2728
12429TIP3    H258779   1.939   2.068  21.763  0.5392  0.7648 -0.6041
12430TIP3   OH258780   1.871   0.012  42.263 -0.1673  0.2685 -0.0944
12430TIP3    H158781   1.885  -0.036  42.182  1.6559  0.2628  0.1771
12430TIP3    H258782   1.820  -0.047  42.318 -0.6244 -0.0862 -0.8825
12431TIP3   OH258783   1.995   1.429   1.333 -0.1436  0.1323 -0.4168
12431TIP3    H158784   1.965   1.507   1.286 -0.0292 -0.0090 -0.7185
12431TIP3    H258785   1.952   1.356   1.289  0.1097 -0.0148 -0.4175
12432TIP3   OH258786   1.173   1.213  32.132  0.5212 -0.3790  0.2293
12432TIP3    H158787   1.194   1.231  32.224  0.3249 -1.0869  0.4171
12432TIP3    H258788   1.083   1.246  32.122 -0.1996 -2.0687  0.8272
12433TIP3   OH258789   2.071   2.040   4.551  0.7095  0.6460  0.5913
12433TIP3    H158790   2.080   2.100   4.626  0.0573  3.5967 -1.5302
12433TIP3    H258791   2.126   2.078   4.483  1.3748 -2.0192 -0.4656
12434TIP3   OH258792   3.425   3.396   2.314  0.1330  0.4058  0.2462
12434TIP3    H158793   3.491   3.423   2.250 -0.7798  1.2858 -0.3669
12434TIP3    H258794   3.381   3.478   2.338  0.2969  0.0632  1.8452
12435TIP3   OH258795   1.158   0.927  14.339  0.3913 -0.0317 -0.0168
12435TIP3    H158796   1.178   0.909  14.247 -0.2046 -1.5782  0.1320
12435TIP3    H258797   1.101   0.856  14.366 -1.9883  2.0360  0.7347
12436TIP3   OH258798   2.054   3.489   6.911  0.0875  0.1574 -0.2985
12436TIP3    H158799   2.136   3.477   6.864  0.6716  0.0520  0.7197
12436TIP3    H258800   2.051   3.415   6.972 -1.8276 -1.0937 -1.7942
12437TIP3   OH258801   0.293   2.212  11.441 -0.2599  0.0428 -0.3082
12437TIP3    H158802   0.375   2.172  11.411 -0.5235 -0.8397  0.1314
12437TIP3    H258803   0.319   2.271  11.512  0.1285  0.6514 -0.9455
12438TIP3   OH258804   1.865   0.482   9.142  0.1613 -0.1384  0.0822
12438TIP3    H158805   1.859   0.563   9.090  0.8115  0.9527  1.6174
12438TIP3    H258806   1.788   0.432   9.117 -0.9167  1.5063 -0.0840
12439TIP3   OH258807   1.697   0.384  30.899 -0.3423 -0.0130  0.1593
12439TIP3    H158808   1.650   0.450  30.950 -1.7445 -2.3486  2.1157
12439TIP3    H258809   1.776   0.366  30.950 -0.4930 -0.5647  0.2051
12440TIP3   OH258810   1.502   2.880  35.383  0.8452  0.2637  0.0671
12440TIP3    H158811   1.592   2.848  35.372  1.0448  1.3612 -2.0077
12440TIP3    H258812   1.506   2.972  35.358 -0.6874  0.5916  0.9161
12441TIP3   OH258813   1.383   0.335   8.760 -0.3026 -0.6373 -0.4101
12441TIP3    H158814   1.390   0.429   8.772  1.0943 -0.8918  1.2934
12441TIP3    H258815   1.459   0.312   8.705 -1.5925 -0.6057 -2.2900
12442TIP3   OH258816   0.755   3.684  46.144 -0.1180  0.1633 -0.1363
12442TIP3    H158817   0.846   3.654  46.142 -0.5460 -1.3371  0.7575
12442TIP3    H258818   0.736   3.698  46.237 -0.7410  0.6581 -0.3263
12443TIP3   OH258819   2.915   0.329  32.712  0.7120 -0.5463 -0.7504
12443TIP3    H158820   2.904   0.235  32.698  1.4212 -0.9160  0.8958
12443TIP3    H258821   2.830   0.367  32.689 -0.8962 -2.0800  2.0642
12444TIP3   OH258822   0.417   2.451  46.938  0.1546 -0.1911 -0.0389
12444TIP3    H158823   0.425   2.430  46.845  0.1133 -2.8685  0.4898
12444TIP3    H258824   0.504   2.482  46.963 -0.0661  1.4346 -1.0935
12445TIP3   OH258825   3.448   1.198   3.000 -0.6196  0.2192  0.2333
12445TIP3    H158826   3.529   1.174   2.954 -0.9909 -0.8064  0.0800
12445TIP3    H258827   3.475   1.266   3.062  0.0788  0.9276 -0.8071
12446TIP3   OH258828   3.710   1.742  14.737 -0.5590 -0.4177 -0.1570
12446TIP3    H158829   3.644   1.676  14.761 -0.6718  0.3556  1.8602
12446TIP3    H258830   3.695   1.813  14.799  1.7887  0.0480 -0.0646
12447TIP3   OH258831   1.145   3.097  14.863 -0.3274  0.3499 -0.1026
12447TIP3    H158832   1.220   3.104  14.805  2.0917  1.6651  2.8866
12447TIP3    H258833   1.112   3.187  14.871 -1.0933  0.0719  0.0251
12448TIP3   OH258834   2.148   2.943  47.351  0.1177  0.5437 -0.6175
12448TIP3    H158835   2.212   2.874  47.332 -1.9521 -1.5911 -0.4020
12448TIP3    H258836   2.096   2.906  47.423 -1.5380  2.0449 -0.9977
12449TIP3   OH258837   3.138   3.917   0.507 -0.0825 -0.3311  0.3420
12449TIP3    H158838   3.172   3.870   0.583  0.0388  0.1877  0.6178
12449TIP3    H258839   3.065   3.863   0.476  0.3514 -0.9370  0.3587
12450TIP3   OH258840   3.132   3.030  12.607 -0.0139  0.1289  0.1927
12450TIP3    H158841   3.112   2.941  12.580 -0.2067 -0.4462  2.0871
12450TIP3    H258842   3.089   3.085  12.541 -1.8364 -1.1458  0.2321
12451TIP3   OH258843   3.791   2.114  38.207  0.4136 -0.4218  0.0524
12451TIP3    H158844   3.747   2.109  38.123  2.5722 -0.1134 -1.1645
12451TIP3    H258845   3.826   2.026  38.221 -0.3572 -0.6078  0.8940
12452TIP3   OH258846   3.138   2.054   2.547  0.4334 -0.7648  0.1172
12452TIP3    H158847   3.132   2.092   2.459 -2.7340 -1.2962 -0.0183
12452TIP3    H258848   3.055   2.009   2.559  0.2724  0.1879  3.8204
12453TIP3   OH258849   1.284   3.618  43.197 -0.8730  0.4183 -0.2004
12453TIP3    H158850   1.221   3.561  43.241  0.0006 -0.0599  0.4821
12453TIP3    H258851   1.236   3.699  43.179 -1.8175 -0.1192 -0.1815
12454TIP3   OH258852   0.864   3.425  12.228 -0.3783 -0.5593 -0.2472
12454TIP3    H158853   0.869   3.404  12.134  0.2657 -1.2066 -0.0755
12454TIP3    H258854   0.899   3.347  12.272  0.9070  0.3907  0.4717
12455TIP3   OH258855   4.088   3.661  42.203 -0.7711 -0.3696  0.2295
12455TIP3    H158856   4.110   3.753  42.189  1.6894 -0.5725  2.1450
12455TIP3    H258857   4.033   3.661  42.281  0.5353 -0.5879  1.1828
12456TIP3   OH258858   1.594   0.062   3.621 -0.5030 -0.4189  0.0532
12456TIP3    H158859   1.656   0.101   3.559 -0.3323  0.8640  0.9790
12456TIP3    H258860   1.522   0.031   3.567  0.9409 -2.0178 -1.0708
12457TIP3   OH258861   0.282   2.833   3.740  0.0449  0.4055  0.3375
12457TIP3    H158862   0.191   2.803   3.746  0.0494  0.3762  0.2656
12457TIP3    H258863   0.334   2.753   3.747  0.0469  0.3509 -0.2014
12458TIP3   OH258864   2.581   1.180  36.739 -0.3055  0.1331  0.6582
12458TIP3    H158865   2.670   1.145  36.729  0.1427  0.9189  1.7384
12458TIP3    H258866   2.542   1.169  36.652  0.0616 -2.2692  0.7194
12459TIP3   OH258867   2.629   2.785   6.323  0.3179  0.2361 -0.2958
12459TIP3    H158868   2.704   2.796   6.265 -0.8942 -1.2121 -2.2632
12459TIP3    H258869   2.648   2.704   6.371  0.4463  0.3990 -0.0695
12460TIP3   OH258870   2.303   3.351  39.047  0.2099 -0.4647  0.5240
12460TIP3    H158871   2.267   3.398  38.971  2.3631  1.2698  0.4636
12460TIP3    H258872   2.255   3.387  39.121  1.4232  1.5885  0.4180
12461TIP3   OH258873   1.814   0.929  31.153  0.4665  0.1855 -0.0009
12461TIP3    H158874   1.814   0.927  31.057 -2.3578 -0.4582 -0.0837
12461TIP3    H258875   1.901   0.899  31.178  0.7829 -1.0565 -2.3590
12462TIP3   OH258876   2.023   2.124  10.948 -0.2699  0.0878  0.0488
12462TIP3    H158877   1.977   2.174  10.880 -1.1437 -1.2772 -0.3928
12462TIP3    H258878   2.008   2.174  11.028 -0.1710  1.1246 -0.5520
12463TIP3   OH258879   0.121   3.569  33.185 -0.0629  0.1474  0.0206
12463TIP3    H158880   0.039   3.566  33.136  0.4722 -0.8193 -0.8515
12463TIP3    H258881   0.145   3.662  33.186 -1.3891  0.5057  0.7073
12464TIP3   OH258882   0.784   2.674  38.535  1.0894 -0.4889 -0.5036
12464TIP3    H158883   0.767   2.644  38.446  3.5076 -0.4093 -1.0732
12464TIP3    H258884   0.699   2.670  38.579  0.1869 -2.3265 -2.2681
12465TIP3   OH258885   2.821   3.025  46.340  0.0410 -0.1189  0.1770
12465TIP3    H158886   2.777   2.957  46.391 -3.0570  2.1518  0.8243
12465TIP3    H258887   2.821   3.101  46.397 -0.3903  1.5586 -1.9347
12466TIP3   OH258888   1.931   0.773  33.224  0.4782  0.2413 -0.1221
12466TIP3    H158889   1.858   0.835  33.221  2.2542  2.6330  1.4354
12466TIP3    H258890   1.941   0.743  33.134 -1.8060  0.5514 -0.5397
12467TIP3   OH258891   3.333   3.752   0.729 -0.2566  0.0656  0.2342
12467TIP3    H158892   3.322   3.843   0.757 -1.7734 -0.0337  0.0235
12467TIP3    H258893   3.409   3.755   0.670 -0.8494  1.3764 -0.5125
12468TIP3   OH258894   1.613   1.632  44.385 -0.5041 -0.1938 -0.5481
12468TIP3    H158895   1.677   1.561  44.386 -0.4750 -0.1787  1.2150
12468TIP3    H258896   1.532   1.591  44.415 -0.9915  0.0988 -1.4329
12469TIP3   OH258897   0.885   3.306  28.103  0.2999  1.0118  0.3098
12469TIP3    H158898   0.945   3.346  28.039  0.5670 -1.2224 -0.9493
12469TIP3    H258899   0.799   3.313  28.062  0.3251  0.5022  0.1581
12470TIP3   OH258900   3.838   3.804   9.055  0.1933  0.1060  0.0517
12470TIP3    H158901   3.886   3.871   9.105  0.7657 -0.5087  0.3476
12470TIP3    H258902   3.894   3.786   8.980  0.1627 -0.2240  0.1087
12471TIP3   OH258903   3.783   0.069   8.643  0.0515 -0.3835  0.0173
12471TIP3    H158904   3.727   0.145   8.628  0.6395  0.0145 -0.1678
12471TIP3    H258905   3.731   0.013   8.701 -1.0238 -0.5719 -1.0846
12472TIP3   OH258906   3.415   1.505   6.485  0.2230 -0.2058 -0.7289
12472TIP3    H158907   3.376   1.430   6.529  0.1632  2.2945  4.1217
12472TIP3    H258908   3.343   1.546   6.437 -0.1374 -2.1392 -1.9138
12473TIP3   OH258909   1.470   0.930  39.073  0.3990  0.0039 -0.0871
12473TIP3    H158910   1.379   0.933  39.102  1.0652  0.0839  2.1354
12473TIP3    H258911   1.483   1.012  39.025 -0.7998 -0.2128 -0.8027
12474TIP3   OH258912   2.163   2.343   2.907 -0.8025  0.2199 -0.1515
12474TIP3    H158913   2.200   2.415   2.958 -0.5634 -1.5987  2.4386
12474TIP3    H258914   2.080   2.377   2.874 -0.3452  1.9173  0.3528
12475TIP3   OH258915   0.294   2.257  45.110 -0.0071 -0.5565 -0.1452
12475TIP3    H158916   0.388   2.274  45.110 -0.0902  0.1448 -1.9226
12475TIP3    H258917   0.278   2.209  45.191  1.8384 -0.5102  0.2890
12476TIP3   OH258918   3.494   2.775  12.979 -1.1054 -0.2707  0.1729
12476TIP3    H158919   3.477   2.686  12.949 -1.0917 -0.4684  0.7494
12476TIP3    H258920   3.426   2.792  13.044  0.0066 -0.5557  1.4582
12477TIP3   OH258921   2.461   3.672  43.104  0.2946  0.1947 -0.3775
12477TIP3    H158922   2.535   3.613  43.118  1.5133  1.3186 -1.7861
12477TIP3    H258923   2.403   3.625  43.044  1.1486  0.3061 -1.3168
12478TIP3   OH258924   1.204   1.504  31.350 -0.0955  0.0656  0.3517
12478TIP3    H158925   1.118   1.536  31.378 -0.6493  1.0144 -2.1731
12478TIP3    H258926   1.265   1.570  31.381 -0.5643  0.5868  0.1836
12479TIP3   OH258927   3.538   1.878  47.507  0.1630 -0.3240  0.0125
12479TIP3    H158928   3.494   1.880  47.592  1.5085 -1.0631  0.7444
12479TIP3    H258929   3.527   1.788  47.476 -2.2320  0.4363 -1.6872
12480TIP3   OH258930   2.765   0.655  40.514 -0.6496 -0.5823 -0.0440
12480TIP3    H158931   2.689   0.673  40.569 -0.3622 -0.7504  0.4072
12480TIP3    H258932   2.732   0.592  40.450 -0.6957 -1.2277  0.6066
12481TIP3   OH258933   3.663   0.362  10.074 -0.1861 -0.0604 -0.1288
12481TIP3    H158934   3.607   0.291  10.105 -1.4955  0.5919 -0.8870
12481TIP3    H258935   3.727   0.374  10.144 -1.5845 -0.2075  1.2427
12482TIP3   OH258936   1.085   2.308  40.988  0.3004  0.2750 -0.0643
12482TIP3    H158937   0.992   2.330  40.985  0.4406  1.0217  0.7945
12482TIP3    H258938   1.100   2.258  40.907 -0.8832 -0.0489 -0.0978
12483TIP3   OH258939   2.806   1.289  11.666 -0.3281  0.1927 -0.4729
12483TIP3    H158940   2.759   1.205  11.669 -1.2640  0.7173 -0.0884
12483TIP3    H258941   2.762   1.338  11.597 -0.2152  0.6154 -0.2472
12484TIP3   OH258942   2.475   2.712  46.696  0.6166  0.1831  0.1830
12484TIP3    H158943   2.411   2.752  46.638  0.2143 -2.9279 -1.7651
12484TIP3    H258944   2.426   2.642  46.741  2.2428 -1.2986 -0.2331
12485TIP3   OH258945   3.345   3.807  13.720  0.0593  0.6096  0.2340
12485TIP3    H158946   3.304   3.893  13.722  0.0686  0.7102 -1.6136
12485TIP3    H258947   3.436   3.823  13.744 -0.7180  0.4780  3.7457
12486TIP3   OH258948   0.684   1.099  16.527  0.1122  0.1011  0.1426
12486TIP3    H158949   0.665   1.039  16.599  1.7484 -1.4039 -0.6304
12486TIP3    H258950   0.729   1.172  16.568  0.3133 -0.3688  0.7685
12487TIP3   OH258951   0.143   1.575  35.544 -0.2472  0.2712  0.0082
12487TIP3    H158952   0.154   1.516  35.619 -0.5383  0.5357  0.2646
12487TIP3    H258953   0.095   1.649  35.580  0.6020  0.9238 -0.1899
12488TIP3   OH258954   1.051   1.359  15.316  0.2180 -0.1470  0.0664
12488TIP3    H158955   1.146   1.350  15.320  0.1925 -0.1426  1.0648
12488TIP3    H258956   1.019   1.299  15.384 -0.5589 -1.0341 -1.0377
12489TIP3   OH258957   0.237   2.148  14.870  0.2605  0.1447  0.0853
12489TIP3    H158958   0.295   2.095  14.814  1.1799  0.1637  0.9924
12489TIP3    H258959   0.208   2.087  14.938 -1.6886 -0.1580 -0.9348
12490TIP3   OH258960   3.582   2.916   4.003  0.5226  0.1221  0.2234
12490TIP3    H158961   3.534   2.979   4.057  2.1152  0.9839  0.6895
12490TIP3    H258962   3.626   2.970   3.937  1.2546 -0.5897  0.1133
12491TIP3   OH258963   1.498   0.727   2.967  0.0210 -0.0327  0.0161
12491TIP3    H158964   1.519   0.639   2.937 -2.5240 -1.0819  1.0457
12491TIP3    H258965   1.529   0.730   3.057  0.0997  0.1356 -0.0155
12492TIP3   OH258966   3.063   3.250  46.022 -0.2943  0.3591 -0.2035
12492TIP3    H158967   3.087   3.217  45.935 -0.9142  0.5871 -0.4636
12492TIP3    H258968   2.975   3.216  46.038  0.1942 -0.5031  0.7719
12493TIP3   OH258969   3.376   3.458  33.447  0.1952 -0.0616  0.4081
12493TIP3    H158970   3.312   3.400  33.405 -0.6192  1.3061 -0.2913
12493TIP3    H258971   3.324   3.515  33.504  0.6512  1.5833 -0.7464
12494TIP3   OH258972   3.877   0.352  39.785 -0.8123  0.2549  0.0263
12494TIP3    H158973   3.807   0.295  39.754  0.5123 -0.6713 -1.3636
12494TIP3    H258974   3.876   0.426  39.724 -0.6099  0.2641  0.0332
12495TIP3   OH258975   1.637   4.098  36.810 -0.4303 -0.1135  0.2834
12495TIP3    H158976   1.554   4.069  36.770 -0.4339 -0.9989  0.9134
12495TIP3    H258977   1.622   4.091  36.904 -0.3289  1.7162  0.4693
12496TIP3   OH258978   3.282   0.944  43.849 -0.0428 -0.2892 -0.2678
12496TIP3    H158979   3.290   0.948  43.944 -0.2524 -0.3490 -0.2488
12496TIP3    H258980   3.331   1.020  43.817  1.4426 -1.1817 -0.2016
12497TIP3   OH258981   0.761   2.403  12.538 -0.4702  0.0518  0.0201
12497TIP3    H158982   0.669   2.431  12.536 -0.8969 -1.1250 -3.2156
12497TIP3    H258983   0.778   2.370  12.449  2.7810 -0.8039  0.8236
12498TIP3   OH258984   2.772   1.402  37.768 -0.5911 -0.0358 -0.5989
12498TIP3    H158985   2.744   1.374  37.855 -0.2154  0.1777 -0.4066
12498TIP3    H258986   2.723   1.346  37.708 -0.4664 -0.5424 -0.2376
12499TIP3   OH258987   3.794   1.340  11.015  0.1558  0.3224  0.6040
12499TIP3    H158988   3.757   1.253  11.033  0.0572  0.4340  0.9527
12499TIP3    H258989   3.883   1.336  11.050  0.7020 -0.1342 -0.7410
12500TIP3   OH258990   3.913   1.948   3.667 -0.1284 -0.6013 -0.3242
12500TIP3    H158991   3.929   2.042   3.677 -0.0998 -0.4392 -1.6883
12500TIP3    H258992   4.000   1.909   3.663 -0.1392 -0.5971 -0.5638
12501TIP3   OH258993   0.044   2.829  13.908  0.4099 -0.3475 -0.4492
12501TIP3    H158994   0.037   2.776  13.829  2.5141 -0.4657 -0.6237
12501TIP3    H258995   0.129   2.873  13.899  0.1292  0.6017  1.1690
12502TIP3   OH258996   3.119   1.453  15.438  0.6516  0.2475  0.0140
12502TIP3    H158997   3.197   1.509  15.431 -0.4834  1.7114 -1.9529
12502TIP3    H258998   3.127   1.393  15.364  1.2862 -1.5843  1.4690
12503TIP3   OH258999   3.586   2.509  20.436  0.7273 -0.2873  0.6307
12503TIP3    H159000   3.619   2.566  20.367 -2.0541  0.2373 -0.4135
12503TIP3    H259001   3.603   2.420  20.404 -2.7475 -0.1705 -2.2123
12504TIP3   OH259002   1.558   1.261  32.922 -0.4255 -0.1836 -0.2974
12504TIP3    H159003   1.523   1.186  32.872  1.4766  0.2022 -2.3880
12504TIP3    H259004   1.606   1.221  32.995 -0.7675 -0.9291 -0.4664
12505TIP3   OH259005   3.247   0.108   3.702  0.4241  0.8573 -0.3647
12505TIP3    H159006   3.288   0.161   3.770 -0.4097  2.1907 -0.8575
12505TIP3    H259007   3.177   0.164   3.667 -0.8186 -0.7689 -0.5855
12506TIP3   OH259008   2.400   3.245  15.163  0.0005 -0.0484 -0.2213
12506TIP3    H159009   2.411   3.192  15.084  0.7375 -0.3155  0.0545
12506TIP3    H259010   2.346   3.319  15.134  0.7811  0.1870 -1.1407
12507TIP3   OH259011   1.458   3.244  10.395  0.7426 -0.0618  0.6383
12507TIP3    H159012   1.525   3.309  10.375 -0.2225  0.3011 -1.7829
12507TIP3    H259013   1.499   3.160  10.372  0.5496  0.1293 -0.4967
12508TIP3   OH259014   3.883   1.569   0.661  0.4156  0.2346 -0.0122
12508TIP3    H159015   3.936   1.511   0.714  0.7731  0.1953 -0.4104
12508TIP3    H259016   3.907   1.549   0.571 -2.2733 -1.7737 -0.3988
12509TIP3   OH259017   1.454   0.865  11.342 -0.4858 -0.1703 -0.3967
12509TIP3    H159018   1.361   0.844  11.352 -0.5513  0.4178  0.3121
12509TIP3    H259019   1.499   0.793  11.386 -0.6190 -0.3263 -0.5153
12510TIP3   OH259020   2.292   0.408   2.292 -0.0946 -0.2575 -0.0435
12510TIP3    H159021   2.305   0.313   2.288 -0.6376 -0.3327 -0.1413
12510TIP3    H259022   2.211   0.423   2.243  0.2053  0.3045 -0.3783
12511TIP3   OH259023   2.391   1.602   0.897 -0.0063 -0.0292 -0.0126
12511TIP3    H159024   2.315   1.549   0.873 -0.1005 -1.0457  2.2634
12511TIP3    H259025   2.452   1.591   0.824 -1.0958 -1.1405 -0.7937
12512TIP3   OH259026   0.381   3.714  34.063  0.6822 -0.3771  0.0311
12512TIP3    H159027   0.464   3.678  34.029 -0.9671 -3.0043 -1.5697
12512TIP3    H259028   0.406   3.760  34.143  3.7772 -0.4591 -0.7522
12513TIP3   OH259029   2.139   0.272  42.956 -0.2565  0.6059  0.4596
12513TIP3    H159030   2.202   0.344  42.950  0.1595  0.1936 -0.1588
12513TIP3    H259031   2.092   0.273  42.873 -1.3737  1.1784  1.0853
12514TIP3   OH259032   0.058   2.583  14.282 -0.1249  0.0300 -0.6052
12514TIP3    H159033   0.067   2.536  14.199 -0.1750 -0.6066 -0.2559
12514TIP3    H259034   0.144   2.576  14.323 -0.2537 -0.1244 -0.3598
12515TIP3   OH259035   3.322   0.075  38.006  0.1668 -0.6799 -0.4470
12515TIP3    H159036   3.296  -0.017  38.009  1.2358 -1.0034  2.9964
12515TIP3    H259037   3.393   0.077  37.942  0.6622 -2.4367 -0.0211
12516TIP3   OH259038   1.744   0.544  40.163  0.1578 -0.0372  0.5370
12516TIP3    H159039   1.705   0.615  40.112 -0.6387 -0.1604  0.9521
12516TIP3    H259040   1.732   0.466  40.108  1.7705  0.2527 -0.2830
12517TIP3   OH259041   3.641   1.564   7.538  0.7349  0.6002 -0.1591
12517TIP3    H159042   3.693   1.525   7.609 -0.2761  2.6419  1.8468
12517TIP3    H259043   3.703   1.613   7.486  1.1404  1.4274  1.0601
12518TIP3   OH259044   3.885   3.115  31.330  0.3181 -0.0941  0.2129
12518TIP3    H159045   3.804   3.069  31.309  1.1148 -1.8662  0.7900
12518TIP3    H259046   3.954   3.064  31.287  1.1629  1.2112 -0.0364
12519TIP3   OH259047   0.454   3.025  29.976  0.0681  0.1380 -0.0243
12519TIP3    H159048   0.488   2.935  29.986 -0.3257  0.0406  0.4953
12519TIP3    H259049   0.477   3.068  30.059 -3.5591 -0.7690  1.6522
12520TIP3   OH259050   3.799   3.250  40.000 -0.3099  0.4890 -0.3887
12520TIP3    H159051   3.823   3.250  40.092  1.0409 -1.6867 -0.6661
12520TIP3    H259052   3.706   3.228  39.999 -0.1063 -0.4815  0.4457
12521TIP3   OH259053   0.578   1.483  33.848 -0.2689 -0.0257 -0.3534
12521TIP3    H159054   0.637   1.433  33.790 -1.0587  0.4220 -1.5888
12521TIP3    H259055   0.542   1.418  33.908  1.8586 -0.2332  0.7954
12522TIP3   OH259056   1.585   1.449  15.957 -0.4018 -0.0888  0.1951
12522TIP3    H159057   1.559   1.396  15.881  1.1827 -1.1883  0.3737
12522TIP3    H259058   1.621   1.386  16.019 -0.3452  0.9764  1.2811
12523TIP3   OH259059   2.198   0.402  31.140  0.1626 -0.3928 -0.3585
12523TIP3    H159060   2.238   0.324  31.178 -0.8438 -0.7521  0.0192
12523TIP3    H259061   2.260   0.432  31.074  1.3049 -0.5780  0.6049
12524TIP3   OH259062   3.437   1.292  41.945  0.6691  0.1025 -0.1289
12524TIP3    H159063   3.460   1.385  41.938  0.1074  0.3510  0.9969
12524TIP3    H259064   3.386   1.286  42.026  2.9301 -1.6363  1.2961
12525TIP3   OH259065   2.755   2.214  45.649 -0.0421  0.3616  0.1927
12525TIP3    H159066   2.757   2.302  45.612  1.1945  1.2103  2.0826
12525TIP3    H259067   2.848   2.190  45.658 -0.1429  0.6430  3.4581
12526TIP3   OH259068   2.899   3.586   8.475  0.2717 -0.2900  0.4092
12526TIP3    H159069   2.820   3.615   8.520  0.5301  0.6705  0.2722
12526TIP3    H259070   2.961   3.658   8.487  0.0383  0.4820 -2.3018
12527TIP3   OH259071   1.427   2.580  36.678 -0.0870 -0.2668 -0.3635
12527TIP3    H159072   1.488   2.636  36.630  0.9603 -0.9010  0.1924
12527TIP3    H259073   1.360   2.641  36.711  0.5318  0.5249 -0.5271
12528TIP3   OH259074   1.112   1.826  45.917 -0.6125 -0.1825  0.9314
12528TIP3    H159075   1.189   1.805  45.970 -1.4712  0.9634  2.6915
12528TIP3    H259076   1.145   1.885  45.849  0.4669 -1.5324  0.2228
12529TIP3   OH259077   3.549   1.536   2.455 -0.0909 -0.1176  0.2099
12529TIP3    H159078   3.537   1.456   2.405  0.3299  0.6941 -1.2520
12529TIP3    H259079   3.461   1.563   2.479 -0.2599 -0.8027  0.3830
12530TIP3   OH259080   2.723   3.889  37.521 -0.0633  0.0855 -0.0339
12530TIP3    H159081   2.744   3.861  37.610 -1.4912 -0.6650  0.0961
12530TIP3    H259082   2.721   3.985  37.526 -1.9844  0.0205  1.2205
12531TIP3   OH259083   0.116   1.100  41.063 -0.3254 -0.2449  0.2717
12531TIP3    H159084   0.085   1.169  41.121  1.0019  0.4845  0.1412
12531TIP3    H259085   0.091   1.128  40.975 -0.8022 -0.5062  0.3179
12532TIP3   OH259086   1.543   2.531  35.074 -0.5310  0.0186 -0.4409
12532TIP3    H159087   1.582   2.490  35.151 -3.3884  0.1938  1.2294
12532TIP3    H259088   1.465   2.479  35.056 -0.4054  0.5143 -2.7335
12533TIP3   OH259089   0.619   2.102   8.640  0.2700  0.3448 -0.0925
12533TIP3    H159090   0.593   2.163   8.571  2.1256  1.7874  0.3800
12533TIP3    H259091   0.539   2.056   8.664 -0.9804  1.8362 -1.2426
12534TIP3   OH259092   2.695   1.481  19.964 -0.0954  0.1759 -0.2103
12534TIP3    H159093   2.735   1.494  20.050  0.2380  2.5846 -0.6556
12534TIP3    H259094   2.600   1.485  19.981 -0.1438 -1.6946  0.2968
12535TIP3   OH259095   2.596   3.955  40.653  0.0400 -0.3571 -0.7858
12535TIP3    H159096   2.666   3.913  40.704  0.8727  0.4000 -1.2646
12535TIP3    H259097   2.570   4.030  40.707  0.7335  0.2872 -1.3180
12536TIP3   OH259098   3.278   1.221  47.663 -0.1200 -0.2244  0.9886
12536TIP3    H159099   3.354   1.257  47.709  0.9048 -1.3977  0.2803
12536TIP3    H259100   3.315   1.156  47.602 -1.5767  0.0687 -0.2755
12537TIP3   OH259101   1.833   2.124  17.634  0.7713  0.0526  0.1053
12537TIP3    H159102   1.875   2.205  17.663  0.9777 -0.4461  1.2771
12537TIP3    H259103   1.847   2.063  17.707 -2.0666 -0.1268  0.5894
12538TIP3   OH259104   2.427   2.611  45.469 -0.0483 -0.4763 -0.4226
12538TIP3    H159105   2.505   2.646  45.513 -1.9276  0.4180  2.4948
12538TIP3    H259106   2.382   2.688  45.434 -2.2929 -0.1166  2.7727
12539TIP3   OH259107   3.884   2.882   0.422 -0.4047  0.2233  0.0833
12539TIP3    H159108   3.947   2.899   0.492 -1.1202  1.7527  0.3932
12539TIP3    H259109   3.933   2.898   0.341 -0.1207  0.4395  0.2943
12540TIP3   OH259110   0.221   4.104  33.792  0.1158  0.6041  0.5933
12540TIP3    H159111   0.217   4.185  33.740  0.6832  1.3165  1.6332
12540TIP3    H259112   0.225   4.134  33.882 -2.1348 -0.6302  1.1801
12541TIP3   OH259113   3.354   0.212  11.726 -0.3121 -0.3250  0.1705
12541TIP3    H159114   3.301   0.246  11.654  0.8383  0.5477 -0.3005
12541TIP3    H259115   3.380   0.125  11.698  1.3688  0.5703 -1.1887
12542TIP3   OH259116   0.944   3.899  24.815 -0.2171  0.1590 -0.5901
12542TIP3    H159117   0.879   3.948  24.866 -2.1163 -2.0542 -0.7464
12542TIP3    H259118   0.927   3.924  24.724 -0.1445  0.3329 -0.5590
12543TIP3   OH259119   4.073   3.871   6.707  0.3296 -0.3685 -0.1338
12543TIP3    H159120   4.031   3.956   6.723  0.2243 -0.3237 -0.6098
12543TIP3    H259121   4.121   3.884   6.625  1.3775 -0.3897  0.4661
12544TIP3   OH259122   0.460   3.798  40.727 -0.5386  0.1174  0.4944
12544TIP3    H159123   0.546   3.811  40.766  0.6461 -0.5120 -1.7661
12544TIP3    H259124   0.440   3.706  40.742 -0.6232  0.1530  0.6075
12545TIP3   OH259125   2.228   2.092  15.420  0.4278 -0.3976  0.4765
12545TIP3    H159126   2.191   2.176  15.392  0.8367 -0.4913 -0.3772
12545TIP3    H259127   2.154   2.031  15.418  0.4379 -0.3904 -0.3732
12546TIP3   OH259128   3.295   1.371  33.609 -0.3651  0.4865  0.0722
12546TIP3    H159129   3.203   1.382  33.631 -0.5770 -1.4810  0.3759
12546TIP3    H259130   3.340   1.374  33.694 -0.3978 -0.3969  0.1359
12547TIP3   OH259131   3.190   2.180  31.944  0.0392 -0.1008 -0.2365
12547TIP3    H159132   3.221   2.107  31.892 -1.8831 -0.9226 -0.3240
12547TIP3    H259133   3.222   2.258  31.899 -0.7475 -0.8150 -2.1103
12548TIP3   OH259134   0.711   2.278  13.027 -0.1126  0.3579 -0.2559
12548TIP3    H159135   0.756   2.251  13.107  0.5565 -1.2864 -1.1405
12548TIP3    H259136   0.770   2.343  12.988 -1.0455  2.1512  1.1613
12549TIP3   OH259137   2.822   2.942   4.446 -0.1945  0.1963 -0.0713
12549TIP3    H159138   2.891   2.877   4.429  0.1137  0.5508 -0.1783
12549TIP3    H259139   2.748   2.913   4.392 -0.0572 -0.0656 -0.1215
12550TIP3   OH259140   3.050   1.753  39.947  0.3053 -0.5348  0.2189
12550TIP3    H159141   3.079   1.662  39.953 -1.5424 -1.1364  0.7064
12550TIP3    H259142   3.068   1.790  40.034  0.8585 -0.4841  0.0836
12551TIP3   OH259143   2.388   2.502  12.515 -0.0111 -0.5151 -1.2140
12551TIP3    H159144   2.411   2.520  12.606 -0.4364  1.8061 -1.5212
12551TIP3    H259145   2.469   2.468  12.476  0.5835 -0.1289 -0.3390
12552TIP3   OH259146   1.492   1.932   0.151 -0.2632 -0.5640 -0.1047
12552TIP3    H159147   1.404   1.967   0.139 -0.8755 -1.8620  0.3797
12552TIP3    H259148   1.529   1.984   0.223 -0.1063  0.8805 -1.1934
12553TIP3   OH259149   3.840   1.352  17.620 -0.1346 -0.4045  0.0917
12553TIP3    H159150   3.753   1.384  17.643 -0.1015  0.5654 -0.9947
12553TIP3    H259151   3.872   1.308  17.698 -0.4882  1.6427  1.4565
12554TIP3   OH259152   3.547   1.326  18.683 -0.9574 -0.0264 -0.4113
12554TIP3    H159153   3.553   1.419  18.665  1.5551  0.3315  1.6620
12554TIP3    H259154   3.519   1.321  18.775  1.7015 -1.1221  0.4495
12555TIP3   OH259155   0.859   3.082  31.914  0.2535 -0.2764 -0.3883
12555TIP3    H159156   0.907   3.135  31.851 -0.0956  1.4373  0.7229
12555TIP3    H259157   0.859   2.994  31.876  3.0092 -0.0660 -1.0937
12556TIP3   OH259158   1.120   0.226   2.837  0.3144  0.2700 -0.4534
12556TIP3    H159159   1.130   0.182   2.753 -1.8197 -1.1308 -0.0825
12556TIP3    H259160   1.191   0.191   2.891 -0.0600 -1.1480 -0.8194
12557TIP3   OH259161   3.300   3.729  46.617 -0.0475 -0.5425 -0.2251
12557TIP3    H159162   3.278   3.819  46.596 -2.7926 -1.0199  0.2644
12557TIP3    H259163   3.283   3.680  46.537  1.6381 -0.6601 -0.5604
12558TIP3   OH259164   1.539   2.581  42.866  0.0851 -0.5203 -0.4628
12558TIP3    H159165   1.518   2.555  42.776  0.4296 -3.0918  0.1114
12558TIP3    H259166   1.483   2.657  42.883 -1.9095 -1.5405 -2.0282
12559TIP3   OH259167   0.150   2.496  44.543  0.5569 -0.0619 -0.3295
12559TIP3    H159168   0.180   2.570  44.489  0.3775  0.9678  0.9280
12559TIP3    H259169   0.228   2.468  44.591  0.3608  0.1131  0.0967
12560TIP3   OH259170   3.611   1.247   3.732  0.4314 -0.1147  0.1573
12560TIP3    H159171   3.677   1.313   3.755  0.8217 -0.6023  0.4826
12560TIP3    H259172   3.634   1.171   3.787  0.0105 -0.5273 -0.2284
12561TIP3   OH259173   3.671   4.005  42.980 -0.5967 -0.7321 -0.2316
12561TIP3    H159174   3.705   4.084  43.024 -0.8209  1.3350 -3.4476
12561TIP3    H259175   3.714   3.933  43.025  0.9543  1.2939  1.8058
12562TIP3   OH259176   1.742   2.242  17.898  0.2291  0.5665  0.0303
12562TIP3    H159177   1.693   2.304  17.844 -0.0536  0.5441  0.2621
12562TIP3    H259178   1.692   2.161  17.892  0.6989  0.2974 -0.4300
12563TIP3   OH259179   2.459   1.670  47.380  0.0196 -0.2143 -0.3789
12563TIP3    H159180   2.540   1.713  47.407  0.9784 -1.4492 -1.1889
12563TIP3    H259181   2.467   1.662  47.285  0.5191 -3.3473 -0.1708
12564TIP3   OH259182   0.881   1.596  10.798  0.4089  0.4762 -1.1488
12564TIP3    H159183   0.860   1.509  10.764  0.7208  0.4917 -1.3809
12564TIP3    H259184   0.803   1.648  10.778  1.2638  0.9496 -3.4660
12565TIP3   OH259185   1.154   1.276  15.634 -0.3622 -0.2619  0.1592
12565TIP3    H159186   1.065   1.310  15.649 -0.9844 -1.4102 -0.7914
12565TIP3    H259187   1.209   1.355  15.630 -1.0829  0.4135  2.1888
12566TIP3   OH259188   2.461   3.345   0.081 -0.6735  0.4006  0.1063
12566TIP3    H159189   2.440   3.420   0.137  1.1440  1.8566 -1.0365
12566TIP3    H259190   2.453   3.379  -0.009  0.0963 -0.7815 -0.4368
12567TIP3   OH259191   3.095   2.643   5.182 -0.1332  0.1486 -0.2822
12567TIP3    H159192   3.053   2.561   5.160  0.2254 -0.1082 -0.0332
12567TIP3    H259193   3.031   2.690   5.235 -0.5177  0.2347 -0.8240
12568TIP3   OH259194   2.788   0.951  42.822  0.3819 -0.3054 -0.0201
12568TIP3    H159195   2.754   0.866  42.847 -1.4772  0.0727 -1.0386
12568TIP3    H259196   2.717   1.012  42.843  0.0458  0.4412 -2.8957
12569TIP3   OH259197   3.940   3.701  13.450  0.1063 -0.3110 -0.2392
12569TIP3    H159198   3.992   3.724  13.373 -1.0972  0.2212 -0.9131
12569TIP3    H259199   3.856   3.673  13.415 -1.1405  1.7334  0.9348
12570TIP3   OH259200   1.954   0.538   0.436  0.2576  0.1170  0.7270
12570TIP3    H159201   1.870   0.491   0.442  0.4581 -0.1647  1.5115
12570TIP3    H259202   2.009   0.483   0.381  0.1622 -0.0762  0.8222
12571TIP3   OH259203   0.660   1.364   5.001 -0.0605  0.3333  0.7909
12571TIP3    H159204   0.604   1.423   5.051  0.4308 -0.1450  1.9221
12571TIP3    H259205   0.661   1.403   4.913 -0.5507  1.4564  1.2519
12572TIP3   OH259206   2.748   1.949  32.199  0.3314 -0.5804 -0.0853
12572TIP3    H159207   2.798   1.901  32.133  2.4493  0.0948  0.9304
12572TIP3    H259208   2.777   2.040  32.189 -0.5418 -0.1930  0.7168
12573TIP3   OH259209   4.009   0.175  47.307 -0.0877 -0.0965 -0.0131
12573TIP3    H159210   3.949   0.105  47.283 -0.2435 -0.3003  0.9507
12573TIP3    H259211   4.067   0.137  47.372  0.1460  0.5237  0.1567
12574TIP3   OH259212   2.524   2.437  16.442 -0.1039  0.0077  0.4809
12574TIP3    H159213   2.567   2.370  16.494 -2.7471 -1.4819  0.9033
12574TIP3    H259214   2.490   2.499  16.506 -1.2023 -0.4881  0.4005
12575TIP3   OH259215   2.797   2.979  10.403  0.1677  0.2960 -0.4226
12575TIP3    H159216   2.886   2.959  10.433  0.3724  0.8936 -0.6053
12575TIP3    H259217   2.785   2.924  10.325 -0.3085 -1.1420  0.6233
12576TIP3   OH259218   2.911   2.046  44.097 -0.1112  0.7461 -0.1588
12576TIP3    H159219   2.953   2.096  44.027  2.2764  1.5501  1.6903
12576TIP3    H259220   2.903   2.108  44.169 -0.7917 -0.5095  0.8908
12577TIP3   OH259221   3.640   0.989  47.501  0.0588 -0.6028  0.1642
12577TIP3    H159222   3.706   0.975  47.569  2.2360  1.4833 -1.3726
12577TIP3    H259223   3.672   0.938  47.426  0.7214  1.4473 -1.0207
12578TIP3   OH259224   1.728   1.865  20.497 -0.0273  0.0966 -0.3014
12578TIP3    H159225   1.795   1.830  20.439  1.0596  0.4740  0.6861
12578TIP3    H259226   1.772   1.933  20.548 -1.3291  0.8171 -0.0753
12579TIP3   OH259227   0.531   1.621   6.181 -0.2334  0.3904 -0.1041
12579TIP3    H159228   0.555   1.549   6.123 -1.3107 -1.1130  1.2382
12579TIP3    H259229   0.604   1.628   6.243  0.9284  2.0119 -1.5175
12580TIP3   OH259230   0.923   2.980  45.969  0.1612  0.1277  0.2297
12580TIP3    H159231   0.925   2.894  45.927 -0.8557  0.9208 -1.5830
12580TIP3    H259232   0.830   3.001  45.975  0.4087  1.3063  0.1829
12581TIP3   OH259233   2.455   0.099   6.222  0.2511  0.5968  0.3258
12581TIP3    H159234   2.474   0.102   6.128  0.6218 -0.1339  0.3698
12581TIP3    H259235   2.531   0.054   6.260 -1.2061 -1.8026  0.5934
12582TIP3   OH259236   2.154   2.359  10.640 -0.1893 -0.3013  0.0978
12582TIP3    H159237   2.155   2.283  10.581 -0.7825 -1.3098  1.3494
12582TIP3    H259238   2.192   2.326  10.722  1.9846  1.4544 -0.1186
12583TIP3   OH259239   2.813   2.197  34.950 -0.2951 -0.1729 -0.2496
12583TIP3    H159240   2.760   2.176  34.873 -2.7885  2.4081  0.5664
12583TIP3    H259241   2.840   2.112  34.985  0.2242 -1.4293 -3.4445
12584TIP3   OH259242   0.183   1.710  35.287  0.3192  0.2502  0.0325
12584TIP3    H159243   0.167   1.679  35.376 -2.6913 -1.5107 -0.9650
12584TIP3    H259244   0.137   1.794  35.282  0.4369  0.3199  0.1270
12585TIP3   OH259245   3.899   3.507   6.255  0.3883 -0.1233 -0.5327
12585TIP3    H159246   3.986   3.498   6.293  0.0424  0.2553  0.3727
12585TIP3    H259247   3.913   3.553   6.172  1.1776 -1.1542 -0.9848
12586TIP3   OH259248   0.702   1.430   8.721  0.6922  0.3400 -0.2936
12586TIP3    H159249   0.797   1.425   8.708  0.5190 -0.7847 -1.2749
12586TIP3    H259250   0.666   1.365   8.661 -0.9230  2.7587 -2.1562
12587TIP3   OH259251   3.450   3.104  33.083 -0.6805 -0.1129 -0.2905
12587TIP3    H159252   3.442   3.046  33.008  1.6357  0.2799 -0.8939
12587TIP3    H259253   3.505   3.176  33.053  1.2864 -0.5074  2.0419
12588TIP3   OH259254   3.757   3.504   4.211 -0.0230 -0.6185  0.2013
12588TIP3    H159255   3.705   3.526   4.133  0.1794  0.3546  0.3331
12588TIP3    H259256   3.743   3.577   4.271 -1.4431 -2.0694  1.7473
12589TIP3   OH259257   1.027   2.927  42.856  0.2106 -0.2058 -0.7254
12589TIP3    H159258   1.014   2.848  42.803  1.9375 -0.6029 -0.6058
12589TIP3    H259259   1.089   2.901  42.924 -0.2007  0.9227  0.1172
12590TIP3   OH259260   3.991   3.712   9.327  0.0832 -0.6432 -0.1686
12590TIP3    H159261   3.996   3.626   9.286 -3.0154 -0.0269 -2.1731
12590TIP3    H259262   4.019   3.773   9.259 -1.6023  0.1636 -0.1853
12591TIP3   OH259263   0.537   0.992  35.349 -0.3836 -0.0640  0.1985
12591TIP3    H159264   0.508   1.047  35.422 -2.5227  1.3753 -1.5885
12591TIP3    H259265   0.631   1.011  35.340 -0.5504  1.3725  1.2196
12592TIP3   OH259266   2.048   3.376   8.476  0.0605 -0.5099  1.3847
12592TIP3    H159267   2.119   3.434   8.448  0.4225 -1.1269  1.0086
12592TIP3    H259268   2.012   3.341   8.394 -0.9610  0.1101  1.5402
12593TIP3   OH259269   1.683   2.671  11.645  0.1478 -0.3241  0.2160
12593TIP3    H159270   1.629   2.743  11.613  0.1114 -0.7178 -0.6387
12593TIP3    H259271   1.642   2.593  11.610 -0.2410 -0.8434  1.7448
12594TIP3   OH259272   1.367   2.763   8.078  0.0748  0.2247 -0.0290
12594TIP3    H159273   1.317   2.821   8.135 -0.5501 -0.3097 -0.0218
12594TIP3    H259274   1.425   2.715   8.139  0.0315  0.2798  0.0562
12595TIP3   OH259275   1.541   2.708   1.845  0.6673 -0.3164 -0.3563
12595TIP3    H159276   1.447   2.726   1.841  0.6152 -0.0811  1.4866
12595TIP3    H259277   1.554   2.637   1.783 -0.1300  1.8597 -3.2835
12596TIP3   OH259278   2.485   4.047  33.097  0.6953 -0.3182  0.4696
12596TIP3    H159279   2.501   3.956  33.118 -2.0585 -0.6529  1.4780
12596TIP3    H259280   2.423   4.077  33.163 -0.4381  1.5457 -1.3093
12597TIP3   OH259281   1.454   3.488  39.506 -0.2834 -0.5982  0.4116
12597TIP3    H159282   1.371   3.524  39.538 -1.1383  0.3382 -2.6176
12597TIP3    H259283   1.514   3.562  39.508 -0.0615 -0.7848  0.7421
12598TIP3   OH259284   3.881   0.132  47.701  0.2160 -0.2167  0.2377
12598TIP3    H159285   3.898   0.171  47.786  1.5333 -0.4780  0.1051
12598TIP3    H259286   3.878   0.206  47.640 -0.5455 -0.0472  0.4719
12599TIP3   OH259287   3.543   3.374   0.906 -0.3503 -0.7103  0.6859
12599TIP3    H159288   3.487   3.338   0.837  1.1901  0.3628 -1.2472
12599TIP3    H259289   3.509   3.463   0.920 -1.9836 -1.6006  2.9412
12600TIP3   OH259290   2.398   0.645   7.378  0.2929 -0.0621  0.3241
12600TIP3    H159291   2.363   0.556   7.374 -0.3858  0.2395 -0.6542
12600TIP3    H259292   2.366   0.679   7.462 -0.7518 -0.2102 -0.0026
12601TIP3   OH259293   3.541   0.989   6.726 -0.3078 -0.1863  0.0820
12601TIP3    H159294   3.636   1.001   6.730 -0.5742  2.1326  0.6634
12601TIP3    H259295   3.514   0.984   6.818 -0.7825 -0.7850 -0.0790
12602TIP3   OH259296   3.721   3.247  27.740  0.4662 -0.1032 -0.7219
12602TIP3    H159297   3.680   3.214  27.660  1.8313 -0.5184 -1.2849
12602TIP3    H259298   3.794   3.301  27.709 -1.2471  2.9626  0.1827
12603TIP3   OH259299   0.562   0.778  12.087  0.4541 -0.3406  0.8875
12603TIP3    H159300   0.538   0.708  12.025 -1.2877  0.4885  0.5738
12603TIP3    H259301   0.488   0.781  12.148 -0.7116  2.7459 -0.4738
12604TIP3   OH259302   4.027   2.805  45.826 -0.3777  0.4357  0.5511
12604TIP3    H159303   3.960   2.740  45.843 -0.2383  0.4378  1.1096
12604TIP3    H259304   4.083   2.803  45.903  1.1472 -0.6291 -0.5356
12605TIP3   OH259305   3.235   3.153   0.796 -0.3073  0.0323  0.6625
12605TIP3    H159306   3.166   3.211   0.764  0.6935  0.7800 -0.2116
12605TIP3    H259307   3.264   3.105   0.718 -0.3510 -0.8385  1.1666
12606TIP3   OH259308   2.302   2.759   3.289 -0.0021 -0.0023 -0.0803
12606TIP3    H159309   2.242   2.816   3.338 -2.2058  1.1759 -3.7412
12606TIP3    H259310   2.367   2.819   3.254 -0.1587 -0.3113 -0.9171
12607TIP3   OH259311   1.524   0.141  47.014 -0.1572  0.4460  0.2204
12607TIP3    H159312   1.466   0.073  47.047  1.3749 -0.4705  1.1661
12607TIP3    H259313   1.557   0.185  47.093 -0.6680  1.9120 -0.3546
12608TIP3   OH259314   1.664   0.016  45.129  0.0991  0.2415  0.3117
12608TIP3    H159315   1.672   0.036  45.222 -0.2975 -0.9995  0.6404
12608TIP3    H259316   1.667  -0.080  45.125 -0.9423  0.2281 -0.8419
12609TIP3   OH259317   1.450   0.112  41.940  0.1651  0.0031 -0.0304
12609TIP3    H159318   1.383   0.137  41.877 -0.3756  1.5454  1.1065
12609TIP3    H259319   1.499   0.193  41.956 -0.3597 -0.0798  2.2835
12610TIP3   OH259320   3.713   3.770  25.909  0.2763 -0.4805 -0.3222
12610TIP3    H159321   3.620   3.787  25.894 -0.2859 -1.2945  1.7629
12610TIP3    H259322   3.741   3.721  25.832 -1.6483 -2.2321 -0.0023
12611TIP3   OH259323   3.048   3.570   1.848 -0.6304 -0.4573  0.3918
12611TIP3    H159324   3.038   3.525   1.931 -1.5670 -0.5089  0.2581
12611TIP3    H259325   3.010   3.511   1.783 -1.2589  0.2228  0.1233
12612TIP3   OH259326   2.743   0.212  14.149 -0.1377 -0.0788 -0.1921
12612TIP3    H159327   2.685   0.278  14.112  0.5409  0.0735 -1.0258
12612TIP3    H259328   2.772   0.161  14.073  2.4288  1.1372 -0.1113
12613TIP3   OH259329   1.496   0.909  40.979  0.4273 -0.1754  0.3422
12613TIP3    H159330   1.415   0.870  40.946  1.0673 -3.0738  1.8815
12613TIP3    H259331   1.543   0.938  40.901 -2.4893  2.7651 -0.5595
12614TIP3   OH259332   1.984   3.068  13.765 -0.4485  0.0129  0.4973
12614TIP3    H159333   2.022   3.081  13.678 -1.1602 -1.2055 -0.0129
12614TIP3    H259334   1.964   2.975  13.769 -2.0525  0.3591  1.2907
12615TIP3   OH259335   0.439   2.820   9.703 -0.3315 -0.4061  0.3753
12615TIP3    H159336   0.521   2.771   9.716  0.8029  1.0778 -0.7507
12615TIP3    H259337   0.370   2.757   9.725  1.0592 -2.2228 -0.1442
12616TIP3   OH259338   4.099   1.397  46.012 -0.6812  0.7616  0.1909
12616TIP3    H159339   4.060   1.475  45.972 -2.1635  0.8095  1.6197
12616TIP3    H259340   4.168   1.371  45.951 -2.1867  1.3931 -1.9019
12617TIP3   OH259341   2.485   1.085   7.259  0.3913  0.5216  0.7303
12617TIP3    H159342   2.505   0.999   7.222 -0.5728  0.1537  1.0549
12617TIP3    H259343   2.464   1.139   7.183  0.6362  0.3780  0.5579
12618TIP3   OH259344   1.378   2.332  34.740 -0.0141 -0.3730  0.4592
12618TIP3    H159345   1.337   2.286  34.814 -0.6217 -0.0126  0.3517
12618TIP3    H259346   1.311   2.393  34.710  0.8536  0.7338  0.7256
12619TIP3   OH259347   1.184   2.940  14.113 -0.0464 -0.1533  0.3656
12619TIP3    H159348   1.272   2.946  14.151 -0.3973  0.1088  1.1377
12619TIP3    H259349   1.138   2.878  14.169 -0.0449 -1.1119 -0.6632
12620TIP3   OH259350   2.829   3.189   1.379  0.4152  0.0663  0.0797
12620TIP3    H159351   2.836   3.110   1.326 -1.6185 -0.5664  0.6644
12620TIP3    H259352   2.765   3.243   1.334 -0.9134 -0.2351  1.5376
12621TIP3   OH259353   0.927   3.223   1.690  0.2474  0.4363  0.2212
12621TIP3    H159354   0.957   3.209   1.780  0.6249  1.6559  0.3023
12621TIP3    H259355   1.006   3.251   1.643  0.4127 -1.6709 -0.8865
12622TIP3   OH259356   3.491   3.526  14.259  0.0771 -0.1341 -0.4773
12622TIP3    H159357   3.576   3.484  14.247  0.9238  1.1984  0.5869
12622TIP3    H259358   3.511   3.620  14.263 -1.3693  0.1627  0.3987
12623TIP3   OH259359   0.002   0.241  38.270  0.5315 -0.2645  0.9995
12623TIP3    H159360   0.050   0.245  38.353  2.8474 -1.5971 -0.1632
12623TIP3    H259361   0.017   0.151  38.239 -1.0390 -0.0713 -0.4379
12624TIP3   OH259362   1.364   1.291  37.733  0.1484 -0.1685 -0.0340
12624TIP3    H159363   1.372   1.195  37.739  1.9481  0.0538  2.5839
12624TIP3    H259364   1.451   1.320  37.704 -0.4631  0.7039 -1.0625
12625TIP3   OH259365   2.715   1.202   9.283  0.1717  0.6856 -0.3740
12625TIP3    H159366   2.726   1.285   9.237  1.5984  0.7349 -0.0011
12625TIP3    H259367   2.719   1.225   9.376 -0.4362  0.3216 -0.2536
12626TIP3   OH259368   1.216   0.289  46.090  0.3650  0.4308  0.3424
12626TIP3    H159369   1.257   0.288  46.177 -0.1971  0.9893  0.6294
12626TIP3    H259370   1.250   0.368  46.048 -0.9434  1.3140  0.8701
12627TIP3   OH259371   3.608   2.114  15.093  0.0098  0.0044  0.4423
12627TIP3    H159372   3.556   2.129  15.014 -0.7354  2.4349  1.2878
12627TIP3    H259373   3.553   2.147  15.164  0.6655 -2.1021  2.0058
12628TIP3   OH259374   3.677   0.762  42.403 -0.4588  0.0130  0.2536
12628TIP3    H159375   3.608   0.717  42.354  0.1558 -0.1146 -0.5084
12628TIP3    H259376   3.645   0.763  42.494 -2.5097  1.9676 -0.3992
12629TIP3   OH259377   1.586   1.951  15.668 -0.6685  0.3647 -0.0536
12629TIP3    H159378   1.499   1.916  15.650 -0.8148  0.1875  0.9758
12629TIP3    H259379   1.604   1.926  15.758 -0.7964  2.9303  0.7709
12630TIP3   OH259380   3.441   1.098  33.702 -0.2305  0.0169  0.5938
12630TIP3    H159381   3.363   1.149  33.681 -1.8259 -1.5999  2.1691
12630TIP3    H259382   3.433   1.019  33.649  0.6624  0.0970  0.3241
12631TIP3   OH259383   2.360   2.607  10.798  0.6373 -0.5201  0.2866
12631TIP3    H159384   2.300   2.619  10.724  0.0640 -0.9414  0.6687
12631TIP3    H259385   2.441   2.650  10.771 -0.3010  1.4229  0.3574
12632TIP3   OH259386   3.824   2.853  41.553  0.4238 -0.3097 -0.1400
12632TIP3    H159387   3.906   2.851  41.603 -1.7381 -0.5491  3.8192
12632TIP3    H259388   3.782   2.934  41.579 -1.1413 -0.7493 -1.1365
12633TIP3   OH259389   0.158   3.566   3.995 -0.1180  0.1832  0.4339
12633TIP3    H159390   0.092   3.629   3.968  0.1087 -0.7457 -2.7334
12633TIP3    H259391   0.110   3.501   4.046 -1.1113  0.8784  0.4097
12634TIP3   OH259392   1.229   2.773   3.488 -0.3926 -0.2027  0.1145
12634TIP3    H159393   1.206   2.849   3.435 -1.6407 -1.1756 -0.8186
12634TIP3    H259394   1.145   2.734   3.512  0.2086 -1.0372  0.9597
12635TIP3   OH259395   2.649   0.366  32.615 -0.4879 -0.0126  0.0404
12635TIP3    H159396   2.610   0.437  32.665 -0.6494  1.4343 -2.0232
12635TIP3    H259397   2.676   0.406  32.532  0.1550 -2.1878 -0.8820
12636TIP3   OH259398   0.263   2.057  16.419 -0.9107 -1.0200 -0.0751
12636TIP3    H159399   0.218   2.031  16.338 -0.7261  0.5593 -0.7363
12636TIP3    H259400   0.223   2.141  16.442  0.4944 -0.4176  0.2784
12637TIP3   OH259401   0.671   2.021  39.375  0.0014 -0.3253 -0.1438
12637TIP3    H159402   0.663   1.928  39.398  0.3291 -0.3719 -0.2256
12637TIP3    H259403   0.631   2.027  39.288 -0.5088 -0.2917  0.0843
12638TIP3   OH259404   3.835   2.418  14.633 -0.0233  0.0128  0.1932
12638TIP3    H159405   3.834   2.357  14.560 -1.1544  0.1738  0.0473
12638TIP3    H259406   3.926   2.424  14.659  0.2603 -0.7928 -0.5813
12639TIP3   OH259407   1.153   0.959  41.580  0.2733 -0.0601  0.0621
12639TIP3    H159408   1.092   1.023  41.545 -0.5918 -1.0289 -0.2255
12639TIP3    H259409   1.189   0.915  41.503  1.3738  0.5147  0.2278
12640TIP3   OH259410   2.472   2.554  45.857 -0.3176 -0.3541  0.0172
12640TIP3    H159411   2.525   2.492  45.907 -1.3479 -1.3783 -0.0948
12640TIP3    H259412   2.483   2.638  45.901  2.6612 -0.1319 -0.9577
12641TIP3   OH259413   1.116   0.356   6.853  0.2817  0.1292 -0.4661
12641TIP3    H159414   1.142   0.418   6.785  0.4966 -0.5776 -1.0359
12641TIP3    H259415   1.131   0.402   6.935  2.8717 -0.0596 -0.7697
12642TIP3   OH259416   3.613   3.105   0.956  0.2713 -0.1570  0.0786
12642TIP3    H159417   3.581   3.184   0.914  2.3086  0.9550  0.4801
12642TIP3    H259418   3.554   3.091   1.030  0.1720  1.3008  0.3017
12643TIP3   OH259419   3.968   2.360  36.881  0.2023  0.0723 -0.8551
12643TIP3    H159420   3.933   2.272  36.867  0.4876 -0.0275 -0.9508
12643TIP3    H259421   4.063   2.348  36.879  0.2568  0.1878  0.3048
12644TIP3   OH259422   1.210   2.111  17.286  0.0888 -0.1017 -0.2994
12644TIP3    H159423   1.297   2.083  17.257  0.2970 -0.3584  0.5591
12644TIP3    H259424   1.226   2.193  17.333  0.0762 -0.8602  1.0972
12645TIP3   OH259425   0.717   2.230  39.790  0.9737  0.4135 -0.5505
12645TIP3    H159426   0.702   2.306  39.733  1.3362  0.1239 -1.0355
12645TIP3    H259427   0.647   2.169  39.766  1.8798 -0.2387 -1.6094
12646TIP3   OH259428   3.614   1.424   7.808  0.2073 -0.7216 -0.1254
12646TIP3    H159429   3.590   1.345   7.858  0.2529 -1.7154 -1.6104
12646TIP3    H259430   3.624   1.492   7.875 -1.4294 -1.5693  1.0613
12647TIP3   OH259431   1.109   3.925  30.299 -0.0835  0.2267  0.2912
12647TIP3    H159432   1.024   3.885  30.317  1.6889 -3.5936  1.3052
12647TIP3    H259433   1.151   3.932  30.385  1.1388  0.7281 -0.3266
12648TIP3   OH259434   1.955   4.016  10.170 -0.7159 -0.4189 -0.3873
12648TIP3    H159435   1.917   3.943  10.219  2.5829  0.2853  3.7675
12648TIP3    H259436   1.895   4.089  10.184 -2.3639 -1.4318 -1.8123
12649TIP3   OH259437   1.039   1.274  37.651  0.0931 -0.0050 -0.2883
12649TIP3    H159438   1.081   1.351  37.691  0.1963 -0.3064  0.1918
12649TIP3    H259439   1.084   1.263  37.568  0.8339 -0.1953  0.1253
12650TIP3   OH259440   2.098   1.027   8.934 -0.1563  0.5326 -0.4364
12650TIP3    H159441   2.024   1.066   8.887 -1.8109 -1.4025  0.4202
12650TIP3    H259442   2.159   1.001   8.865 -0.7661  1.1455 -1.2318
12651TIP3   OH259443   3.274   3.879   2.060  0.2891 -0.4230  0.5072
12651TIP3    H159444   3.369   3.893   2.060 -0.0628  3.0866  0.6126
12651TIP3    H259445   3.251   3.878   1.967  0.0887  3.5951  0.3397
12652TIP3   OH259446   3.553   2.321  46.333 -0.5672  0.3566  0.4443
12652TIP3    H159447   3.617   2.260  46.370 -0.1128  0.1803 -0.5990
12652TIP3    H259448   3.587   2.408  46.353  0.6587  0.2862 -1.1145
12653TIP3   OH259449   4.072   0.573   1.123 -0.2249  0.4187  0.8332
12653TIP3    H159450   4.079   0.606   1.033 -0.2750  2.9182  1.6927
12653TIP3    H259451   4.015   0.496   1.115  1.4310 -0.6981 -1.5330
12654TIP3   OH259452   4.082   0.568   0.578  0.1396 -0.6297 -0.1365
12654TIP3    H159453   4.136   0.597   0.504 -1.1189  0.2487 -0.7303
12654TIP3    H259454   3.994   0.597   0.557 -0.0437  0.8656  2.3705
12655TIP3   OH259455   1.295   4.017   0.254  0.0972  0.1550  0.1659
12655TIP3    H159456   1.286   4.109   0.279  1.5600 -0.2358  2.3772
12655TIP3    H259457   1.246   3.969   0.321  1.8614 -0.7976  0.8446
12656TIP3   OH259458   1.287   2.442   9.751 -0.1048 -0.0697  0.0361
12656TIP3    H159459   1.316   2.461   9.662  1.5300 -1.5866  0.1856
12656TIP3    H259460   1.360   2.392   9.790 -1.2844 -0.5049  1.8131
12657TIP3   OH259461   1.710   1.554   6.457  0.1273 -0.1747  0.0214
12657TIP3    H159462   1.693   1.618   6.527  0.8696 -2.5085  2.5344
12657TIP3    H259463   1.630   1.553   6.405  0.4149  3.3590 -0.7407
12658TIP3   OH259464   1.630   1.341  37.670 -0.1395  0.7195  0.3150
12658TIP3    H159465   1.679   1.357  37.750  1.3806  2.5706 -0.8862
12658TIP3    H259466   1.669   1.400  37.606 -2.7363  0.8901 -1.2521
12659TIP3   OH259467   0.633   4.100  37.742  0.1646  0.1713  0.5325
12659TIP3    H159468   0.660   4.117  37.651  1.9518 -0.5597  0.8855
12659TIP3    H259469   0.634   4.005  37.750  1.1048  0.2412  1.5875
12660TIP3   OH259470   1.290   0.332   1.117  0.1183 -0.1222 -0.2517
12660TIP3    H159471   1.216   0.373   1.163 -0.2597 -0.3727 -0.6288
12660TIP3    H259472   1.266   0.240   1.111  0.8263 -0.3510  0.3144
12661TIP3   OH259473   2.193   0.144   4.339 -0.0808 -0.4260 -0.0166
12661TIP3    H159474   2.102   0.113   4.344 -0.2331 -0.2133 -1.2383
12661TIP3    H259475   2.205   0.169   4.247  0.8245  0.7627  0.4009
12662TIP3   OH259476   3.269   0.225   3.163  0.2489  0.2114  0.2875
12662TIP3    H159477   3.286   0.244   3.255  2.6728 -1.5538  0.3152
12662TIP3    H259478   3.312   0.141   3.148 -1.2228 -0.2099 -2.1646
12663TIP3   OH259479   3.719   3.201   2.531 -0.2626 -0.3392  0.2459
12663TIP3    H159480   3.757   3.208   2.619 -1.4870 -1.1770  0.8704
12663TIP3    H259481   3.747   3.281   2.487 -0.1350  0.3955  1.5950
12664TIP3   OH259482   1.341   2.009  33.833 -0.4372 -0.2896 -0.6077
12664TIP3    H159483   1.338   1.987  33.926 -1.4951  0.2037 -0.5074
12664TIP3    H259484   1.358   2.103  33.830 -1.5921 -0.0707 -0.8591
12665TIP3   OH259485   2.532   1.696  41.329 -0.4541  0.0306  0.1811
12665TIP3    H159486   2.477   1.774  41.329 -2.1978 -1.1271 -0.5273
12665TIP3    H259487   2.484   1.633  41.382  1.4291 -0.2783  1.6171
12666TIP3   OH259488   3.308   2.441  31.921  0.3120 -0.3788 -0.0519
12666TIP3    H159489   3.324   2.436  32.015  2.7878  0.4251 -0.3453
12666TIP3    H259490   3.231   2.497  31.912 -0.3106 -0.9507  1.4931
12667TIP3   OH259491   0.319   3.774  43.282 -0.1859 -0.3404  0.1792
12667TIP3    H159492   0.246   3.742  43.335 -0.1556 -0.2879  0.2521
12667TIP3    H259493   0.358   3.695  43.244 -0.7966 -0.3136 -0.5434
12668TIP3   OH259494   0.852   3.589   3.267 -0.6451  0.2033 -0.0717
12668TIP3    H159495   0.926   3.644   3.240 -1.2214  2.5002  2.4937
12668TIP3    H259496   0.873   3.502   3.235  0.9490  1.6300 -3.3265
12669TIP3   OH259497   0.114   3.568  10.210  0.3060 -0.3045  0.0833
12669TIP3    H159498   0.019   3.569  10.201  0.0576  1.3813  2.1819
12669TIP3    H259499   0.130   3.566  10.304  2.3308  0.3699 -0.1855
12670TIP3   OH259500   3.239   2.840  27.855  0.4346  0.6984  0.5675
12670TIP3    H159501   3.175   2.774  27.882 -0.5235  2.1620  2.0309
12670TIP3    H259502   3.273   2.876  27.937  1.2269  1.7510 -0.1905
12671TIP3   OH259503   2.234   0.467  47.170  0.5475  0.0251  0.1075
12671TIP3    H159504   2.318   0.489  47.210  0.5008  0.5015 -0.0579
12671TIP3    H259505   2.200   0.396  47.225  1.3461 -0.6131 -0.1914
12672TIP3   OH259506   0.577   1.566   5.906  0.2261  0.1348 -0.5126
12672TIP3    H159507   0.646   1.523   5.856  0.5614 -0.3493  0.3359
12672TIP3    H259508   0.584   1.658   5.881  4.1278  0.9935  2.6213
12673TIP3   OH259509   3.414   3.549  42.857 -0.0188  0.4442  0.0179
12673TIP3    H159510   3.368   3.583  42.780 -2.0858 -2.7927 -0.3543
12673TIP3    H259511   3.455   3.468  42.826  2.0799  0.8365  1.5658
12674TIP3   OH259512   1.570   1.236  47.644  0.1717  1.1702 -0.1080
12674TIP3    H159513   1.651   1.224  47.595 -0.3604  0.4255 -0.8357
12674TIP3    H259514   1.508   1.269  47.579 -0.4265  0.5950  0.1661
12675TIP3   OH259515   2.390   1.009  47.379 -0.4405  0.0637  0.0051
12675TIP3    H159516   2.425   1.097  47.368  0.3760 -0.2560 -0.0153
12675TIP3    H259517   2.461   0.959  47.419 -1.1637 -0.3969  0.7510
12676TIP3   OH259518   0.496   4.025   3.951 -0.2474  0.1391  0.0447
12676TIP3    H159519   0.584   4.009   3.917 -0.7605 -1.1529 -0.7526
12676TIP3    H259520   0.457   3.938   3.958 -1.2034  0.6297  1.1316
12677TIP3   OH259521   0.517   2.328  41.853 -0.1099 -0.1167 -0.2724
12677TIP3    H159522   0.542   2.413  41.817  1.2708 -0.4893 -0.2529
12677TIP3    H259523   0.439   2.303  41.805 -0.7090  1.2973 -0.0670
12678TIP3   OH259524   2.602   0.132  13.708 -0.1836  0.0397  0.1127
12678TIP3    H159525   2.646   0.206  13.666  0.8304 -0.8343 -0.4165
12678TIP3    H259526   2.551   0.171  13.779 -0.7358  1.3899 -0.9702
12679TIP3   OH259527   2.876   0.442  13.845 -0.0689 -0.2628  0.3097
12679TIP3    H159528   2.830   0.388  13.781  0.8122  0.6020 -1.1285
12679TIP3    H259529   2.919   0.509  13.792  0.6010  0.5629  1.8453
12680TIP3   OH259530   2.134   1.006  41.853 -0.9622 -0.1751  0.0072
12680TIP3    H159531   2.135   1.099  41.875 -0.1087 -0.0292 -0.6110
12680TIP3    H259532   2.209   0.994  41.796  2.2022 -2.2240  4.0731
12681TIP3   OH259533   2.018   3.722   2.969  0.2672  0.3492  0.2614
12681TIP3    H159534   2.090   3.762   2.921  0.5134  0.6271  0.8498
12681TIP3    H259535   2.007   3.777   3.047 -0.8602  0.5626 -0.0218
12682TIP3   OH259536   3.657   0.669  13.100 -0.0106 -0.1093  0.2152
12682TIP3    H159537   3.699   0.585  13.083 -1.1764 -0.6842  0.0860
12682TIP3    H259538   3.564   0.649  13.107 -0.2237  1.0465  1.0569
12683TIP3   OH259539   3.795   3.373  27.988  0.0321  0.1922  0.4373
12683TIP3    H159540   3.753   3.322  27.919  1.0131  0.9607 -0.7897
12683TIP3    H259541   3.801   3.313  28.062 -1.2555 -0.5904 -0.0626
12684TIP3   OH259542   0.203   0.820   3.556 -0.3042  0.4554  0.4273
12684TIP3    H159543   0.195   0.874   3.634  0.7756  0.7221  0.3731
12684TIP3    H259544   0.285   0.849   3.515  0.3112 -1.2021  0.3928
12685TIP3   OH259545   1.299   1.314   9.351 -0.2622 -0.3394  0.3446
12685TIP3    H159546   1.273   1.311   9.258 -0.0854  2.6550  0.1069
12685TIP3    H259547   1.323   1.224   9.372  2.3574 -0.7344 -3.3273
12686TIP3   OH259548   1.614   1.518  18.223 -0.0252 -0.2205  0.2274
12686TIP3    H159549   1.688   1.560  18.268 -0.5872 -0.3083  1.2811
12686TIP3    H259550   1.639   1.517  18.131  0.2327  1.9863  0.2173
12687TIP3   OH259551   4.103   2.815  39.788  0.0017 -0.0268  0.3378
12687TIP3    H159552   4.103   2.799  39.882  0.4733  1.2092  0.5674
12687TIP3    H259553   4.168   2.754  39.753 -0.0805 -0.3961  0.8252
12688TIP3   OH259554   3.993   0.089  38.584  0.0936 -0.2480 -0.4233
12688TIP3    H159555   4.087   0.072  38.591 -0.1912 -2.1114 -0.5869
12688TIP3    H259556   3.962   0.026  38.519 -1.3672 -0.0485  0.0469
12689TIP3   OH259557   3.166   0.078   9.228 -0.2223  0.6584  0.1259
12689TIP3    H159558   3.152   0.172   9.223 -0.5458  0.5782 -0.6091
12689TIP3    H259559   3.092   0.039   9.182  1.0416  0.1437 -1.6070
12690TIP3   OH259560   3.000   0.247  11.300  0.3263 -0.5457 -0.0771
12690TIP3    H159561   2.918   0.294  11.313 -0.2318 -1.9947  2.2142
12690TIP3    H259562   2.993   0.208  11.213 -0.2125  1.5222 -1.0173
12691TIP3   OH259563   1.446   3.363  37.389 -0.0959 -0.0832 -0.3959
12691TIP3    H159564   1.370   3.368  37.331  0.2683 -1.9822 -1.1022
12691TIP3    H259565   1.511   3.312  37.341  1.5259  1.1716  0.3506
12692TIP3   OH259566   0.900   2.125  37.515  0.7677 -0.2285 -0.1350
12692TIP3    H159567   0.965   2.065  37.551  0.5342  0.6281  1.8097
12692TIP3    H259568   0.837   2.138  37.585 -1.0330 -0.3100 -1.6668
12693TIP3   OH259569   3.638   2.635  44.877  0.1135  0.3598 -0.0623
12693TIP3    H159570   3.692   2.603  44.805  0.9523  0.2554  0.5981
12693TIP3    H259571   3.549   2.609  44.854  0.0607  2.0159 -2.0239
12694TIP3   OH259572   0.520   3.644   0.923 -0.6362  0.0142  0.2121
12694TIP3    H159573   0.437   3.597   0.926 -0.1046 -1.0182 -0.3881
12694TIP3    H259574   0.534   3.664   0.831 -0.0537 -0.1430  0.2616
12695TIP3   OH259575   0.503   1.267  19.926  0.0917  0.1336 -0.4245
12695TIP3    H159576   0.568   1.293  19.861 -0.2097  0.3459 -0.6496
12695TIP3    H259577   0.553   1.249  20.005  0.5578 -0.9335 -0.9439
12696TIP3   OH259578   1.207   2.713  36.142 -0.3202  0.2089  0.0599
12696TIP3    H159579   1.202   2.734  36.235  0.2393  2.2132 -0.3187
12696TIP3    H259580   1.173   2.623  36.136 -1.8958  0.6047  1.9809
12697TIP3   OH259581   1.437   3.990   9.155 -0.1134  0.3587  0.0811
12697TIP3    H159582   1.449   4.002   9.060  0.3926  2.2547  0.3475
12697TIP3    H259583   1.364   4.048   9.177  2.4475  3.3245  1.4707
12698TIP3   OH259584   2.251   2.075  45.622 -0.0273  0.2082  0.0977
12698TIP3    H159585   2.229   2.115  45.706  0.2366  0.6430 -0.0381
12698TIP3    H259586   2.265   1.983  45.642 -0.3226  0.2413  0.4684
12699TIP3   OH259587   2.514   1.553   2.063  0.0275  0.4119 -0.4096
12699TIP3    H159588   2.437   1.506   2.032 -0.1114  0.5116 -0.2147
12699TIP3    H259589   2.514   1.634   2.012 -0.3161  0.6682 -0.0042
12700TIP3   OH259590   2.182   1.143   1.228  0.2261 -0.5750 -0.5750
12700TIP3    H159591   2.148   1.227   1.260  0.4973 -0.9620  0.7759
12700TIP3    H259592   2.107   1.084   1.230 -0.2266 -0.1408 -2.5252
12701TIP3   OH259593   3.905   1.692  16.870 -0.4303  0.0007  0.1007
12701TIP3    H159594   3.922   1.786  16.870 -1.5508  0.2397  1.4677
12701TIP3    H259595   3.858   1.676  16.952 -0.2455 -1.7610 -0.0893
12702TIP3   OH259596   3.493   2.595  36.158 -0.2524 -0.3068 -0.0178
12702TIP3    H159597   3.435   2.570  36.231 -1.5505 -0.5835 -1.1130
12702TIP3    H259598   3.501   2.690  36.166  0.3191 -0.4255  0.9869
12703TIP3   OH259599   2.579   4.107  10.235 -0.5686  0.3440  0.2158
12703TIP3    H159600   2.667   4.069  10.227 -0.5381  0.5916 -0.8282
12703TIP3    H259601   2.544   4.104  10.146 -1.2544  1.1194  0.4515
12704TIP3   OH259602   3.949   1.702  19.244  0.3488  0.1505 -0.1026
12704TIP3    H159603   4.007   1.752  19.301  0.5271  0.1416 -0.2742
12704TIP3    H259604   3.861   1.732  19.267  0.5256  1.5845 -1.1782
12705TIP3   OH259605   3.054   1.049   4.433 -0.1320 -0.0516  0.0926
12705TIP3    H159606   3.014   1.115   4.377  0.7972 -0.5272 -1.1914
12705TIP3    H259607   3.034   1.077   4.522 -1.7024  0.7056 -0.4573
12706TIP3   OH259608   4.058   4.071  31.698  0.4328  0.0515  0.4956
12706TIP3    H159609   4.045   4.092  31.791  1.9468 -0.9099  0.9545
12706TIP3    H259610   4.003   4.134  31.652  2.0935  2.7449  1.9290
12707TIP3   OH259611   2.948   2.540  14.806  0.7420 -0.2484 -0.1693
12707TIP3    H159612   2.895   2.617  14.787 -0.9396 -1.4193 -0.4619
12707TIP3    H259613   2.963   2.499  14.721  0.8888 -0.7043  0.0731
12708TIP3   OH259614   3.792   1.109  13.773  0.1623  0.2081 -0.1192
12708TIP3    H159615   3.841   1.053  13.714  1.4972  1.6404 -0.4500
12708TIP3    H259616   3.805   1.198  13.738  0.0438  0.9678  1.6540
12709TIP3   OH259617   1.156   3.582  11.127 -0.0781 -0.0020  0.1416
12709TIP3    H159618   1.068   3.587  11.163 -0.6155 -0.6539 -1.0096
12709TIP3    H259619   1.166   3.491  11.100  0.8416  0.1241  0.0038
12710TIP3   OH259620   0.141   2.448  31.976  0.1376  0.2704 -0.2497
12710TIP3    H159621   0.136   2.490  32.062 -0.0704 -0.3155  0.0291
12710TIP3    H259622   0.233   2.422  31.967  0.3737  1.1996 -0.6297
12711TIP3   OH259623   0.639   2.645   6.791 -0.1647 -0.1667 -0.0162
12711TIP3    H159624   0.694   2.675   6.864  0.1218 -0.6767 -0.0178
12711TIP3    H259625   0.680   2.683   6.713 -0.5799  0.5348  0.0981
12712TIP3   OH259626   1.063   4.069  44.194  0.2631 -0.2451 -0.0747
12712TIP3    H159627   1.149   4.037  44.222 -0.1703  0.0980  1.8336
12712TIP3    H259628   1.023   3.996  44.148  1.3097 -0.6458 -0.3505
12713TIP3   OH259629   3.570   3.990  25.162  0.3699 -0.9538  0.4791
12713TIP3    H159630   3.503   3.926  25.140 -1.6068  1.2194 -0.2149
12713TIP3    H259631   3.607   4.016  25.078 -0.2528  0.2021  0.5377
12714TIP3   OH259632   2.788   3.000   6.549  0.7327 -0.1568  0.8157
12714TIP3    H159633   2.854   3.061   6.516 -0.1681  1.0781  1.2297
12714TIP3    H259634   2.716   3.006   6.485  0.4535 -0.4378  1.1005
12715TIP3   OH259635   3.578   1.728  41.718 -0.4769  0.0477 -0.3143
12715TIP3    H159636   3.591   1.688  41.803  0.4668  0.2732 -0.3432
12715TIP3    H259637   3.622   1.813  41.724  2.8777 -1.3733 -2.1322
12716TIP3   OH259638   0.135   3.558  36.742 -0.0187 -0.2570  0.0066
12716TIP3    H159639   0.189   3.512  36.806  2.0804  0.0450 -1.4554
12716TIP3    H259640   0.177   3.644  36.732 -1.1606  0.2475 -0.7062
12717TIP3   OH259641   3.304   3.071  47.462  0.2271  0.3584 -0.5189
12717TIP3    H159642   3.293   3.018  47.542 -1.1529  1.0782 -0.2017
12717TIP3    H259643   3.262   3.019  47.394  1.9892 -0.5722 -0.9646
12718TIP3   OH259644   3.482   1.719   0.536  0.0191 -0.3974  0.3855
12718TIP3    H159645   3.444   1.806   0.550 -1.0017 -0.5608 -1.2082
12718TIP3    H259646   3.479   1.678   0.622 -3.1852 -0.2922  0.4181
12719TIP3   OH259647   3.151   2.990  37.391  0.1908  0.2135  0.0112
12719TIP3    H159648   3.123   2.899  37.395  1.9477 -0.3252  3.4112
12719TIP3    H259649   3.072   3.041  37.407 -0.7957 -0.6403 -1.8576
12720TIP3   OH259650   1.497   1.770   8.968  0.7005 -0.5747  0.1993
12720TIP3    H159651   1.586   1.771   9.003  0.7707 -0.2183  0.0215
12720TIP3    H259652   1.501   1.828   8.891  0.3394 -0.6330  0.1334
12721TIP3   OH259653   1.844   3.064  35.897 -0.4073  0.2661 -0.4809
12721TIP3    H159654   1.804   3.150  35.888 -0.1516  0.5398  0.8368
12721TIP3    H259655   1.864   3.037  35.807  1.4115  2.4726 -0.8296
12722TIP3   OH259656   2.162   1.838  14.714 -0.0412  0.4488  0.4737
12722TIP3    H159657   2.181   1.848  14.621  2.2873  2.0243  1.0371
12722TIP3    H259658   2.071   1.865  14.724 -0.6709 -0.7751 -1.4490
12723TIP3   OH259659   1.148   2.959   3.281 -0.0825  0.2568 -0.6660
12723TIP3    H159660   1.219   3.022   3.272 -0.6884  1.4215  1.7992
12723TIP3    H259661   1.068   3.012   3.277 -0.5977 -0.2244  1.6552
12724TIP3   OH259662   1.795   0.907  42.453  0.0829  0.3583 -0.5120
12724TIP3    H159663   1.844   0.948  42.382 -2.2293  0.8641 -1.9360
12724TIP3    H259664   1.775   0.980  42.513 -0.7383  0.5885 -1.0518
12725TIP3   OH259665   1.083   2.664   1.598 -0.0504  0.5917  0.6780
12725TIP3    H159666   1.024   2.719   1.649  0.6387  0.0954  2.0487
12725TIP3    H259667   1.148   2.633   1.661  0.9786  0.1520 -0.5488
12726TIP3   OH259668   2.792   0.710   6.123  0.1050  0.2776 -0.4742
12726TIP3    H159669   2.848   0.679   6.052  0.6256  1.2444 -0.5112
12726TIP3    H259670   2.816   0.803   6.133 -1.1356  0.5842 -0.1588
12727TIP3   OH259671   2.428   0.338   7.635 -0.0659  0.0626  0.2192
12727TIP3    H159672   2.345   0.371   7.670  0.1485 -0.7071  1.5273
12727TIP3    H259673   2.420   0.349   7.541 -0.2866  3.1985  0.4973
12728TIP3   OH259674   3.819   3.797  30.341 -0.2073 -0.5234  0.0377
12728TIP3    H159675   3.771   3.872  30.305  0.7085 -0.0637 -0.2658
12728TIP3    H259676   3.911   3.820  30.330  0.0925 -1.3898  0.5959
12729TIP3   OH259677   0.379   3.878  10.476 -0.2617 -0.2351 -0.1835
12729TIP3    H159678   0.371   3.835  10.391  0.1309  0.3536 -0.5296
12729TIP3    H259679   0.289   3.898  10.501 -0.2937  2.3476 -1.9387
12730TIP3   OH259680   0.130   0.322   3.975 -0.0897  0.3651  0.5082
12730TIP3    H159681   0.154   0.319   4.068 -0.5331  0.3156  0.6257
12730TIP3    H259682   0.213   0.332   3.929  0.2113 -0.4896  0.8595
12731TIP3   OH259683   2.414   3.219  10.992  0.1478  0.3230  0.1617
12731TIP3    H159684   2.326   3.236  10.958  0.3520 -0.5519 -0.8598
12731TIP3    H259685   2.399   3.171  11.073 -0.3307  1.4659  0.7713
12732TIP3   OH259686   3.463   3.202  44.237  0.0247  0.8511 -0.8591
12732TIP3    H159687   3.512   3.192  44.155  2.2157 -0.3471  0.5047
12732TIP3    H259688   3.515   3.262  44.289 -1.0191  1.0997 -0.0613
12733TIP3   OH259689   1.656   2.033  15.122  0.0026 -0.0563 -0.0886
12733TIP3    H159690   1.728   2.094  15.139 -0.9422  1.0805 -0.0429
12733TIP3    H259691   1.634   1.997  15.208  0.2799 -0.1282 -0.0485
12734TIP3   OH259692   1.112   1.520  19.158 -0.1509  0.0665 -0.2728
12734TIP3    H159693   1.194   1.474  19.170 -0.5932 -0.8050 -0.5413
12734TIP3    H259694   1.134   1.613  19.172  1.0141 -0.0782 -1.0566
12735TIP3   OH259695   3.577   3.991   1.402 -0.8726  0.0797  0.5137
12735TIP3    H159696   3.583   3.915   1.345 -1.1294  0.6056 -0.2194
12735TIP3    H259697   3.657   4.041   1.384 -1.2173  0.5254  0.2061
12736TIP3   OH259698   0.872   1.941  35.697 -0.2731  0.6262  0.2185
12736TIP3    H159699   0.824   1.868  35.657  1.0636 -0.0603 -0.1714
12736TIP3    H259700   0.816   2.017  35.681 -1.0261 -0.0798 -0.6210
12737TIP3   OH259701   2.712   1.760  12.814  0.1625 -0.1549  0.0624
12737TIP3    H159702   2.732   1.780  12.722  1.8182 -0.7490  0.2592
12737TIP3    H259703   2.636   1.702  12.810 -1.4553  1.8788 -0.7591
12738TIP3   OH259704   0.249   2.123  46.351  0.1865 -0.4791 -0.2173
12738TIP3    H159705   0.166   2.161  46.324 -0.5981 -1.0919  1.1915
12738TIP3    H259706   0.300   2.116  46.271 -2.3140 -3.0579 -1.7653
12739TIP3   OH259707   2.873   1.176  33.116 -0.3877 -0.2529  0.1858
12739TIP3    H159708   2.903   1.194  33.027  0.3821 -0.5099  0.3874
12739TIP3    H259709   2.847   1.084  33.115 -0.2029 -0.3070  0.2707
12740TIP3   OH259710   1.965   3.733  35.679 -0.6926 -0.7001  0.6382
12740TIP3    H159711   1.954   3.799  35.747 -1.1190 -0.4831  0.3643
12740TIP3    H259712   1.888   3.677  35.687 -0.9230 -0.4658  0.1106
12741TIP3   OH259713   2.362   1.903   1.283  0.3306 -0.4670  0.3768
12741TIP3    H159714   2.428   1.877   1.219 -0.4973  0.2695 -0.8009
12741TIP3    H259715   2.299   1.831   1.283  0.8344 -0.9248  1.1149
12742TIP3   OH259716   0.942   0.441   6.275  0.6612 -0.3812 -0.7163
12742TIP3    H159717   1.030   0.473   6.297  1.5456 -2.0958 -1.5590
12742TIP3    H259718   0.938   0.355   6.315 -0.8201 -0.1536 -0.3424
12743TIP3   OH259719   0.207   3.360  39.316 -0.1126 -0.1049 -0.1571
12743TIP3    H159720   0.287   3.328  39.274 -1.0546  0.4644 -2.5709
12743TIP3    H259721   0.220   3.454  39.324 -0.6807  0.0491 -0.9437
12744TIP3   OH259722   3.801   3.376  34.747 -0.4588  0.2400 -0.1058
12744TIP3    H159723   3.810   3.329  34.665  0.6044 -2.3424  1.3557
12744TIP3    H259724   3.815   3.468  34.725  0.1802 -0.4217 -2.7027
12745TIP3   OH259725   1.137   1.600   4.155  0.4362 -0.6414 -0.4428
12745TIP3    H159726   1.209   1.637   4.105  1.6033  0.3527  1.8239
12745TIP3    H259727   1.179   1.548   4.224 -1.0541 -1.2694  0.0497
12746TIP3   OH259728   0.708   1.390  13.018  0.4042  0.5402 -0.2754
12746TIP3    H159729   0.776   1.370  13.083 -1.5233 -0.6249  1.5299
12746TIP3    H259730   0.692   1.484  13.028  1.9756  0.9297 -1.0410
12747TIP3   OH259731   2.920   3.440   4.978  0.2671 -0.4023  0.1572
12747TIP3    H159732   2.899   3.517   5.031  0.5583 -0.7581  0.7990
12747TIP3    H259733   2.855   3.441   4.907  0.9336  1.0155 -0.4534
12748TIP3   OH259734   0.744   2.889   9.501  0.2771  0.1673  0.3117
12748TIP3    H159735   0.720   2.815   9.556 -1.2186  1.7007  1.8873
12748TIP3    H259736   0.665   2.910   9.452  0.2859  1.4076  0.7737
12749TIP3   OH259737   3.244   1.416  47.469 -0.1550 -0.6718 -0.3563
12749TIP3    H159738   3.177   1.480  47.492  0.9118  0.1067  0.6945
12749TIP3    H259739   3.249   1.358  47.546  0.9104 -0.2356 -0.0717
12750TIP3   OH259740   0.263   1.220  43.888  0.4706  0.0789 -0.0759
12750TIP3    H159741   0.235   1.278  43.818 -1.0246 -0.7786 -0.2244
12750TIP3    H259742   0.303   1.278  43.953  0.7064  1.0337 -1.0495
12751TIP3   OH259743   4.031   0.844  10.240 -0.2292  0.6222  1.0425
12751TIP3    H159744   4.040   0.759  10.198 -1.0039  0.8640  0.3490
12751TIP3    H259745   4.017   0.824  10.333  0.1512  0.0240  0.9761
12752TIP3   OH259746   0.938   2.907  32.433 -0.2206 -0.3693 -0.5010
12752TIP3    H159747   0.955   2.824  32.478  0.0314 -1.4840 -2.5431
12752TIP3    H259748   0.843   2.912  32.427 -0.2360 -0.5426 -0.4200
12753TIP3   OH259749   0.029   3.284  47.522 -0.1440 -0.0407 -0.8277
12753TIP3    H159750   0.079   3.360  47.550  0.9648 -1.2916  0.7883
12753TIP3    H259751   0.062   3.264  47.434 -0.2432  1.1377 -1.1489
12754TIP3   OH259752   1.965   2.697  47.032 -0.3179 -0.6530 -0.4760
12754TIP3    H159753   1.957   2.785  47.070  2.4188 -0.3925 -0.3006
12754TIP3    H259754   1.911   2.642  47.088  2.5241 -0.0540  3.2707
12755TIP3   OH259755   2.782   0.822  43.640 -0.0087  0.1979 -0.0478
12755TIP3    H159756   2.816   0.864  43.561 -1.5006  0.1566 -0.7305
12755TIP3    H259757   2.846   0.846  43.708  2.0926 -0.9426 -1.4989
12756TIP3   OH259758   2.169   1.921  12.234  0.0947 -0.4594 -0.0597
12756TIP3    H159759   2.149   2.011  12.258  0.3697  0.0133 -1.5335
12756TIP3    H259760   2.246   1.928  12.177 -0.2144 -1.5799 -0.6387
12757TIP3   OH259761   3.046   1.246  10.941 -0.3342  0.3233 -0.0365
12757TIP3    H159762   3.037   1.179  11.009 -0.2661  0.3792  0.0277
12757TIP3    H259763   3.117   1.302  10.972  1.0293 -0.7694 -1.0992
12758TIP3   OH259764   2.065   3.464  35.554 -0.0279 -0.1407 -0.9737
12758TIP3    H159765   1.980   3.465  35.597  0.7771  0.5074  0.6797
12758TIP3    H259766   2.069   3.547  35.507 -0.1364  0.0239 -0.6923
12759TIP3   OH259767   2.744   2.511   8.856  0.1810  0.3015 -0.5403
12759TIP3    H159768   2.736   2.602   8.825 -0.8135  0.5446  0.3640
12759TIP3    H259769   2.653   2.485   8.875  0.6970  0.2106  2.2212
12760TIP3   OH259770   3.068   3.964  45.452  0.0795  0.2768 -0.0242
12760TIP3    H159771   3.018   4.015  45.389 -0.8686  0.2440  0.6810
12760TIP3    H259772   3.040   3.996  45.538  0.5080 -0.4528  0.4061
12761TIP3   OH259773   0.276   1.034   1.628  0.0214 -0.1450 -0.3856
12761TIP3    H159774   0.304   1.012   1.716  1.0107 -0.0326 -0.6606
12761TIP3    H259775   0.185   1.006   1.624  0.0848 -0.5109  0.5393
12762TIP3   OH259776   3.651   2.105  35.811 -0.0973  0.1805  0.4004
12762TIP3    H159777   3.733   2.139  35.777 -0.2721  2.4590  2.0416
12762TIP3    H259778   3.672   2.076  35.900 -0.7289 -0.7700  0.2528
12763TIP3   OH259779   2.578   1.242  13.249  0.3778  0.5032 -0.0220
12763TIP3    H159780   2.649   1.220  13.309 -0.1010  0.2221  0.4524
12763TIP3    H259781   2.563   1.336  13.264  0.2488  0.4316  0.3139
12764TIP3   OH259782   3.255   0.592   5.043 -0.1030  0.2611  0.0793
12764TIP3    H159783   3.297   0.521   4.996  1.9136 -1.2799  3.7849
12764TIP3    H259784   3.307   0.670   5.022 -0.5722  0.1092 -1.7759
12765TIP3   OH259785   1.224   0.363  10.393  0.3613  0.4846  0.5708
12765TIP3    H159786   1.241   0.270  10.378 -2.0235  0.1315 -0.3695
12765TIP3    H259787   1.239   0.403  10.307 -3.1976  0.1119 -0.4045
12766TIP3   OH259788   1.790   1.905  19.168  0.1669 -0.2199  0.1259
12766TIP3    H159789   1.761   1.882  19.256  3.1960  0.3325  1.3852
12766TIP3    H259790   1.791   2.001  19.168  0.7926 -0.2209 -0.2600
12767TIP3   OH259791   2.964   1.250  41.661  0.0869  0.2680  0.2807
12767TIP3    H159792   2.960   1.250  41.565  0.2524  1.4876  0.2618
12767TIP3    H259793   3.051   1.283  41.682 -0.1101  0.4372  0.8562
12768TIP3   OH259794   0.516   2.478   7.743  0.2043  0.5154 -0.4146
12768TIP3    H159795   0.552   2.488   7.831 -0.7319  0.3330  0.0101
12768TIP3    H259796   0.554   2.396   7.711  0.4528  0.5175 -0.1315
12769TIP3   OH259797   3.445   1.303   2.345 -1.1008 -0.3521 -0.2902
12769TIP3    H159798   3.446   1.258   2.429 -0.0181 -2.4142 -1.3208
12769TIP3    H259799   3.367   1.269   2.300 -0.5209 -0.8989 -0.9073
12770TIP3   OH259800   3.234   2.820  41.664  0.0613 -0.1359  0.3863
12770TIP3    H159801   3.330   2.814  41.671  0.2556 -0.4468 -1.7438
12770TIP3    H259802   3.219   2.901  41.616 -0.7113 -0.3604  0.2353
12771TIP3   OH259803   1.221   2.748  35.305 -0.1100 -0.1006  0.0610
12771TIP3    H159804   1.197   2.693  35.379 -0.4780 -0.1973 -0.1233
12771TIP3    H259805   1.316   2.744  35.300 -0.0403  0.3920  0.8990
12772TIP3   OH259806   0.509   4.018  37.106  0.4052  0.6276  0.0366
12772TIP3    H159807   0.477   4.024  37.016 -0.3768  0.8251  0.3176
12772TIP3    H259808   0.494   4.105  37.143  0.6809  0.5345  0.3657
12773TIP3   OH259809   3.513   1.632  44.757 -0.2111  0.1197  0.2425
12773TIP3    H159810   3.575   1.665  44.822 -0.9609  0.1490  0.9701
12773TIP3    H259811   3.427   1.663  44.788 -0.6592 -0.4669 -0.3761
12774TIP3   OH259812   1.562   1.694  19.112 -0.0143  0.2541  0.3591
12774TIP3    H159813   1.651   1.720  19.133 -0.3854  1.0426  0.9985
12774TIP3    H259814   1.515   1.776  19.097  0.2008 -0.1606 -3.6959
12775TIP3   OH259815   2.500   1.341  18.242  0.6907  0.6413 -0.4670
12775TIP3    H159816   2.570   1.401  18.266 -1.4311  2.8649  0.5084
12775TIP3    H259817   2.419   1.387  18.262 -1.1358 -2.7551  0.8962
12776TIP3   OH259818   2.381   2.127  19.164 -0.3104 -0.1657 -0.7071
12776TIP3    H159819   2.298   2.116  19.210  0.1498 -1.0988 -0.0539
12776TIP3    H259820   2.400   2.221  19.170 -1.3864  0.0792 -1.0107
12777TIP3   OH259821   4.024   1.553  40.861  0.3515  0.2631  0.3514
12777TIP3    H159822   4.055   1.517  40.778  0.5199  0.3026  0.3965
12777TIP3    H259823   4.089   1.526  40.925  0.8517  1.2325  0.2668
12778TIP3   OH259824   1.316   1.682   4.815  0.2822 -0.0436 -0.1796
12778TIP3    H159825   1.406   1.714   4.819  0.9858 -1.9539  0.9431
12778TIP3    H259826   1.318   1.614   4.748  0.3685 -1.8740  1.5842
12779TIP3   OH259827   3.120   1.753  33.567  0.1370  0.0732  0.2359
12779TIP3    H159828   3.032   1.720  33.549  0.3228  0.0570 -0.7151
12779TIP3    H259829   3.122   1.766  33.662 -0.8199 -0.1215  0.2960
12780TIP3   OH259830   2.736   3.423   9.399  0.1090 -0.2251  0.2697
12780TIP3    H159831   2.663   3.482   9.385  0.0960  0.0267  1.3433
12780TIP3    H259832   2.787   3.463   9.469  1.5100 -0.1907 -0.7121
12781TIP3   OH259833   1.974   1.655  34.902 -0.3486 -0.3251  0.0953
12781TIP3    H159834   2.021   1.738  34.904  0.2831 -0.6886  0.8880
12781TIP3    H259835   2.037   1.590  34.932 -1.6583 -0.6426  2.4796
12782TIP3   OH259836   1.513   1.438  38.847  0.1418  0.4253 -0.3163
12782TIP3    H159837   1.561   1.514  38.878  0.6891 -0.6819  1.7455
12782TIP3    H259838   1.438   1.431  38.906 -0.2133 -0.2956 -0.8421
12783TIP3   OH259839   1.398   2.861  13.636 -1.1624  0.0140  0.1842
12783TIP3    H159840   1.319   2.891  13.591 -1.4605 -0.6645  0.2403
12783TIP3    H259841   1.365   2.814  13.713 -0.7401 -0.8869 -0.1667
12784TIP3   OH259842   2.638   0.441  33.110 -0.0693  0.8202  0.0897
12784TIP3    H159843   2.639   0.345  33.115  0.7777  0.7168 -1.3430
12784TIP3    H259844   2.558   0.467  33.156 -0.2000 -0.5531  0.6914
12785TIP3   OH259845   3.001   2.336   6.510 -0.1436 -0.0060 -0.1150
12785TIP3    H159846   3.089   2.350   6.544  0.3909 -1.7436 -0.6561
12785TIP3    H259847   2.944   2.388   6.567  1.2430  1.3745  0.0572
12786TIP3   OH259848   0.857   2.324   0.650  0.7693 -0.1190  0.1989
12786TIP3    H159849   0.854   2.264   0.576 -1.3870 -1.9521  1.6427
12786TIP3    H259850   0.906   2.276   0.718  1.4599  0.9421  0.4831
12787TIP3   OH259851   2.703   2.267  45.297  0.1557  0.3038  0.2304
12787TIP3    H159852   2.614   2.288  45.268 -0.3441 -2.6773 -0.8086
12787TIP3    H259853   2.745   2.232  45.219  3.6148  4.8501 -0.3366
12788TIP3   OH259854   3.092   2.333  13.673 -0.0885 -0.1555 -0.0891
12788TIP3    H159855   3.185   2.325  13.653  0.1452  0.5387  0.6451
12788TIP3    H259856   3.069   2.250  13.716 -0.1655 -0.9083 -1.5436
12789TIP3   OH259857   1.377   2.931  45.358 -0.7035  0.1401 -0.3135
12789TIP3    H159858   1.304   2.969  45.409 -0.5943 -0.0896  0.0154
12789TIP3    H259859   1.396   2.848  45.402 -0.0324  0.3448 -0.2058
12790TIP3   OH259860   3.233   2.601  13.263  0.7428 -0.1083  0.0646
12790TIP3    H159861   3.157   2.574  13.315  0.4619 -0.5584 -0.5670
12790TIP3    H259862   3.304   2.610  13.326 -0.2545  2.1066  0.9869
12791TIP3   OH259863   3.506   2.207  15.583 -0.5546  0.2437 -0.5755
12791TIP3    H159864   3.412   2.202  15.599 -0.7724 -1.0585 -2.0278
12791TIP3    H259865   3.537   2.117  15.594  0.4182  0.5557 -0.6683
12792TIP3   OH259866   2.797   2.773  44.336 -0.2028 -0.1690  0.0954
12792TIP3    H159867   2.888   2.762  44.365 -0.3698  1.7484  1.6070
12792TIP3    H259868   2.745   2.755  44.414 -0.9463  0.9796 -0.1088
12793TIP3   OH259869   3.984   2.848  36.630 -0.4667  0.1707  0.1129
12793TIP3    H159870   3.980   2.944  36.631 -1.0157  0.1561  0.0742
12793TIP3    H259871   4.074   2.827  36.653 -0.4803  0.6916  0.6840
12794TIP3   OH259872   0.324   1.112   0.365 -0.4570  0.2536  0.3720
12794TIP3    H159873   0.367   1.059   0.299  1.3630  0.7480  1.0914
12794TIP3    H259874   0.240   1.069   0.380 -0.0835 -0.9577 -0.8437
12795TIP3   OH259875   3.352   3.111  38.791 -0.0034  0.3450 -0.1821
12795TIP3    H159876   3.310   3.192  38.764 -0.6943  0.2998  0.7338
12795TIP3    H259877   3.339   3.107  38.886  1.7838  0.1646  0.1029
12796TIP3   OH259878   1.549   2.337  35.540 -0.3699 -1.1628  0.2087
12796TIP3    H159879   1.526   2.416  35.589 -0.3387 -0.8935 -0.2063
12796TIP3    H259880   1.498   2.267  35.580 -0.9563 -0.7973  0.1042
12797TIP3   OH259881   0.663   1.173  14.701 -0.2191  1.4418 -0.1671
12797TIP3    H159882   0.576   1.138  14.722  0.1006 -0.1739 -1.3678
12797TIP3    H259883   0.724   1.105  14.730  0.7437  2.8452  1.2810
12798TIP3   OH259884   3.589   4.002  38.152  0.1502 -0.0353 -0.1342
12798TIP3    H159885   3.665   3.956  38.117  0.8354  0.9083  0.0797
12798TIP3    H259886   3.532   3.932  38.184  0.6236 -0.7863 -0.8834
12799TIP3   OH259887   3.272   2.339  47.559  0.2413 -0.1853 -0.0834
12799TIP3    H159888   3.298   2.397  47.487 -0.6472  3.0903  1.9881
12799TIP3    H259889   3.181   2.319  47.541  0.6490 -1.3577 -0.9995
12800TIP3   OH259890   3.825   0.510  37.575 -0.2786 -1.1826  0.1845
12800TIP3    H159891   3.821   0.550  37.662 -1.2643 -3.2943  1.1802
12800TIP3    H259892   3.770   0.567  37.521  0.9958  0.6196  0.6907
12801TIP3   OH259893   1.693   3.027  11.681 -0.1973  0.2936  0.2825
12801TIP3    H159894   1.610   3.017  11.635  0.2324 -0.5541 -0.3513
12801TIP3    H259895   1.759   3.025  11.612  0.3951  0.0693  0.8413
12802TIP3   OH259896   1.351   3.162  15.772  0.2282 -0.4187  0.3608
12802TIP3    H159897   1.429   3.107  15.769  0.1682 -0.4682 -0.5560
12802TIP3    H259898   1.279   3.104  15.748  0.0364 -0.1582  0.3011
12803TIP3   OH259899   0.014   3.370  15.048  0.3840 -0.0654 -0.5837
12803TIP3    H159900  -0.060   3.315  15.022  0.0437 -0.2941  0.7539
12803TIP3    H259901   0.086   3.309  15.064  0.6512  0.0893 -1.1666
12804TIP3   OH259902   2.120   0.915  38.551 -0.0058 -0.2252  0.1406
12804TIP3    H159903   2.044   0.973  38.557  0.2895  0.0206  2.7661
12804TIP3    H259904   2.194   0.975  38.541  0.1956 -0.1363  1.8191
12805TIP3   OH259905   2.261   0.497   1.443  0.0858  0.1260  0.0838
12805TIP3    H159906   2.302   0.565   1.389  1.1933 -1.0606 -0.6250
12805TIP3    H259907   2.312   0.418   1.424 -2.0626 -1.2548 -0.2009
12806TIP3   OH259908   2.099   0.385  13.193 -0.5758 -0.2967 -0.4855
12806TIP3    H159909   2.117   0.316  13.257 -1.3757  0.5011  0.6422
12806TIP3    H259910   2.005   0.379  13.177 -0.5522  0.1708 -0.8250
12807TIP3   OH259911   0.057   3.159  32.803  0.0351 -0.4706  0.6691
12807TIP3    H159912   0.122   3.089  32.809 -0.7886 -1.2794  0.3481
12807TIP3    H259913  -0.013   3.132  32.863 -1.1333 -0.8663 -0.8209
12808TIP3   OH259914   2.752   2.035  46.050  0.2429  0.2526 -0.3728
12808TIP3    H159915   2.747   2.100  45.980  1.3270 -1.7650 -2.4531
12808TIP3    H259916   2.672   1.983  46.041  0.7750 -0.5376 -0.7226
12809TIP3   OH259917   1.766   2.750   5.439 -0.2109  1.0276 -0.8381
12809TIP3    H159918   1.742   2.657   5.439 -0.5769  1.0016  2.2894
12809TIP3    H259919   1.793   2.768   5.349 -1.0271 -1.8496 -1.7763
12810TIP3   OH259920   3.284   2.869  12.370  0.2342  0.5255  0.0526
12810TIP3    H159921   3.343   2.811  12.320 -0.1570  1.4503 -1.5657
12810TIP3    H259922   3.313   2.860  12.460  0.5153 -1.8109 -0.1907
12811TIP3   OH259923   2.899   2.178  38.794 -0.4070 -0.3143  0.2815
12811TIP3    H159924   2.975   2.224  38.830 -0.8143 -0.2597  1.0967
12811TIP3    H259925   2.917   2.086  38.811 -0.9446 -0.2423  1.3548
12812TIP3   OH259926   3.434   2.238  40.110  0.0566 -0.1166 -0.4043
12812TIP3    H159927   3.360   2.232  40.170  1.1321  0.2436  1.0148
12812TIP3    H259928   3.437   2.152  40.067 -2.0398  0.3464 -1.5943
12813TIP3   OH259929   3.435   2.202  41.139  0.4067 -0.0259  0.3655
12813TIP3    H159930   3.350   2.234  41.168  0.5564  1.3232 -0.6507
12813TIP3    H259931   3.423   2.108  41.128 -0.9343  0.1482  0.2766
12814TIP3   OH259932   0.039   2.325  47.046 -0.1715 -0.1582  0.2132
12814TIP3    H159933   0.133   2.311  47.034 -0.1743 -0.6739  0.7589
12814TIP3    H259934  -0.000   2.289  46.966  0.0867 -0.0353  0.0313
12815TIP3   OH259935   4.001   4.049   8.764  0.3109  0.4140  0.2866
12815TIP3    H159936   4.038   4.088   8.843 -0.1237 -0.2935  0.8506
12815TIP3    H259937   3.932   4.109   8.737 -0.3403  0.0666  1.1349
12816TIP3   OH259938   3.306   0.862   1.484  0.5196 -0.0634 -0.3469
12816TIP3    H159939   3.332   0.945   1.524 -0.2570  0.7669 -1.5101
12816TIP3    H259940   3.240   0.826   1.544  2.9404 -1.3705  1.7452
12817TIP3   OH259941   2.492   3.852  38.963 -0.4036  0.1264  0.0822
12817TIP3    H159942   2.413   3.803  38.988 -0.5607  0.1508 -0.3561
12817TIP3    H259943   2.473   3.885  38.875 -0.6007  1.5739  0.6296
12818TIP3   OH259944   3.013   2.352  36.292  0.0011 -0.2059  0.2097
12818TIP3    H159945   3.029   2.303  36.211 -0.5104 -0.2320  0.1224
12818TIP3    H259946   3.011   2.444  36.264  0.2564 -0.1845  0.2601
12819TIP3   OH259947   1.578   0.213  33.771  0.2979 -0.3020 -0.3439
12819TIP3    H159948   1.544   0.253  33.691  1.0033 -0.6788 -0.8428
12819TIP3    H259949   1.501   0.178  33.815 -0.1770  0.5022 -0.5179
12820TIP3   OH259950   0.357   2.126  11.964 -0.6087 -0.2440 -0.0277
12820TIP3    H159951   0.263   2.109  11.964 -0.5974 -0.3383 -0.5553
12820TIP3    H259952   0.374   2.171  12.047 -0.8083 -1.8814  0.9289
12821TIP3   OH259953   1.596   3.455  34.898  0.0674 -0.2273  0.2287
12821TIP3    H159954   1.689   3.474  34.910  0.0375  0.0144  0.0744
12821TIP3    H259955   1.593   3.387  34.831  0.0170  1.4099 -1.4953
12822TIP3   OH259956   2.537   0.942   8.869 -0.2129 -0.5061  0.1860
12822TIP3    H159957   2.480   0.874   8.906 -1.8030  0.4011 -0.4999
12822TIP3    H259958   2.578   0.900   8.793  0.2414 -1.2342  0.8135
12823TIP3   OH259959   3.217   2.579  42.302  0.2824  0.0017 -0.3394
12823TIP3    H159960   3.193   2.516  42.234  0.2735  0.8979 -1.1992
12823TIP3    H259961   3.227   2.662  42.255 -1.2279  0.9971  0.9680
12824TIP3   OH259962   1.302   0.710  38.124 -0.6267 -0.3779 -0.3235
12824TIP3    H159963   1.350   0.777  38.076 -2.8160  2.0504  0.6798
12824TIP3    H259964   1.219   0.751  38.147 -1.0931 -2.6119  2.5036
12825TIP3   OH259965   1.187   1.779  43.155  0.0564  0.2777  0.2836
12825TIP3    H159966   1.233   1.795  43.238  0.5157  0.4938 -0.0071
12825TIP3    H259967   1.113   1.723  43.179  0.9636 -0.8124  0.6459
12826TIP3   OH259968   2.214   3.612  10.414 -0.2851 -0.2228 -0.6303
12826TIP3    H159969   2.227   3.541  10.351  2.0393  0.0619 -0.5471
12826TIP3    H259970   2.223   3.692  10.361 -2.1254  0.0562 -0.5836
12827TIP3   OH259971   2.704   2.168   9.446  0.4504  0.5216 -0.4883
12827TIP3    H159972   2.699   2.254   9.488  0.8458 -0.1880  1.0893
12827TIP3    H259973   2.774   2.123   9.493 -2.6805 -2.2964  1.9347
12828TIP3   OH259974   2.825   0.633  35.409  0.5208 -0.3837 -0.4448
12828TIP3    H159975   2.851   0.599  35.495 -2.5267 -0.4958  0.5304
12828TIP3    H259976   2.854   0.724  35.410  3.3473 -1.1867 -0.6625
12829TIP3   OH259977   3.073   3.727  14.258 -0.0258 -0.4786  0.2652
12829TIP3    H159978   3.070   3.632  14.249  1.4749 -0.6023  0.7147
12829TIP3    H259979   3.154   3.752  14.214 -0.8411  0.7064 -0.6126
12830TIP3   OH259980   1.002   2.335  43.300  0.3991  0.1973 -0.4515
12830TIP3    H159981   1.061   2.272  43.258  0.0504  0.2393 -1.0062
12830TIP3    H259982   0.986   2.402  43.234 -0.7349 -0.1167 -0.5165
12831TIP3   OH259983   3.347   0.408  37.475 -0.2098  0.1754  0.4345
12831TIP3    H159984   3.350   0.322  37.516  0.5153  0.5497  1.2023
12831TIP3    H259985   3.406   0.400  37.400  0.0903  0.0752  0.6763
12832TIP3   OH259986   0.916   0.318  14.682  0.3766 -0.0024  0.0085
12832TIP3    H159987   0.967   0.237  14.681  0.3451 -0.0897 -2.6917
12832TIP3    H259988   0.826   0.289  14.670  0.3314  0.3837 -0.6553
12833TIP3   OH259989   0.549   0.049   1.759  0.1970  0.4673 -0.8330
12833TIP3    H159990   0.631   0.014   1.724  0.4296 -0.2822  0.4012
12833TIP3    H259991   0.574   0.128   1.807  0.5600 -0.8452  1.2798
12834TIP3   OH259992   3.441   3.501  45.317  0.2386  0.3166 -0.3983
12834TIP3    H159993   3.460   3.577  45.262  0.6082  1.4862  1.2683
12834TIP3    H259994   3.390   3.536  45.390  0.6952 -0.9643  0.5764
12835TIP3   OH259995   2.291   3.546  42.885  0.2198 -0.7789 -0.0103
12835TIP3    H159996   2.198   3.569  42.880  0.5660  0.9886  0.9693
12835TIP3    H259997   2.329   3.580  42.804  0.8500  3.0803  1.6920
12836TIP3   OH259998   1.540   0.696   6.947  0.2558  0.2581 -0.3929
12836TIP3    H159999   1.464   0.718   7.000  0.8541  0.0786  0.5522
12836TIP3    H260000   1.503   0.670   6.862 -0.7224  0.2911  0.0147
12837TIP3   OH260001   1.923   2.845  37.222  0.2716  0.0822 -0.1486
12837TIP3    H160002   1.967   2.777  37.272 -2.3552 -0.2237  1.9612
12837TIP3    H260003   1.895   2.909  37.288 -2.6518  0.0593 -1.2328
12838TIP3   OH260004   2.294   2.295  46.832  0.3828 -0.5216  0.7303
12838TIP3    H160005   2.266   2.203  46.836 -1.5063 -0.2394 -2.4789
12838TIP3    H260006   2.217   2.345  46.855  0.6751  0.2551  0.0666
12839TIP3   OH260007   3.237   3.100   4.267 -0.1812  0.5850  0.3255
12839TIP3    H160008   3.276   3.055   4.342 -2.2745 -0.4713  0.8803
12839TIP3    H260009   3.301   3.165   4.241  2.4018 -1.7515  0.4200
12840TIP3   OH260010   2.480   0.961  37.531  0.3239 -0.3335  0.0795
12840TIP3    H160011   2.394   0.918  37.533 -0.0147  0.3470  0.5042
12840TIP3    H260012   2.494   0.981  37.438 -0.1486 -0.1050  0.0556
12841TIP3   OH260013   2.752   0.935  21.153  0.4886 -0.1821  0.2081
12841TIP3    H160014   2.681   0.976  21.202 -0.8908 -0.8159 -1.1633
12841TIP3    H260015   2.762   0.849  21.193 -1.3359 -1.1000 -1.1608
12842TIP3   OH260016   1.735   2.162   5.231  0.0140 -0.3645  0.0219
12842TIP3    H160017   1.716   2.109   5.309 -0.9770 -0.7675 -0.4775
12842TIP3    H260018   1.791   2.106   5.177  1.3532  0.2008  0.7492
12843TIP3   OH260019   0.047   1.124   9.777 -0.1473 -0.3781  0.6240
12843TIP3    H160020   0.084   1.121   9.866  1.5070 -1.8318 -0.0519
12843TIP3    H260021  -0.031   1.068   9.782 -0.7600  0.5185  1.4240
12844TIP3   OH260022   1.364   1.820  45.994 -0.1388  0.3098 -0.4309
12844TIP3    H160023   1.433   1.881  45.969 -0.1071  0.0676 -0.9469
12844TIP3    H260024   1.378   1.806  46.088 -0.1520  1.0875 -0.3024
12845TIP3   OH260025   1.242   1.551  39.998  0.5113  0.1543 -0.1508
12845TIP3    H160026   1.182   1.490  39.953  0.9620  0.3996 -1.1158
12845TIP3    H260027   1.213   1.638  39.969  1.6008  0.2594 -1.0122
12846TIP3   OH260028   0.045   3.613  41.046 -0.4280  0.0789  0.8687
12846TIP3    H160029  -0.041   3.572  41.054 -0.6510  0.0859 -1.0699
12846TIP3    H260030   0.101   3.562  41.106 -2.1122  1.2910  3.6593
12847TIP3   OH260031   0.238   1.265  40.306  0.5094  0.2802 -0.0156
12847TIP3    H160032   0.207   1.266  40.215 -1.1208  2.0665  0.4968
12847TIP3    H260033   0.288   1.347  40.315  1.5842 -0.4053  0.4323
12848TIP3   OH260034   1.286   2.416  17.275  0.4503  0.0192 -0.6978
12848TIP3    H160035   1.371   2.460  17.266 -0.2466  1.3590 -1.0040
12848TIP3    H260036   1.223   2.476  17.235 -0.6904 -0.8195 -0.2286
12849TIP3   OH260037   0.823   2.718  45.872  0.2578  0.0541 -0.4683
12849TIP3    H160038   0.794   2.723  45.781 -0.8570 -0.5279 -0.1634
12849TIP3    H260039   0.884   2.644  45.874  1.1098  0.7186 -0.9329
12850TIP3   OH260040   2.157   0.660  31.412  0.9756  0.4403 -0.3097
12850TIP3    H160041   2.085   0.649  31.474  0.8365 -1.9783 -0.8005
12850TIP3    H260042   2.236   0.655  31.465  0.8328 -0.6814 -0.1768
12851TIP3   OH260043   2.281   2.187   0.238  0.2798 -0.4524 -0.1306
12851TIP3    H160044   2.312   2.259   0.293  0.3386 -0.7052  0.1734
12851TIP3    H260045   2.237   2.128   0.300  0.0047 -0.5464 -0.4173
12852TIP3   OH260046   2.697   3.300  44.950 -0.2132  0.1665 -0.1300
12852TIP3    H160047   2.656   3.312  44.865  1.1562 -0.6986 -0.9529
12852TIP3    H260048   2.791   3.314  44.934  0.2649 -1.5539  0.8660
12853TIP3   OH260049   2.219   3.130  40.039 -0.1415 -0.0877 -0.2485
12853TIP3    H160050   2.258   3.165  40.119 -0.0042 -0.1956 -0.2676
12853TIP3    H260051   2.169   3.203  40.002  1.4734  0.6104 -1.1510
12854TIP3   OH260052   1.089   0.193  11.051 -0.2903  0.1858  0.0461
12854TIP3    H160053   1.084   0.146  10.967 -2.2358 -0.3781  0.4139
12854TIP3    H260054   1.003   0.178  11.091 -0.3199  2.5500  1.0193
12855TIP3   OH260055   1.915   3.661  32.978  0.5164 -0.4656  0.0879
12855TIP3    H160056   1.891   3.710  32.900  0.5023 -0.8993 -0.1814
12855TIP3    H260057   1.837   3.666  33.034  0.0774 -1.2074 -0.4476
12856TIP3   OH260058   2.932   0.300   3.863 -0.0823 -0.0290 -0.9907
12856TIP3    H160059   2.950   0.210   3.891 -0.5500  0.3647  0.6484
12856TIP3    H260060   2.836   0.307   3.864 -0.0698  1.5243  2.5672
12857TIP3   OH260061   1.321   0.748  43.090  0.2472  0.4916  0.4171
12857TIP3    H160062   1.311   0.662  43.131  0.9196  0.4695  0.5346
12857TIP3    H260063   1.391   0.791  43.139  0.4432  0.8081 -0.1295
12858TIP3   OH260064   2.149   0.383  39.206 -0.4099 -0.1979 -0.8698
12858TIP3    H160065   2.236   0.353  39.232 -1.0007 -1.5281 -0.3273
12858TIP3    H260066   2.137   0.465  39.252  0.5019 -0.0827 -0.8302
12859TIP3   OH260067   0.730   3.044   1.617 -0.3268  0.6829 -0.2725
12859TIP3    H160068   0.760   2.976   1.556 -1.0096 -0.4410  0.5866
12859TIP3    H260069   0.804   3.104   1.625 -0.2555  0.9240 -2.2659
12860TIP3   OH260070   2.570   2.222  11.364  0.1124 -0.0886 -0.1796
12860TIP3    H160071   2.482   2.237  11.331 -0.2979 -1.6528  0.1594
12860TIP3    H260072   2.598   2.308  11.396 -1.5601  0.2821  0.3829
12861TIP3   OH260073   1.473   1.339  43.752  0.2418  0.3130  0.0530
12861TIP3    H160074   1.504   1.330  43.842  0.1877 -2.7820 -0.1127
12861TIP3    H260075   1.411   1.267  43.741  0.3318  0.5289 -2.5051
12862TIP3   OH260076   1.210   1.965  44.355 -0.0383  1.0367  0.8308
12862TIP3    H160077   1.214   1.922  44.269 -0.5612  2.2040  0.1823
12862TIP3    H260078   1.290   1.939  44.399 -0.0212 -0.0267  0.1938
12863TIP3   OH260079   2.725   0.513   1.769  1.4001 -0.6628 -0.6968
12863TIP3    H160080   2.716   0.458   1.692 -1.5413  0.3446 -1.2124
12863TIP3    H260081   2.744   0.600   1.735  0.9996 -0.3890 -0.2457
12864TIP3   OH260082   0.297   0.893  10.558  0.2773  0.1960  0.0866
12864TIP3    H160083   0.304   0.798  10.552  0.2534  0.0815  1.6106
12864TIP3    H260084   0.387   0.923  10.574  0.3461  0.4727 -0.7780
12865TIP3   OH260085   2.425   0.749  44.142 -0.0266 -0.2851  0.0617
12865TIP3    H160086   2.506   0.747  44.192 -0.3703  0.2185  0.6588
12865TIP3    H260087   2.432   0.828  44.088 -0.1774 -0.1614  0.2206
12866TIP3   OH260088   0.940   3.326  32.118 -0.3263  0.8825 -0.0676
12866TIP3    H160089   0.943   3.418  32.143 -0.2453  0.7293  0.5163
12866TIP3    H260090   1.031   3.305  32.096 -0.3278  0.9231 -0.1104
12867TIP3   OH260091   3.255   0.993  13.899 -0.2167 -0.5174 -0.3068
12867TIP3    H160092   3.177   1.033  13.863  0.1834  0.2736 -0.3207
12867TIP3    H260093   3.268   0.914  13.848 -0.6004 -0.2754 -0.7826
12868TIP3   OH260094   1.093   0.411  45.780  0.1226  0.0413  0.0131
12868TIP3    H160095   1.116   0.502  45.795 -0.2881 -0.1353  1.9787
12868TIP3    H260096   1.165   0.361  45.819  0.4919 -0.5101 -1.2974
12869TIP3   OH260097   1.263   2.692  15.100 -0.4570  0.5870  0.2992
12869TIP3    H160098   1.301   2.615  15.057 -1.0188 -0.5003  1.6723
12869TIP3    H260099   1.202   2.728  15.035  0.3421  0.3156 -0.6209
12870TIP3   OH260100   3.468   2.648   0.706 -0.1284 -0.2033 -0.2553
12870TIP3    H160101   3.464   2.709   0.632  0.4994 -0.4903 -0.5392
12870TIP3    H260102   3.377   2.639   0.735 -0.1933  1.1807  0.0614
12871TIP3   OH260103   3.933   1.209  44.892  0.1043  0.1248  0.4661
12871TIP3    H160104   3.984   1.288  44.909 -0.9717  0.7663  0.8410
12871TIP3    H260105   3.952   1.186  44.801  0.1653  1.0034  0.2531
12872TIP3   OH260106   1.437   3.166   7.895 -0.1883 -0.1123 -0.4172
12872TIP3    H160107   1.423   3.080   7.855 -1.1232 -0.8692  1.3817
12872TIP3    H260108   1.491   3.147   7.973  0.2830  1.0527 -0.4468
12873TIP3   OH260109   2.470   1.708   5.867 -0.2001  0.2274 -0.3718
12873TIP3    H160110   2.510   1.768   5.804  0.8704  0.5208  0.5570
12873TIP3    H260111   2.541   1.649   5.892  0.3159  2.0175  2.8585
12874TIP3   OH260112   1.918   3.576  41.760  0.2552 -0.2993 -0.0388
12874TIP3    H160113   1.999   3.533  41.733 -0.1931 -0.7125 -0.7528
12874TIP3    H260114   1.866   3.582  41.680 -0.0987  0.6892  0.2451
12875TIP3   OH260115   1.416   1.696  16.685  0.1234 -0.1932  0.5970
12875TIP3    H160116   1.442   1.689  16.777 -0.5292  0.7665  0.8775
12875TIP3    H260117   1.333   1.743  16.688 -1.2739 -2.4650 -0.3252
12876TIP3   OH260118   3.195   0.233  31.289 -0.8506  0.3996  0.0623
12876TIP3    H160119   3.200   0.143  31.321  1.4576  0.4608  0.0542
12876TIP3    H260120   3.129   0.274  31.345 -1.8716 -1.2382  0.1350
12877TIP3   OH260121   0.065   2.506  45.491 -0.4750  0.0279  0.0006
12877TIP3    H160122   0.061   2.601  45.490 -0.3624  0.0308 -1.7674
12877TIP3    H260123   0.078   2.480  45.400 -1.1192 -1.7115  0.3511
12878TIP3   OH260124   1.103   0.200   2.101 -0.7817  0.0620 -0.2609
12878TIP3    H160125   1.009   0.184   2.095 -1.1040  1.6162  0.2319
12878TIP3    H260126   1.111   0.279   2.155  0.7442  0.6418 -1.2610
12879TIP3   OH260127   1.843   2.031  42.922  0.2729  0.7315 -0.1470
12879TIP3    H160128   1.833   1.999  42.833  1.1168  1.4100 -0.5080
12879TIP3    H260129   1.759   2.015  42.964  0.3078 -0.8853 -0.6420
12880TIP3   OH260130   1.719   3.549  13.719  0.3958  0.0964  0.0734
12880TIP3    H160131   1.782   3.586  13.657 -0.0771  0.8925  0.0545
12880TIP3    H260132   1.762   3.557  13.805 -0.3482  2.3097  0.3159
12881TIP3   OH260133   1.092   2.126  38.722 -0.1842 -0.0993  0.2531
12881TIP3    H160134   1.094   2.033  38.699 -0.6337 -0.0653  0.0724
12881TIP3    H260135   1.015   2.135  38.778 -0.0898  0.1502  0.3456
12882TIP3   OH260136   0.207   0.687  37.582 -0.2137 -0.4917 -0.3065
12882TIP3    H160137   0.128   0.668  37.532  0.2620 -2.5554 -0.3595
12882TIP3    H260138   0.278   0.649  37.531  0.8574  1.4013 -0.2936
12883TIP3   OH260139   0.862   3.735  12.942 -0.5664 -0.3388 -0.0988
12883TIP3    H160140   0.889   3.695  13.025 -1.1580  0.8633  0.7055
12883TIP3    H260141   0.942   3.739  12.890  0.2648  0.6828  1.1853
12884TIP3   OH260142   1.730   3.412  10.314 -0.5939  0.1523 -0.5133
12884TIP3    H160143   1.736   3.440  10.405  2.5642 -0.3069 -0.4624
12884TIP3    H260144   1.772   3.482  10.265  1.1826 -1.2687 -1.1313
12885TIP3   OH260145   2.678   2.357  37.397 -0.0996  0.0854  0.1420
12885TIP3    H160146   2.584   2.375  37.399 -0.5639 -2.0430 -0.0653
12885TIP3    H260147   2.691   2.291  37.465  0.9946 -0.6325 -0.7241
12886TIP3   OH260148   3.619   0.651  24.603 -0.2166 -0.0013 -0.6349
12886TIP3    H160149   3.651   0.667  24.692 -0.2443 -0.8516 -0.4596
12886TIP3    H260150   3.536   0.697  24.598  1.1917  2.6557 -1.2471
12887TIP3   OH260151   1.831   0.369   6.057 -0.1139  0.2605 -0.3437
12887TIP3    H160152   1.892   0.441   6.073  2.4457 -1.9673  0.6430
12887TIP3    H260153   1.790   0.354   6.143  0.9709 -0.7838  0.0170
12888TIP3   OH260154   2.147   0.901  10.694  0.1145  0.8946 -0.2942
12888TIP3    H160155   2.195   0.885  10.776 -0.2100 -1.1976 -0.4396
12888TIP3    H260156   2.213   0.892  10.625 -0.1481 -0.4639 -0.4032
12889TIP3   OH260157   1.206   0.283  13.730  0.3916 -0.3058 -1.0890
12889TIP3    H160158   1.225   0.206  13.784 -0.7601 -0.6521 -1.1448
12889TIP3    H260159   1.244   0.356  13.779  0.5035 -0.7707 -0.4618
12890TIP3   OH260160   1.610   2.257   2.822  0.1360  0.6162  0.3488
12890TIP3    H160161   1.666   2.276   2.897  0.2154  2.1432 -0.0677
12890TIP3    H260162   1.525   2.296   2.845  0.2692  1.4497 -0.4832
12891TIP3   OH260163   2.438   1.628  43.183 -0.1562 -0.6913  0.4208
12891TIP3    H160164   2.399   1.652  43.099 -0.2189 -2.2715 -0.0353
12891TIP3    H260165   2.519   1.582  43.160 -0.3844 -1.5228  1.1964
12892TIP3   OH260166   3.421   3.383   7.209 -0.0704  0.1681  0.5041
12892TIP3    H160167   3.443   3.469   7.173  1.9500 -0.8116 -0.7943
12892TIP3    H260168   3.499   3.330   7.194 -1.2526 -1.9194  1.2700
12893TIP3   OH260169   0.954   2.542  17.378  0.0234 -0.8239 -0.2511
12893TIP3    H160170   1.006   2.470  17.413 -0.5615 -0.9957  0.2825
12893TIP3    H260171   0.958   2.530  17.283 -0.6933 -2.0095 -0.1475
12894TIP3   OH260172   3.240   2.934   7.955  0.9995  0.0308 -0.2071
12894TIP3    H160173   3.161   2.963   7.909  1.4177  0.1331 -0.8727
12894TIP3    H260174   3.242   2.839   7.941  0.0675 -0.2428  1.2872
12895TIP3   OH260175   0.658   0.496  35.663 -0.3141  0.2330  0.0586
12895TIP3    H160176   0.720   0.568  35.656  1.6631 -1.4065 -0.0678
12895TIP3    H260177   0.659   0.472  35.756 -0.3976 -0.1032 -0.0273
12896TIP3   OH260178   3.692   2.266  39.320 -0.6490  0.6704  0.0809
12896TIP3    H160179   3.776   2.308  39.338  0.7391 -1.1660 -1.5851
12896TIP3    H260180   3.644   2.271  39.402  2.0933 -0.3924  1.9043
12897TIP3   OH260181   0.778   2.018   7.808  0.5750 -0.7472 -0.0235
12897TIP3    H160182   0.754   2.030   7.900 -0.7745  0.0518 -0.4460
12897TIP3    H260183   0.873   2.013   7.809  0.6271 -0.1004  1.3451
12898TIP3   OH260184   2.557   0.528   2.251  0.0855  0.0670 -0.0767
12898TIP3    H160185   2.490   0.461   2.261 -2.1679  2.1709 -0.2156
12898TIP3    H260186   2.557   0.548   2.157  0.2086  0.7651  0.0702
12899TIP3   OH260187   0.794   4.022   5.869 -0.3421 -0.1908  0.1175
12899TIP3    H160188   0.785   4.106   5.824  3.1501  0.2116 -0.1118
12899TIP3    H260189   0.798   3.957   5.798  0.1448 -0.1400  0.0916
12900TIP3   OH260190   1.785   1.341  41.641  0.1211 -0.6513  0.3080
12900TIP3    H160191   1.728   1.399  41.691 -1.8346 -1.7826 -0.4726
12900TIP3    H260192   1.731   1.312  41.567  1.4209 -2.4877  0.0000
12901TIP3   OH260193   0.984   2.382   8.610  0.1291 -0.6918  0.4779
12901TIP3    H160194   0.924   2.308   8.599 -1.4395  0.8742 -2.7964
12901TIP3    H260195   1.035   2.384   8.529  0.1241  1.7488  0.4674
12902TIP3   OH260196   3.347   0.949  39.145 -0.3610  0.7534 -0.4351
12902TIP3    H160197   3.291   0.927  39.219  1.8876 -1.1915  0.8507
12902TIP3    H260198   3.392   1.029  39.173  0.6247 -0.0779  0.4757
12903TIP3   OH260199   0.195   0.107  26.931 -0.9914 -0.2345 -0.2815
12903TIP3    H160200   0.129   0.074  26.991 -0.5150 -1.3481 -0.3508
12903TIP3    H260201   0.229   0.186  26.974  0.8830 -2.1527  2.0452
12904TIP3   OH260202   0.372   3.751   9.721 -0.1275  0.4680 -0.0471
12904TIP3    H160203   0.463   3.730   9.698 -0.1185  0.2085  0.2116
12904TIP3    H260204   0.331   3.665   9.736 -0.2487  0.6058  0.4427
12905TIP3   OH260205   1.778   2.292   6.835  0.1790  0.2873 -0.3954
12905TIP3    H160206   1.788   2.372   6.784 -0.2908  0.4924 -0.1724
12905TIP3    H260207   1.684   2.285   6.850  0.3619  0.5969  1.0218
12906TIP3   OH260208   0.137   1.685  43.900 -0.3948  0.8214 -0.6152
12906TIP3    H160209   0.094   1.714  43.819  0.8478  0.7493 -1.3263
12906TIP3    H260210   0.106   1.746  43.967  1.2468  3.1509 -1.8414
12907TIP3   OH260211   0.138   1.152  34.670 -0.5557 -0.3199 -0.3086
12907TIP3    H160212   0.205   1.119  34.730 -2.0149 -3.1515 -0.0708
12907TIP3    H260213   0.130   1.245  34.692  1.0328 -0.6073  1.7981
12908TIP3   OH260214   3.346   2.499  45.984 -0.1734 -0.5544 -0.2572
12908TIP3    H160215   3.331   2.416  46.029  1.1957 -1.2899 -1.0812
12908TIP3    H260216   3.326   2.565  46.050 -2.5680 -1.4531  0.0310
12909TIP3   OH260217   0.141   0.988  44.723 -0.3857 -0.6147 -0.0964
12909TIP3    H160218   0.172   1.058  44.666 -0.2260 -1.3264 -0.8892
12909TIP3    H260219   0.219   0.955  44.767 -0.3411 -0.8417 -0.3423
12910TIP3   OH260220   2.223   2.983  31.137  0.1796  0.6143 -0.0704
12910TIP3    H160221   2.152   2.919  31.146  0.9804 -0.1926  0.7602
12910TIP3    H260222   2.303   2.931  31.147  0.8808  1.5693 -0.5931
12911TIP3   OH260223   3.831   1.959  31.805  0.8261 -0.1011 -0.6092
12911TIP3    H160224   3.747   1.919  31.785 -1.3571  3.5481  0.4238
12911TIP3    H260225   3.886   1.937  31.729 -2.1682  0.2390 -3.0980
12912TIP3   OH260226   3.079   1.274   3.020 -0.8122  0.3402 -0.2533
12912TIP3    H160227   3.000   1.272   3.074 -1.0651  1.0466 -0.5830
12912TIP3    H260228   3.151   1.273   3.083 -1.1026  2.6799  0.2093
12913TIP3   OH260229   3.768   0.100  14.064 -0.4741 -0.0586  0.0004
12913TIP3    H160230   3.721   0.021  14.037  0.8880 -1.3387  1.2497
12913TIP3    H260231   3.764   0.100  14.159 -1.7352  2.2349  0.0333
12914TIP3   OH260232   1.541   3.915   5.037  0.0399 -0.3620 -0.0228
12914TIP3    H160233   1.575   3.995   5.078  0.8205 -0.8330  0.2748
12914TIP3    H260234   1.541   3.850   5.108 -1.0626 -0.4991 -0.1347
12915TIP3   OH260235   1.432   3.393  31.370  0.2803  0.2782 -0.2791
12915TIP3    H160236   1.516   3.416  31.409 -0.0057  1.3324 -0.2517
12915TIP3    H260237   1.380   3.357  31.442  0.7379 -0.4977 -0.3251
12916TIP3   OH260238   0.350   1.997  14.652 -0.5829 -0.1579 -0.0170
12916TIP3    H160239   0.334   1.984  14.559  0.0519  0.9526 -0.2991
12916TIP3    H260240   0.441   2.026  14.658 -0.7309  0.1682  0.9023
12917TIP3   OH260241   2.109   0.503  39.933  0.0391 -0.1559  0.0583
12917TIP3    H160242   2.195   0.543  39.919  0.2784 -0.7457 -0.1983
12917TIP3    H260243   2.120   0.451  40.013 -0.7329  1.5509  1.3488
12918TIP3   OH260244   2.312   3.905  38.475 -0.0601 -0.4268  0.4127
12918TIP3    H160245   2.263   3.984  38.452  1.0420 -0.6306 -3.3662
12918TIP3    H260246   2.269   3.835  38.426  1.5295 -1.3282  0.2301
12919TIP3   OH260247   1.171   0.395  38.342 -0.2326 -0.1389  0.4532
12919TIP3    H160248   1.221   0.475  38.351 -1.2775  0.8828 -1.8873
12919TIP3    H260249   1.185   0.368  38.251 -2.5201 -0.7432  0.2109
12920TIP3   OH260250   3.606   1.159  13.549  0.5484 -0.1641  0.0528
12920TIP3    H160251   3.700   1.143  13.548  0.7724  0.7076  2.1800
12920TIP3    H260252   3.595   1.242  13.595 -1.1114  1.5375 -3.1117
12921TIP3   OH260253   3.620   1.797  34.276 -0.0254 -0.3080 -0.0237
12921TIP3    H160254   3.568   1.776  34.354 -0.9137  1.2696 -0.1457
12921TIP3    H260255   3.708   1.812  34.310 -0.5681  1.1418  0.8337
12922TIP3   OH260256   0.495   3.581  25.537  0.4633  0.4454 -0.4435
12922TIP3    H160257   0.547   3.565  25.616 -1.9713  1.6930  1.5486
12922TIP3    H260258   0.549   3.639  25.484  1.1668  1.6781  1.5146
12923TIP3   OH260259   4.101   2.898  35.345 -0.0567 -0.0807  0.0925
12923TIP3    H160260   4.192   2.871  35.334 -0.1275 -0.2799 -0.0127
12923TIP3    H260261   4.105   2.991  35.367  0.1012  0.3366 -1.6045
12924TIP3   OH260262   3.457   2.151  37.467  0.1990  0.2808 -0.3930
12924TIP3    H160263   3.484   2.178  37.379  0.0943  0.5147 -0.3544
12924TIP3    H260264   3.527   2.093  37.496  0.7600  1.0305 -0.2188
12925TIP3   OH260265   0.939   2.182  38.252 -0.0174  0.0828 -0.6575
12925TIP3    H160266   0.844   2.193  38.257 -0.1300 -0.4349 -1.5084
12925TIP3    H260267   0.960   2.126  38.326 -0.3395  0.3737 -0.3383
12926TIP3   OH260268   1.353   0.317  12.855  0.1847 -0.1482  0.6845
12926TIP3    H160269   1.444   0.344  12.842 -0.0581  0.9273  1.1032
12926TIP3    H260270   1.316   0.385  12.912 -1.1227 -0.0646 -0.2179
12927TIP3   OH260271   2.551   1.439   5.930 -0.1452  0.2301 -0.3718
12927TIP3    H160272   2.579   1.348   5.922  0.6278  0.4779 -0.4915
12927TIP3    H260273   2.560   1.459   6.023 -0.9433 -0.0105 -0.2346
12928TIP3   OH260274   0.738   2.707  15.950 -0.3690  0.3197  0.1816
12928TIP3    H160275   0.693   2.736  15.871  0.2552  1.3796  0.1844
12928TIP3    H260276   0.669   2.669  16.005 -0.8168 -0.3621 -0.8301
12929TIP3   OH260277   0.614   0.817  39.809  0.1386  0.0170 -0.3598
12929TIP3    H160278   0.564   0.882  39.858  0.9379 -0.1087  0.6406
12929TIP3    H260279   0.594   0.734  39.853  1.0618 -0.0606 -0.0595
12930TIP3   OH260280   2.242   2.528  36.659 -0.2993 -0.1994 -0.0125
12930TIP3    H160281   2.274   2.440  36.679  1.1890  0.1253 -0.8269
12930TIP3    H260282   2.247   2.574  36.743  0.1274 -0.5391  0.1554
12931TIP3   OH260283   2.205   3.492  38.515  0.0177  0.0082  0.3368
12931TIP3    H160284   2.195   3.522  38.605  0.6292  0.8352  0.1414
12931TIP3    H260285   2.222   3.572  38.465 -0.8610 -0.3674 -0.6044
12932TIP3   OH260286   2.049   0.728   5.157  0.1182 -0.4586 -0.2086
12932TIP3    H160287   2.098   0.648   5.139 -1.6293 -1.6221 -0.0925
12932TIP3    H260288   2.049   0.775   5.074  0.2531 -1.1158 -0.5907
12933TIP3   OH260289   1.281   2.184  36.234 -0.4691 -0.0022 -0.1806
12933TIP3    H160290   1.318   2.140  36.157 -1.1534 -1.0718  0.0792
12933TIP3    H260291   1.260   2.113  36.294 -1.3982  0.7036  0.3616
12934TIP3   OH260292   1.485   2.732  36.306  0.2302 -0.1273  0.0029
12934TIP3    H160293   1.572   2.693  36.311 -0.2762 -1.2305  0.7922
12934TIP3    H260294   1.465   2.735  36.213  1.1301  0.1924 -0.1875
12935TIP3   OH260295   0.032   3.159  39.350 -0.2184 -0.1203 -0.0258
12935TIP3    H160296   0.073   3.100  39.287  1.3637  0.4662  0.4040
12935TIP3    H260297   0.090   3.236  39.351 -0.9028  0.3942  1.2145
12936TIP3   OH260298   1.549   2.592  21.442 -0.3609 -0.6699 -0.0948
12936TIP3    H160299   1.623   2.585  21.382  0.0276 -2.8773  0.5360
12936TIP3    H260300   1.588   2.583  21.529 -1.4364 -3.4575  0.2000
12937TIP3   OH260301   1.678   3.439   0.737 -0.6716  0.0555  0.2908
12937TIP3    H160302   1.619   3.427   0.811 -1.2483  2.1115  0.2428
12937TIP3    H260303   1.639   3.389   0.665 -1.3200 -0.1362  0.7710
12938TIP3   OH260304   0.502   2.065  42.888  0.0026 -0.2313  0.2425
12938TIP3    H160305   0.553   2.001  42.938  0.4211  0.2449  0.4319
12938TIP3    H260306   0.417   2.023  42.874  0.9092 -1.6561 -1.3249
12939TIP3   OH260307   1.891   1.933  45.537  0.1616  0.1377  0.0990
12939TIP3    H160308   1.875   1.851  45.584 -1.8697  0.6921  0.4745
12939TIP3    H260309   1.805   1.958  45.503  1.1399  0.9712 -1.9420
12940TIP3   OH260310   3.697   2.459  37.860  0.1176  0.6406 -0.4547
12940TIP3    H160311   3.730   2.385  37.811  0.2428  0.6062 -0.3202
12940TIP3    H260312   3.773   2.516  37.872  0.5383 -0.1850  1.2330
12941TIP3   OH260313   0.588   1.443  32.634  0.4470 -0.4657 -0.2024
12941TIP3    H160314   0.592   1.387  32.556 -1.9480  0.5528 -1.1602
12941TIP3    H260315   0.590   1.381  32.707  1.0037 -1.5704 -1.1131
12942TIP3   OH260316   0.608   2.366  42.227 -0.1329 -0.0063 -0.0999
12942TIP3    H160317   0.700   2.340  42.230 -0.0409  0.3726  0.3818
12942TIP3    H260318   0.574   2.347  42.315 -0.4206  0.2018 -0.1628
12943TIP3   OH260319   2.955   1.547  16.681  0.5635 -0.3168  0.1298
12943TIP3    H160320   2.984   1.470  16.729  1.1489 -0.9951 -1.2641
12943TIP3    H260321   2.930   1.515  16.595 -1.8089  0.6638  0.3589
12944TIP3   OH260322   2.452   0.238   2.057  0.6610  0.1370 -0.9527
12944TIP3    H160323   2.432   0.328   2.030 -0.2213 -0.2696 -1.7071
12944TIP3    H260324   2.481   0.195   1.976  2.4040  0.0774 -0.3365
12945TIP3   OH260325   0.305   0.736   8.752  1.0427 -0.2953  0.1570
12945TIP3    H160326   0.356   0.671   8.705 -0.7285 -1.0715 -0.8050
12945TIP3    H260327   0.356   0.817   8.745  1.4384 -0.6826 -2.0400
12946TIP3   OH260328   1.300   0.070  31.283 -0.1432  0.1966 -0.1492
12946TIP3    H160329   1.210   0.061  31.252 -0.1030  1.8960 -0.8526
12946TIP3    H260330   1.330   0.153  31.248  1.6297 -0.1961  0.3030
12947TIP3   OH260331   0.779   3.429  43.337  0.1669  0.7224 -0.1174
12947TIP3    H160332   0.683   3.423  43.330  0.1753  0.9173 -0.4007
12947TIP3    H260333   0.808   3.454  43.249  0.5318  0.0646 -0.1961
12948TIP3   OH260334   1.580   3.344  27.501  0.1401  0.1747  0.7350
12948TIP3    H160335   1.571   3.251  27.481  0.2497  0.4800 -0.8366
12948TIP3    H260336   1.491   3.375  27.516 -0.2266  0.3687 -1.5037
12949TIP3   OH260337   2.636   3.908  47.197  0.4774 -0.0904  0.8298
12949TIP3    H160338   2.694   3.943  47.264 -0.5487 -0.3428  1.8778
12949TIP3    H260339   2.626   3.816  47.220  0.3352 -0.2464  0.1621
12950TIP3   OH260340   3.663   0.551   1.290 -0.1935 -0.2625  0.4544
12950TIP3    H160341   3.705   0.623   1.337 -1.2781  0.0347  1.0079
12950TIP3    H260342   3.595   0.594   1.237  0.1191 -0.7364 -0.3422
12951TIP3   OH260343   2.213   3.927  45.449  0.0946 -0.1191 -0.3868
12951TIP3    H160344   2.252   3.871  45.381  1.6543 -1.2053  1.3119
12951TIP3    H260345   2.209   3.871  45.526 -0.1647  1.5456  0.8509
12952TIP3   OH260346   3.039   2.416   4.197 -0.0754  0.5834 -0.1046
12952TIP3    H160347   3.096   2.339   4.200  1.0369  1.3590  3.4489
12952TIP3    H260348   3.099   2.489   4.182 -0.8459  0.9924 -1.3176
12953TIP3   OH260349   2.465   0.918  32.387  0.5968 -0.1624 -0.5951
12953TIP3    H160350   2.406   0.844  32.401  2.0995 -0.9864  2.0859
12953TIP3    H260351   2.549   0.878  32.365  1.3922  0.7123  0.7071
12954TIP3   OH260352   2.968   0.383   4.866  0.6670  0.0667 -0.1324
12954TIP3    H160353   2.998   0.293   4.874  2.3335  0.6124 -0.0015
12954TIP3    H260354   3.039   0.436   4.902  0.1553  1.4941 -1.1266
12955TIP3   OH260355   3.772   1.553  35.283 -1.0405  0.1885 -0.2247
12955TIP3    H160356   3.820   1.570  35.202 -1.0468  1.0806 -0.0533
12955TIP3    H260357   3.788   1.631  35.337 -2.4751  0.3954 -0.0697
12956TIP3   OH260358   3.675   2.739  38.716 -0.0050  0.0770 -0.3738
12956TIP3    H160359   3.589   2.709  38.745  0.4999  0.8642  2.2319
12956TIP3    H260360   3.665   2.834  38.706  0.6662  0.2677  0.5778
12957TIP3   OH260361   3.698   3.806  24.405  0.3954  0.5314 -0.1559
12957TIP3    H160362   3.677   3.899  24.414  0.1319  0.3548  1.3460
12957TIP3    H260363   3.767   3.803  24.339  1.5502  1.9826  0.9278
12958TIP3   OH260364   2.143   0.235   7.274  0.0827 -0.3127 -0.2252
12958TIP3    H160365   2.077   0.202   7.334  0.4760 -0.8816 -0.0977
12958TIP3    H260366   2.117   0.325   7.256  0.6533  0.2927  1.8007
12959TIP3   OH260367   3.572   2.471  45.700 -0.1797  0.0693  0.5141
12959TIP3    H160368   3.637   2.403  45.715 -2.3998 -1.7101  2.8766
12959TIP3    H260369   3.575   2.526  45.779 -1.6660 -0.1991  0.7896
12960TIP3   OH260370   0.549   0.343  14.900 -0.0373 -0.0546 -0.8274
12960TIP3    H160371   0.475   0.294  14.865  1.4696 -1.7610 -1.8134
12960TIP3    H260372   0.572   0.297  14.981  1.0332 -0.6699 -1.4606
12961TIP3   OH260373   3.606   3.794  33.007  0.4748  0.0286  0.1362
12961TIP3    H160374   3.537   3.808  32.942 -3.0128 -1.3449  3.1949
12961TIP3    H260375   3.628   3.882  33.037  1.9502  0.6689 -2.5176
12962TIP3   OH260376   2.995   0.638  33.576  0.2160 -0.6031 -1.1878
12962TIP3    H160377   3.069   0.620  33.518  0.3684 -1.4240 -0.7526
12962TIP3    H260378   2.939   0.561  33.567  0.9982 -1.5033  0.9261
12963TIP3   OH260379   1.377   1.424  46.575 -0.4299 -0.1348 -0.5549
12963TIP3    H160380   1.368   1.444  46.482 -1.3521 -1.6207 -0.8091
12963TIP3    H260381   1.301   1.465  46.616  0.5785  1.5335 -0.2324
12964TIP3   OH260382   0.427   3.832   1.105  0.4854 -0.8582 -0.4667
12964TIP3    H160383   0.362   3.821   1.175 -2.0119  0.2868 -2.4534
12964TIP3    H260384   0.463   3.744   1.092  0.9987 -1.1202  2.1295
12965TIP3   OH260385   3.112   1.363  37.018 -0.0951  0.3988 -0.0027
12965TIP3    H160386   3.049   1.323  36.959  0.9962 -1.6069  0.1065
12965TIP3    H260387   3.185   1.389  36.961 -0.0741  0.6991  0.1570
12966TIP3   OH260388   2.616   2.797  32.933 -0.3395  0.3399  0.2487
12966TIP3    H160389   2.673   2.866  32.965 -0.6531  1.3978 -1.3745
12966TIP3    H260390   2.537   2.805  32.986 -0.1597  0.8749  0.4426
12967TIP3   OH260391   3.850   1.540  44.722  0.3220 -0.0894 -0.3427
12967TIP3    H160392   3.872   1.596  44.796  0.8398 -0.4367 -0.2231
12967TIP3    H260393   3.916   1.470  44.725  0.4625 -0.0117 -1.2253
12968TIP3   OH260394   2.992   1.173   1.387 -0.0939  0.2069 -0.2491
12968TIP3    H160395   2.923   1.206   1.330  0.5514 -1.2448 -1.9750
12968TIP3    H260396   3.033   1.102   1.337  2.2965  0.6369  0.9201
12969TIP3   OH260397   1.766   1.594  10.199 -0.8352  0.2453  0.2934
12969TIP3    H160398   1.854   1.611  10.165 -0.7048 -2.6830 -1.1292
12969TIP3    H260399   1.709   1.648  10.145 -0.1191  0.2011 -0.5353
12970TIP3   OH260400   3.514   0.592   1.037  0.4114 -0.2000 -0.5752
12970TIP3    H160401   3.589   0.562   0.985 -1.2069 -2.0972 -1.9907
12970TIP3    H260402   3.483   0.670   0.992  2.1161  1.2636  0.6587
12971TIP3   OH260403   3.362   1.450  33.853  0.4196 -0.3340  0.1494
12971TIP3    H160404   3.323   1.377  33.901 -2.0604  0.0291 -1.1351
12971TIP3    H260405   3.336   1.528  33.903 -1.4078 -0.0195 -1.2247
12972TIP3   OH260406   0.449   2.708  42.807  0.0327 -0.3089  0.0801
12972TIP3    H160407   0.486   2.632  42.761 -0.5034 -0.9404  0.6648
12972TIP3    H260408   0.439   2.775  42.739 -0.7558 -1.2218 -0.7334
12973TIP3   OH260409   0.537   0.144  15.413  0.7899  0.1428 -0.4239
12973TIP3    H160410   0.580   0.077  15.361  0.2158  0.0844 -0.8294
12973TIP3    H260411   0.444   0.124  15.407  0.6419  0.7215 -0.1900
12974TIP3   OH260412   2.702   3.185  43.841  0.1391  0.4790  0.1393
12974TIP3    H160413   2.610   3.169  43.859  0.5672 -0.2295  1.9310
12974TIP3    H260414   2.731   3.109  43.791  0.0247  0.1199  0.6175
12975TIP3   OH260415   3.267   2.779  21.017 -0.8788  0.0084 -0.2574
12975TIP3    H160416   3.294   2.871  21.010  1.4194 -0.5873  0.1117
12975TIP3    H260417   3.174   2.780  20.994 -0.9592  2.4462 -0.0763
12976TIP3   OH260418   2.025   4.065   9.903  0.5625  0.2257 -0.3412
12976TIP3    H160419   1.992   4.014   9.977 -1.3126  0.8684 -0.6808
12976TIP3    H260420   2.032   4.154   9.937  4.0543 -0.1720  0.3210
12977TIP3   OH260421   1.177   3.281  14.280 -0.7188 -0.0094  0.2373
12977TIP3    H160422   1.142   3.369  14.299  1.1897  0.8894 -0.1923
12977TIP3    H260423   1.099   3.226  14.275 -2.0215  1.7376  0.0423
12978TIP3   OH260424   3.733   1.218  43.958  0.0272  0.0231 -0.5611
12978TIP3    H160425   3.692   1.189  44.040 -0.4375  0.1690 -0.7437
12978TIP3    H260426   3.772   1.139  43.922  0.3863 -0.0122 -0.1132
12979TIP3   OH260427   0.735   1.853  34.501 -0.0148  0.0753  0.0978
12979TIP3    H160428   0.743   1.768  34.544 -1.8732 -1.1462 -1.7591
12979TIP3    H260429   0.646   1.882  34.521  0.5269  1.5239  0.5391
12980TIP3   OH260430   0.827   0.112  14.948 -0.2388  0.0386  0.2126
12980TIP3    H160431   0.862   0.031  14.910 -1.6523 -1.1400  1.3219
12980TIP3    H260432   0.736   0.114  14.920  0.0476  1.8680 -0.7172
12981TIP3   OH260433   3.252   3.881  34.444  0.7999  0.1749 -0.5179
12981TIP3    H160434   3.161   3.911  34.438  0.5899 -0.1147  1.0375
12981TIP3    H260435   3.302   3.948  34.397 -0.4118 -0.8758 -3.5471
12982TIP3   OH260436   3.323   0.424  10.402 -0.1061 -0.0261  0.4174
12982TIP3    H160437   3.418   0.432  10.388 -0.2090  1.3322  0.3371
12982TIP3    H260438   3.314   0.423  10.498 -0.1528  2.9340  0.5421
12983TIP3   OH260439   3.089   2.639  36.288 -0.0120 -0.8321  0.0546
12983TIP3    H160440   3.077   2.678  36.201  1.7362 -0.5498 -0.0998
12983TIP3    H260441   3.176   2.669  36.315 -0.7378 -0.4672  2.1552
12984TIP3   OH260442   0.011   1.982  13.385 -0.4096  0.0605  0.7303
12984TIP3    H160443   0.080   1.962  13.448  0.3062 -0.9052 -0.3179
12984TIP3    H260444   0.058   1.998  13.303 -1.3894  0.1042  0.1687
12985TIP3   OH260445   1.284   3.668  13.187  0.0422  0.0794 -0.1554
12985TIP3    H160446   1.378   3.670  13.170  0.0203  0.4048 -0.2422
12985TIP3    H260447   1.276   3.699  13.277 -0.1298  2.0816 -0.7999
12986TIP3   OH260448   1.506   1.468  14.635 -0.2290 -0.2662 -0.0370
12986TIP3    H160449   1.540   1.384  14.668 -1.7874 -1.1916 -0.6816
12986TIP3    H260450   1.422   1.479  14.679 -0.3898  0.5933 -0.5390
12987TIP3   OH260451   2.358   0.347   7.960  0.4003  0.0760  0.4095
12987TIP3    H160452   2.388   0.310   8.043 -0.6919 -0.5170  0.5686
12987TIP3    H260453   2.435   0.344   7.903  1.0211 -0.0102  1.2313
12988TIP3   OH260454   1.516   3.239   0.605 -0.2165  0.7363  0.1140
12988TIP3    H160455   1.450   3.263   0.671 -0.3403  4.0676 -1.0647
12988TIP3    H260456   1.465   3.218   0.527 -0.0116 -2.3287  0.6404
12989TIP3   OH260457   3.411   1.492  40.228  0.9051 -0.2302 -0.1774
12989TIP3    H160458   3.451   1.474  40.313 -0.3863 -0.4581  0.3975
12989TIP3    H260459   3.470   1.556  40.187  1.6839 -0.3197  0.7662
12990TIP3   OH260460   3.333   1.282   1.785  0.7192 -0.0501 -0.0605
12990TIP3    H160461   3.383   1.334   1.847 -0.9223  0.8482  0.5904
12990TIP3    H260462   3.315   1.342   1.713  0.8763 -0.4684 -0.4526
12991TIP3   OH260463   0.329   3.320  38.171 -0.4878  0.2165 -0.2297
12991TIP3    H160464   0.345   3.292  38.081  1.5175 -3.5218  1.0863
12991TIP3    H260465   0.264   3.257  38.204  0.8211 -0.2149  1.6544
12992TIP3   OH260466   2.231   1.987  42.926  0.4166 -0.3145  0.1926
12992TIP3    H160467   2.203   2.057  42.985 -0.8499 -1.5741  1.1664
12992TIP3    H260468   2.193   2.010  42.842 -1.9711 -0.9349  1.0307
12993TIP3   OH260469   4.088   0.427  26.612 -0.4388 -0.2322  0.5070
12993TIP3    H160470   4.007   0.464  26.576 -0.1343  0.6520  0.7075
12993TIP3    H260471   4.059   0.350  26.661 -1.0008 -0.7288 -0.5650
12994TIP3   OH260472   0.495   1.837  41.742  0.0108  0.3774 -0.1881
12994TIP3    H160473   0.491   1.876  41.655  2.0780  1.1643  0.0248
12994TIP3    H260474   0.490   1.911  41.803 -0.0002 -0.0419  0.3318
12995TIP3   OH260475   3.235   1.240   4.226 -0.0040 -0.5644 -0.0657
12995TIP3    H160476   3.296   1.283   4.166 -0.0807 -0.9558 -0.4216
12995TIP3    H260477   3.154   1.289   4.218 -0.8351 -2.1348 -2.2088
12996TIP3   OH260478   0.356   0.366  31.667 -0.3926 -0.0003  0.1779
12996TIP3    H160479   0.295   0.409  31.607 -2.4581 -0.8258  1.5950
12996TIP3    H260480   0.338   0.272  31.656  2.7133 -0.5736 -1.4758
12997TIP3   OH260481   0.627   1.286  10.919  0.3679 -0.6967 -0.3239
12997TIP3    H160482   0.584   1.369  10.897  2.0286  0.0478 -0.8709
12997TIP3    H260483   0.669   1.301  11.003  0.6978 -0.9789 -0.4340
12998TIP3   OH260484   0.857   2.482  40.682  0.2366  1.0099  0.6854
12998TIP3    H160485   0.951   2.493  40.670  0.2516  0.3747  0.1318
12998TIP3    H260486   0.842   2.389  40.663 -0.6082  1.2692  0.0314
12999TIP3   OH260487   3.300   3.719  42.351 -0.0849  0.0518 -0.0419
12999TIP3    H160488   3.352   3.673  42.285  0.9157 -2.8006  2.5254
12999TIP3    H260489   3.210   3.695  42.332 -0.0560  0.9727 -1.5332
13000TIP3   OH260490   0.688   1.039  47.589  0.1842  0.3907 -0.1515
13000TIP3    H160491   0.624   1.046  47.659  0.6366  1.0397  0.2030
13000TIP3    H260492   0.748   1.112  47.603  1.3212 -0.5027 -0.1502
13001TIP3   OH260493   2.099   3.115   1.421  0.5719 -0.3301 -0.0468
13001TIP3    H160494   2.045   3.063   1.480  1.5423  0.9137  2.0217
13001TIP3    H260495   2.037   3.175   1.379  0.0772 -0.1229  0.9495
13002TIP3   OH260496   1.452   0.978  13.791 -0.3136  0.2192  0.0428
13002TIP3    H160497   1.545   0.961  13.806 -0.7532 -2.1377  0.6223
13002TIP3    H260498   1.450   1.056  13.737  1.9882  0.4573  0.1956
13003TIP3   OH260499   0.617   0.817  33.559 -0.1014  0.1257 -0.0911
13003TIP3    H160500   0.556   0.813  33.633  1.0472  0.0653  0.8947
13003TIP3    H260501   0.580   0.758  33.494 -0.4873 -0.8401  0.9614
13004TIP3   OH260502   0.139   0.586  43.782  0.2345  0.1006  0.3787
13004TIP3    H160503   0.097   0.540  43.855  2.0372 -0.6597  0.9974
13004TIP3    H260504   0.084   0.662  43.767 -0.0723  0.4230  2.7282
13005TIP3   OH260505   3.618   2.913  35.434 -0.4849 -0.1614 -0.0838
13005TIP3    H160506   3.581   2.986  35.384 -2.5267 -0.5768  0.7142
13005TIP3    H260507   3.672   2.955  35.501 -1.4386  0.6086  0.2171
13006TIP3   OH260508   2.473   1.669   8.566 -0.1374 -0.1391  0.4857
13006TIP3    H160509   2.472   1.672   8.662  1.0695  2.9771  0.5265
13006TIP3    H260510   2.565   1.654   8.543  0.3307  2.9110 -0.0496
13007TIP3   OH260511   2.150   0.347  33.223  0.4445  0.1096  0.5671
13007TIP3    H160512   2.202   0.308  33.154  2.2245 -1.8437  2.8325
13007TIP3    H260513   2.063   0.358  33.185  0.4451 -3.8921 -1.0341
13008TIP3   OH260514   2.649   3.953   9.912 -0.0907  0.2420 -0.6582
13008TIP3    H160515   2.684   3.932   9.998  1.1557 -1.1184 -1.4286
13008TIP3    H260516   2.573   4.008   9.928 -2.7010 -3.5285  1.6275
13009TIP3   OH260517   3.593   1.496  10.484  0.0131 -0.0420 -0.3487
13009TIP3    H160518   3.674   1.458  10.519  0.0776  1.0883  0.8274
13009TIP3    H260519   3.531   1.491  10.557 -0.3730  0.8557 -0.5922
13010TIP3   OH260520   2.117   1.071  11.896 -0.8337  0.2020 -0.0816
13010TIP3    H160521   2.092   1.154  11.855  0.4224 -0.3368 -2.0821
13010TIP3    H260522   2.034   1.028  11.916 -1.5059  1.1087 -0.8152
13011TIP3   OH260523   0.959   1.766   3.565  0.0568  0.2367  0.6763
13011TIP3    H160524   0.896   1.777   3.637 -0.0483 -1.0194  0.7911
13011TIP3    H260525   0.989   1.855   3.546 -1.2679  0.7917  1.0624
13012TIP3   OH260526   1.925   1.543   2.159 -0.6278 -0.5631  0.0199
13012TIP3    H160527   1.861   1.615   2.162  0.3138  0.3647 -1.2756
13012TIP3    H260528   1.904   1.496   2.079  1.8667  1.3296 -1.9009
13013TIP3   OH260529   1.699   1.055  15.572 -0.1646  0.5904  0.7196
13013TIP3    H160530   1.616   1.007  15.579  0.1305  0.1190  1.0198
13013TIP3    H260531   1.766   0.992  15.598  0.3763  0.7237 -0.2932
13014TIP3   OH260532   1.250   1.803  13.252 -0.1831  0.6959 -0.0660
13014TIP3    H160533   1.163   1.839  13.266 -1.1103 -1.0738 -0.9217
13014TIP3    H260534   1.244   1.758  13.168  1.0613 -0.8661  0.6186
13015TIP3   OH260535   2.490   0.711  12.806  0.5878 -0.2445  0.8134
13015TIP3    H160536   2.474   0.708  12.900  0.0399  0.9046  0.7705
13015TIP3    H260537   2.412   0.752  12.770  1.6189  1.1346  0.0733
13016TIP3   OH260538   3.963   2.618  34.186  0.4967 -0.1360  0.1815
13016TIP3    H160539   3.948   2.586  34.097  0.2266 -0.3671  0.3083
13016TIP3    H260540   4.026   2.556  34.224  2.2372  1.1278 -0.5216
13017TIP3   OH260541   1.011   1.812   0.148 -0.1770  0.9681  0.4813
13017TIP3    H160542   1.100   1.780   0.135 -0.0594  0.9783  1.2119
13017TIP3    H260543   0.956   1.751   0.098  0.0422 -0.4143  1.8421
13018TIP3   OH260544   4.076   0.765  33.016 -0.3333  0.1684 -0.3659
13018TIP3    H160545   4.040   0.714  32.944 -4.0444  1.2237  0.5158
13018TIP3    H260546   4.120   0.839  32.974 -2.2334  0.6579 -1.6359
13019TIP3   OH260547   3.157   3.508  44.014 -0.0721 -0.2963  0.4722
13019TIP3    H160548   3.160   3.570  44.086 -1.8109  1.8542 -1.1866
13019TIP3    H260549   3.075   3.460  44.026 -0.9568  0.8815 -0.6456
13020TIP3   OH260550   0.089   2.371   8.379 -0.7060 -0.3713 -0.0562
13020TIP3    H160551   0.045   2.454   8.399  2.3837  1.0847  1.4982
13020TIP3    H260552   0.131   2.346   8.461  0.6694 -2.0322 -1.1942
13021TIP3   OH260553   3.412   1.485   7.312 -0.0386  0.0343  0.0493
13021TIP3    H160554   3.486   1.425   7.305 -0.3600 -0.3372 -0.2359
13021TIP3    H260555   3.451   1.569   7.336  0.5824  0.0936 -1.0761
13022TIP3   OH260556   0.942   1.460  15.609 -0.4690  0.3223  0.5218
13022TIP3    H160557   0.947   1.529  15.543 -0.6223  0.5491  0.7463
13022TIP3    H260558   0.849   1.438  15.613 -0.4954  0.5031  0.8646
13023TIP3   OH260559   1.151   2.667  33.308  0.1747  0.1048 -0.2337
13023TIP3    H160560   1.080   2.628  33.256 -0.4303  0.2765  0.4470
13023TIP3    H260561   1.134   2.637  33.397  0.2289  1.1812  0.1478
13024TIP3   OH260562   1.784   2.501  40.864  0.1858  0.1744 -0.4830
13024TIP3    H160563   1.722   2.433  40.887  0.6249 -0.3127 -0.7118
13024TIP3    H260564   1.799   2.550  40.945  2.2423 -1.9338  0.5280
13025TIP3   OH260565   1.361   2.908  31.544 -0.0144  0.1309 -0.1762
13025TIP3    H160566   1.323   2.871  31.624  0.1896  2.0494  0.8851
13025TIP3    H260567   1.306   2.874  31.473  0.1307 -2.0415  0.6968
13026TIP3   OH260568   4.097   2.186   2.839  0.1115 -0.0996  0.6766
13026TIP3    H160569   4.037   2.144   2.901 -0.8840  0.5166  0.1533
13026TIP3    H260570   4.184   2.160   2.869 -0.4413 -2.7786  0.2011
13027TIP3   OH260571   2.614   3.679  13.008  0.5706 -0.1744 -0.1742
13027TIP3    H160572   2.613   3.716  12.920  2.4461 -0.4997 -0.3757
13027TIP3    H260573   2.659   3.595  12.998 -0.0291 -0.6487  0.9517
13028TIP3   OH260574   3.309   2.120  45.253 -1.0098  0.3254  0.0620
13028TIP3    H160575   3.294   2.027  45.269 -0.5971 -0.2695 -2.5295
13028TIP3    H260576   3.402   2.133  45.273 -0.9948  0.1180  0.1273
13029TIP3   OH260577   2.731   3.088  47.723  0.2491  0.3004  0.3318
13029TIP3    H160578   2.759   3.180  47.723 -1.6677  0.9661 -1.9578
13029TIP3    H260579   2.641   3.090  47.753 -0.2185 -0.6557 -0.9352
13030TIP3   OH260580   4.095   4.028   8.235 -0.0408 -0.1633 -0.5280
13030TIP3    H160581   4.122   3.952   8.286  0.0205 -1.3015 -2.2059
13030TIP3    H260582   4.043   4.080   8.297 -0.0319 -1.5143  0.6789
13031TIP3   OH260583   3.181   2.519  14.150 -0.0160 -0.6151 -0.2002
13031TIP3    H160584   3.249   2.457  14.122  2.0651  1.0555  0.8175
13031TIP3    H260585   3.174   2.505  14.245 -1.0939 -0.7320 -0.2846
13032TIP3   OH260586   4.032   3.552   5.715  0.1981  0.2135  0.0794
13032TIP3    H160587   4.011   3.544   5.622 -0.6003 -0.4000  0.3003
13032TIP3    H260588   4.104   3.491   5.729 -1.1885 -1.4418  0.3059
13033TIP3   OH260589   3.181   3.705  15.611 -0.2824 -0.3984  0.2576
13033TIP3    H160590   3.221   3.732  15.694 -2.0366  0.7261  0.8134
13033TIP3    H260591   3.087   3.723  15.624 -0.5648 -0.0064 -2.0574
13034TIP3   OH260592   0.096   2.475   2.506 -0.5456 -0.3299  0.2098
13034TIP3    H160593   0.087   2.512   2.419  0.4295  0.9722  0.6383
13034TIP3    H260594   0.090   2.381   2.493 -2.2192 -0.0854 -1.0223
13035TIP3   OH260595   1.441   3.735  26.992  0.4624  0.0318  0.5801
13035TIP3    H160596   1.471   3.815  27.036 -0.7067  0.8435 -0.0435
13035TIP3    H260597   1.348   3.751  26.975  0.3548 -1.2316 -0.0910
13036TIP3   OH260598   0.009   0.622   4.373  0.6921  0.0984  0.3861
13036TIP3    H160599   0.042   0.639   4.285  0.2409  0.8648  0.3568
13036TIP3    H260600  -0.074   0.669   4.377 -0.0420 -1.1757  0.7111
13037TIP3   OH260601   1.811   1.645   4.319 -0.5569 -0.1168 -0.5146
13037TIP3    H160602   1.790   1.630   4.227 -0.9933  0.5390 -0.5287
13037TIP3    H260603   1.830   1.739   4.323 -0.5381 -0.1466  0.0647
13038TIP3   OH260604   1.939   0.178   6.702 -0.0902 -0.1821 -0.0276
13038TIP3    H160605   1.925   0.109   6.638  0.1611 -1.9282  1.7059
13038TIP3    H260606   2.026   0.161   6.738 -1.1198 -0.7540  2.4164
13039TIP3   OH260607   3.890   2.894  46.344  0.3945 -0.0877 -0.2087
13039TIP3    H160608   3.913   2.879  46.435  1.8566 -0.9547 -0.6877
13039TIP3    H260609   3.904   2.988  46.331  0.8796 -0.0896  0.2804
13040TIP3   OH260610   2.672   0.051  26.402 -0.1434  0.3451  0.2558
13040TIP3    H160611   2.601   0.107  26.371 -0.7449  1.7154  3.6423
13040TIP3    H260612   2.746   0.110  26.413  0.2617 -0.2325  0.6793
13041TIP3   OH260613   1.499   2.200  14.909  0.1927 -0.2883 -0.5548
13041TIP3    H160614   1.514   2.127  14.969 -1.4659  0.5855  1.0188
13041TIP3    H260615   1.421   2.174  14.859 -0.4995  0.4187  0.1189
13042TIP3   OH260616   3.142   3.415  38.224 -0.2584  0.6026 -0.7130
13042TIP3    H160617   3.050   3.417  38.197 -0.0890  0.8786 -1.2938
13042TIP3    H260618   3.185   3.477  38.165  0.4191 -0.0333 -0.8975
13043TIP3   OH260619   3.367   0.168   4.439  0.9314 -0.1774 -0.1441
13043TIP3    H160620   3.410   0.253   4.444 -0.2564  0.5990 -1.9945
13043TIP3    H260621   3.437   0.106   4.419  1.4817  0.8067 -1.4162
13044TIP3   OH260622   2.656   0.233   2.406 -0.5279  0.2476 -0.3658
13044TIP3    H160623   2.747   0.248   2.434 -1.1305  2.0407  0.7754
13044TIP3    H260624   2.663   0.161   2.343  1.4983 -0.6715  0.7863
13045TIP3   OH260625   1.801   1.914  10.796 -0.4117  0.6004  0.0882
13045TIP3    H160626   1.706   1.923  10.786 -0.4685  0.2023  0.2836
13045TIP3    H260627   1.830   1.868  10.717 -0.1723  2.0574 -0.7158
13046TIP3   OH260628   1.488   1.081  31.720  0.3843  0.3438  0.0901
13046TIP3    H160629   1.494   1.087  31.815 -1.1852  0.4960  0.2078
13046TIP3    H260630   1.395   1.069  31.703  0.6478  0.2878 -1.4325
13047TIP3   OH260631   0.599   0.870   2.457 -0.2826  0.1865 -0.1274
13047TIP3    H160632   0.646   0.795   2.494  0.1939  0.3602 -0.3848
13047TIP3    H260633   0.660   0.909   2.395  0.9767  2.9925  2.5820
13048TIP3   OH260634   3.340   2.523   6.060 -0.1796  0.1615 -0.1790
13048TIP3    H160635   3.335   2.430   6.083 -0.4838 -0.0317 -0.9918
13048TIP3    H260636   3.389   2.563   6.132 -0.8545 -0.4621  0.6482
13049TIP3   OH260637   2.065   3.942   2.039 -0.7501  0.4750 -0.0090
13049TIP3    H160638   2.097   3.893   1.963  0.1568  1.3923 -0.2451
13049TIP3    H260639   2.144   3.976   2.080 -1.3585  1.9596 -0.0167
13050TIP3   OH260640   2.728   0.946  34.273  0.5951  0.1063 -0.1250
13050TIP3    H160641   2.637   0.945  34.304  0.5350  3.0353  0.1087
13050TIP3    H260642   2.768   0.870  34.314 -1.3235 -0.2586  1.2142
13051TIP3   OH260643   3.869   1.801  44.529 -0.0970 -0.8965  0.4300
13051TIP3    H160644   3.804   1.866  44.502  2.0198  2.0528  1.7950
13051TIP3    H260645   3.829   1.757  44.604 -0.9598  0.0565  0.5517
13052TIP3   OH260646   2.014   3.456   6.553  0.4233  0.4859  0.0652
13052TIP3    H160647   1.933   3.484   6.595  0.0068  0.2495 -0.5580
13052TIP3    H260648   2.082   3.468   6.620 -0.4962 -1.8042  1.5309
13053TIP3   OH260649   0.411   1.030  45.353  0.1109 -0.8838  0.0420
13053TIP3    H160650   0.449   1.083  45.283  1.0227 -2.4755 -0.7233
13053TIP3    H260651   0.418   0.940  45.322 -0.9292 -1.5175  1.5078
13054TIP3   OH260652   2.123   1.117   9.938  0.0197 -0.1681 -0.5796
13054TIP3    H160653   2.179   1.125   9.861 -1.1227  1.4210 -1.2913
13054TIP3    H260654   2.103   1.024   9.944 -0.1814 -0.2766 -2.4443
13055TIP3   OH260655   3.795   0.264   9.793 -0.0123 -0.3396 -0.0566
13055TIP3    H160656   3.848   0.331   9.750  0.0466 -0.6117 -0.4106
13055TIP3    H260657   3.732   0.237   9.726 -1.5455  0.9947  0.7932
13056TIP3   OH260658   0.880   0.752  46.172 -0.1545  0.1764 -0.3132
13056TIP3    H160659   0.973   0.739  46.151 -0.2331 -0.7318 -0.1602
13056TIP3    H260660   0.868   0.707  46.256 -0.2656  2.1510  0.7681
13057TIP3   OH260661   1.785   3.674  32.467 -0.7421 -0.1774  0.0854
13057TIP3    H160662   1.777   3.735  32.394 -1.8959 -0.6329 -0.1940
13057TIP3    H260663   1.702   3.626  32.467 -0.7811 -0.1736  1.7054
13058TIP3   OH260664   3.698   3.642  27.970 -0.9566  0.0113 -0.7295
13058TIP3    H160665   3.709   3.641  27.874 -1.2776 -2.5452 -0.8094
13058TIP3    H260666   3.746   3.564  28.000  1.3362  2.1175  1.5295
13059TIP3   OH260667   1.557   1.945  45.842 -0.1853  0.4587  0.0194
13059TIP3    H160668   1.502   2.001  45.787 -0.7172 -0.2579 -0.2020
13059TIP3    H260669   1.607   1.892  45.779 -0.3361  0.0749  0.2127
13060TIP3   OH260670   0.647   0.227  14.610  0.1225 -0.2181  0.7576
13060TIP3    H160671   0.588   0.301  14.596  2.2100  1.8043  1.9720
13060TIP3    H260672   0.616   0.187  14.691  0.2484  0.6972  1.2742
13061TIP3   OH260673   2.564   0.430   5.476 -0.2644 -0.2157 -0.0726
13061TIP3    H160674   2.659   0.437   5.482 -0.3372  0.9057 -0.1157
13061TIP3    H260675   2.532   0.458   5.562 -0.5302 -1.7367  0.3677
13062TIP3   OH260676   3.636   0.871   0.545 -0.3091  0.4229  0.0332
13062TIP3    H160677   3.601   0.949   0.588 -2.7974  0.1005 -1.2509
13062TIP3    H260678   3.583   0.799   0.579  1.3310 -0.6105  0.4937
13063TIP3   OH260679   2.864   1.647  40.518 -0.3513 -0.2713 -0.1910
13063TIP3    H160680   2.795   1.713  40.506  0.4726  0.6067 -0.1687
13063TIP3    H260681   2.826   1.584  40.580 -1.2137  0.0845 -0.3457
13064TIP3   OH260682   3.387   3.882  45.511  0.0097 -0.0072 -0.6191
13064TIP3    H160683   3.300   3.856  45.480 -0.3762  1.7658 -1.1049
13064TIP3    H260684   3.437   3.800  45.512 -1.7700 -1.1439  0.0946
13065TIP3   OH260685   0.538   2.714  43.116 -0.2202  0.0630 -0.3515
13065TIP3    H160686   0.511   2.647  43.179 -0.7879  0.3314 -0.3059
13065TIP3    H260687   0.458   2.738  43.070  0.0266  0.5181 -0.5570
13066TIP3   OH260688   1.298   0.860   8.713  0.0024 -0.1602  0.2210
13066TIP3    H160689   1.354   0.921   8.760 -1.0432  0.6210  0.5036
13066TIP3    H260690   1.221   0.913   8.688  0.1325 -0.7549 -1.6184
13067TIP3   OH260691   0.861   1.810   2.216 -0.2819 -0.2999 -0.4151
13067TIP3    H160692   0.840   1.854   2.298 -1.8464 -0.2343 -0.8152
13067TIP3    H260693   0.936   1.754   2.237 -0.1819  0.2711  0.8503
13068TIP3   OH260694   1.406   3.597   4.932  0.3341 -0.7196  0.2697
13068TIP3    H160695   1.497   3.595   4.961 -0.1393 -0.9651  1.8403
13068TIP3    H260696   1.364   3.524   4.978 -1.0770  0.5867  1.1525
13069TIP3   OH260697   2.073   2.390  35.270  0.3432  0.0127  0.3081
13069TIP3    H160698   2.019   2.412  35.346  0.1241  1.0212 -0.1278
13069TIP3    H260699   2.138   2.459  35.266 -0.1414  0.4162 -0.8857
13070TIP3   OH260700   0.378   2.612  13.969  0.4800 -0.0398  0.0839
13070TIP3    H160701   0.367   2.696  14.014  0.7933 -0.4620  0.9726
13070TIP3    H260702   0.293   2.569  13.979  1.2236 -1.1527  2.4709
13071TIP3   OH260703   3.310   1.148  40.588  0.2561 -0.1447  0.8928
13071TIP3    H160704   3.331   1.237  40.615  0.3300  0.0557  0.1834
13071TIP3    H260705   3.392   1.100  40.599  0.0591 -0.2800  1.8678
13072TIP3   OH260706   1.871   2.040  42.123  0.5644  0.2294  0.6099
13072TIP3    H160707   1.945   2.099  42.139  0.4358  0.5247  0.1394
13072TIP3    H260708   1.906   1.973  42.064  0.4716  0.3381  0.4320
13073TIP3   OH260709   4.062   0.028   7.292 -0.7229 -0.7253 -0.3849
13073TIP3    H160710   4.096  -0.057   7.316 -1.7971 -1.0015  0.2230
13073TIP3    H260711   4.115   0.091   7.341  0.0742 -1.0319 -0.8395
13074TIP3   OH260712   0.318   2.402  33.842  0.4616 -0.3232 -0.1936
13074TIP3    H160713   0.352   2.409  33.931 -0.3472  1.8778  0.0217
13074TIP3    H260714   0.268   2.321  33.841  0.8600 -0.6105  1.2258
13075TIP3   OH260715   3.644   3.836  41.420  0.0836  0.3169 -0.0476
13075TIP3    H160716   3.615   3.749  41.390 -0.1034  0.5315 -0.5123
13075TIP3    H260717   3.618   3.839  41.512  0.0547 -0.1039 -0.0368
13076TIP3   OH260718   0.611   3.485  44.909 -0.5483 -0.0625  0.4663
13076TIP3    H160719   0.533   3.451  44.951  0.2613 -1.7821  0.6530
13076TIP3    H260720   0.660   3.528  44.979 -1.5347  1.4861  0.2468
13077TIP3   OH260721   3.234   1.413  44.766 -0.7739  0.0853  0.3582
13077TIP3    H160722   3.274   1.335  44.804 -2.7307 -0.9960  0.3335
13077TIP3    H260723   3.215   1.469  44.841 -2.2500 -0.9020  0.7639
13078TIP3   OH260724   3.730   3.892  14.486  0.4154 -0.3039 -0.0951
13078TIP3    H160725   3.763   3.838  14.414  1.0656  0.2771 -0.2404
13078TIP3    H260726   3.734   3.982  14.452 -2.3784 -0.2619 -0.5570
13079TIP3   OH260727   2.092   2.267  45.449 -0.2937  0.4290  0.5459
13079TIP3    H160728   2.162   2.248  45.511 -0.8914  0.7381  1.3332
13079TIP3    H260729   2.042   2.186  45.444 -0.4015  0.4869  0.6768
13080TIP3   OH260730   1.570   3.682   1.047 -0.4653 -0.1740 -0.4421
13080TIP3    H160731   1.531   3.761   1.010  1.2753  0.9595 -0.0129
13080TIP3    H260732   1.556   3.689   1.141  0.2701 -0.0102 -0.3341
13081TIP3   OH260733   1.410   1.570  13.635 -0.3959  0.3973  0.2403
13081TIP3    H160734   1.481   1.522  13.678  0.5032  1.5167  0.0643
13081TIP3    H260735   1.420   1.660  13.667 -3.5055  0.1083  2.5068
13082TIP3   OH260736   0.897   3.469  34.208  0.1998 -0.0305 -0.4827
13082TIP3    H160737   0.977   3.423  34.182  0.4735 -0.2388  0.6539
13082TIP3    H260738   0.918   3.562  34.198  0.1172 -0.1128 -1.4676
13083TIP3   OH260739   2.976   3.607  31.006  0.0174 -0.4012  0.1117
13083TIP3    H160740   3.013   3.611  30.918  0.1745  0.8187  0.2051
13083TIP3    H260741   3.031   3.666  31.057 -0.2115 -0.9231  0.9784
13084TIP3   OH260742   3.481   1.407  11.983 -0.2517  0.1069  0.1078
13084TIP3    H160743   3.527   1.363  11.911 -0.1078  0.7494 -0.2021
13084TIP3    H260744   3.406   1.351  12.001 -1.6661  1.1066 -2.1712
13085TIP3   OH260745   1.591   1.273  31.134  0.4298 -0.2565  0.3763
13085TIP3    H160746   1.595   1.217  31.057  1.1371 -0.8157  0.8038
13085TIP3    H260747   1.498   1.284  31.152  0.2778 -0.9376  0.0230
13086TIP3   OH260748   2.163   2.500  23.184 -0.0132 -0.3541  0.1825
13086TIP3    H160749   2.232   2.481  23.120 -0.3655 -1.5440  0.1273
13086TIP3    H260750   2.082   2.492  23.134 -0.2186  0.8541  0.2908
13087TIP3   OH260751   3.924   1.355  12.984 -0.3268  0.0498  0.2804
13087TIP3    H160752   4.007   1.355  12.936 -0.5023 -1.1693 -0.0316
13087TIP3    H260753   3.908   1.264  13.005 -0.6847  0.4658  1.9362
13088TIP3   OH260754   0.272   0.649  11.422 -0.4572 -0.4872 -0.1311
13088TIP3    H160755   0.337   0.587  11.455  0.9027  0.4363 -0.9808
13088TIP3    H260756   0.305   0.676  11.336 -1.1263  1.2090  0.0949
13089TIP3   OH260757   2.081   1.019  38.935  0.0214  0.7101  0.1755
13089TIP3    H160758   1.988   1.027  38.913  0.0677  0.0495 -0.2782
13089TIP3    H260759   2.084   0.948  39.000  0.0617  1.6343  1.2173
13090TIP3   OH260760   1.546   4.022  31.716 -0.1352 -0.1812  0.2032
13090TIP3    H160761   1.456   4.048  31.737 -0.4734 -0.8095 -0.4310
13090TIP3    H260762   1.539   3.974  31.634  0.7416 -0.5275  0.3123
13091TIP3   OH260763   2.156   2.135  10.495  0.4712 -0.1609  0.1361
13091TIP3    H160764   2.247   2.162  10.500  0.1480  0.7401  3.1234
13091TIP3    H260765   2.158   2.040  10.504  1.1335 -0.2661 -0.9678
13092TIP3   OH260766   3.256   3.363  11.145 -0.3066  0.0200  0.3613
13092TIP3    H160767   3.208   3.289  11.182  1.0368 -0.6269  0.8810
13092TIP3    H260768   3.335   3.369  11.198  2.2085 -1.5040 -2.8983
13093TIP3   OH260769   1.013   1.712  33.268  0.0627  0.3964  0.5812
13093TIP3    H160770   0.926   1.703  33.307  0.3079  0.5801  1.1711
13093TIP3    H260771   1.003   1.678  33.179 -0.9938  1.8123  0.1205
13094TIP3   OH260772   2.709   0.629  31.109  0.2401 -0.3325  0.4132
13094TIP3    H160773   2.629   0.625  31.162  0.8506 -0.7737  1.3436
13094TIP3    H260774   2.724   0.538  31.082  0.0467 -0.1384 -0.3498
13095TIP3   OH260775   1.794   2.875  41.245  0.1571 -0.5789  0.0111
13095TIP3    H160776   1.730   2.947  41.251 -0.6146 -0.9696 -2.3326
13095TIP3    H260777   1.878   2.919  41.234 -0.0891 -0.0365  0.2613
13096TIP3   OH260778   3.828   0.853   2.748 -0.0561 -0.2692  0.0147
13096TIP3    H160779   3.909   0.802   2.751 -0.5015 -1.0051 -0.2632
13096TIP3    H260780   3.797   0.842   2.658 -1.5031 -1.6498  0.6367
13097TIP3   OH260781   2.660   3.478   2.980  0.0531 -0.3844  0.4733
13097TIP3    H160782   2.718   3.462   2.905 -1.8560 -0.0393 -1.1525
13097TIP3    H260783   2.649   3.573   2.983  1.4368 -0.2185  2.3179
13098TIP3   OH260784   2.722   3.604  32.578  0.4814 -0.1320  0.3350
13098TIP3    H160785   2.650   3.656  32.613  0.9933  1.3022 -0.6404
13098TIP3    H260786   2.716   3.615  32.483  0.5704 -1.9515  0.0782
13099TIP3   OH260787   0.477   2.946  42.638 -0.2699 -0.2625 -0.3175
13099TIP3    H160788   0.479   2.910  42.549 -2.0603 -0.7021 -0.2083
13099TIP3    H260789   0.414   3.017  42.635 -2.1468 -1.7642  1.0830
13100TIP3   OH260790   2.717   3.116  13.206 -0.9250  0.1118  0.1557
13100TIP3    H160791   2.788   3.123  13.270 -0.3761  0.1666 -0.4454
13100TIP3    H260792   2.713   3.022  13.186 -0.5485  0.1918 -0.3223
13101TIP3   OH260793   0.296   2.223   2.806  0.1217  0.2442  0.2641
13101TIP3    H160794   0.363   2.154   2.810  0.7783  0.7875 -0.8355
13101TIP3    H260795   0.317   2.281   2.879  1.2708  0.7568 -0.4460
13102TIP3   OH260796   3.360   1.089  34.928 -0.4611  0.6275 -0.4401
13102TIP3    H160797   3.341   0.998  34.952 -0.7998  0.4258 -1.4336
13102TIP3    H260798   3.442   1.109  34.973  0.4664 -0.7020 -1.4652
13103TIP3   OH260799   2.508   0.670  45.224  0.1612 -0.2578 -0.3002
13103TIP3    H160800   2.487   0.754  45.265  0.0273 -0.0395 -0.8108
13103TIP3    H260801   2.545   0.618  45.295 -3.6805 -1.3087  1.1331
13104TIP3   OH260802   2.201   0.496  38.569 -0.4055  0.1096  0.3955
13104TIP3    H160803   2.133   0.482  38.504  1.1370  1.5546 -1.6603
13104TIP3    H260804   2.161   0.553  38.634 -1.0945  1.2311 -0.9622
13105TIP3   OH260805   0.324   1.075  41.874  0.9773  0.2153  0.5613
13105TIP3    H160806   0.367   0.992  41.895  0.6573  0.2131  1.2265
13105TIP3    H260807   0.343   1.131  41.950  0.2965  0.3983  0.6046
13106TIP3   OH260808   0.916   3.734   8.339  0.0466  0.3527 -0.1077
13106TIP3    H160809   0.931   3.786   8.261  1.3840  1.6366  0.9614
13106TIP3    H260810   0.820   3.734   8.350 -0.0522  1.4078 -0.8971
13107TIP3   OH260811   1.826   2.082   2.038  0.5431  0.5161 -0.2701
13107TIP3    H160812   1.733   2.103   2.039  0.6378  0.9370  0.0691
13107TIP3    H260813   1.869   2.160   2.072  1.1470  0.8638 -1.7765
13108TIP3   OH260814   0.988   2.348  13.504 -0.1538  0.1900 -0.3326
13108TIP3    H160815   0.965   2.300  13.583  0.9115  1.4586  0.8231
13108TIP3    H260816   1.084   2.348  13.503 -0.1399  0.0071 -1.7686
13109TIP3   OH260817   3.677   2.598   2.537 -0.0010 -0.1167  0.1817
13109TIP3    H160818   3.633   2.663   2.481  0.2803  0.2977  0.4294
13109TIP3    H260819   3.769   2.602   2.509  0.0290 -0.3638  0.2453
13110TIP3   OH260820   2.354   2.582  46.926  0.0258 -0.0889  0.6014
13110TIP3    H160821   2.283   2.518  46.919 -0.1100  0.0612  0.6033
13110TIP3    H260822   2.347   2.616  47.015  1.8866 -2.1478  1.6173
13111TIP3   OH260823   1.441   0.197  31.527 -0.3180 -0.1094  0.3741
13111TIP3    H160824   1.397   0.221  31.608 -0.6715  0.5840 -0.0126
13111TIP3    H260825   1.371   0.179  31.465 -0.0508 -0.6278  0.2104
13112TIP3   OH260826   0.224   2.384  10.923 -0.1100  0.2364 -0.0024
13112TIP3    H160827   0.181   2.408  11.006  1.8722  2.6279  0.4241
13112TIP3    H260828   0.219   2.288  10.922 -2.4430  0.2423  1.6024
13113TIP3   OH260829   2.575   2.924  44.175  0.1506  0.0576  0.2625
13113TIP3    H160830   2.643   2.862  44.199  0.7724  0.9760  0.9531
13113TIP3    H260831   2.612   3.010  44.196 -1.1389  0.5940  0.4652
13114TIP3   OH260832   0.405   1.198  16.429 -0.0567  0.2681  0.0110
13114TIP3    H160833   0.414   1.262  16.359  0.9568  1.1006  0.8734
13114TIP3    H260834   0.491   1.195  16.471 -0.1225 -1.5286  0.1087
13115TIP3   OH260835   2.089   3.345  26.750 -0.0547 -0.2373 -0.4329
13115TIP3    H160836   2.011   3.333  26.805  0.2912  0.7521  0.3168
13115TIP3    H260837   2.157   3.375  26.812  0.7401 -0.4776 -1.1745
13116TIP3   OH260838   3.938   2.660  38.078 -0.3721  0.2972  0.2815
13116TIP3    H160839   3.983   2.667  38.162 -0.5493 -1.2259  0.5225
13116TIP3    H260840   3.926   2.566  38.065  2.7849  0.1575 -3.1348
13117TIP3   OH260841   1.432   2.648  39.604  0.4980 -0.0337 -0.5885
13117TIP3    H160842   1.341   2.672  39.618  0.9681  0.6061  1.9856
13117TIP3    H260843   1.452   2.676  39.515 -1.7228  0.0280 -1.1045
13118TIP3   OH260844   3.892   0.420  10.526  0.3747  0.1036  0.3011
13118TIP3    H160845   3.872   0.338  10.481  0.3685  0.3753 -0.2040
13118TIP3    H260846   3.973   0.403  10.573  0.7166 -0.0113 -0.3097
13119TIP3   OH260847   1.502   3.488  39.008 -0.2422  0.2599 -0.1408
13119TIP3    H160848   1.504   3.570  39.056 -1.1471  0.5770 -0.6228
13119TIP3    H260849   1.502   3.514  38.916  0.0140 -0.3018 -0.3089
13120TIP3   OH260850   0.206   3.535  11.939  0.9557  0.4075 -0.2278
13120TIP3    H160851   0.161   3.453  11.961  0.4528  0.7332 -0.0319
13120TIP3    H260852   0.247   3.518  11.854  0.0838  0.2521 -0.6229
13121TIP3   OH260853   3.322   0.206  33.075 -0.0674 -0.2537 -0.3714
13121TIP3    H160854   3.288   0.284  33.032  2.4391  0.6332 -0.9088
13121TIP3    H260855   3.329   0.231  33.167  0.4709  0.0802 -0.4970
13122TIP3   OH260856   3.122   3.051  11.465 -0.6993 -1.0054  0.2113
13122TIP3    H160857   3.142   3.017  11.552 -1.7000 -2.7117 -0.1685
13122TIP3    H260858   3.026   3.047  11.460 -0.6703 -0.6536 -0.8642
13123TIP3   OH260859   2.396   0.370  38.922 -0.7139  0.4553 -0.2499
13123TIP3    H160860   2.397   0.275  38.931 -0.7050  0.4064 -0.7197
13123TIP3    H260861   2.314   0.388  38.877 -0.0451  0.5357 -1.4744
13124TIP3   OH260862   2.991   2.795   5.574  0.3796  0.5230  0.2099
13124TIP3    H160863   3.075   2.799   5.621  1.2407 -0.1423 -1.2122
13124TIP3    H260864   2.992   2.709   5.532 -1.7233 -0.1465  1.4059
13125TIP3   OH260865   2.599   1.961  15.186  0.4227 -0.0375 -0.0758
13125TIP3    H160866   2.553   1.930  15.108  0.5664  0.6911 -0.4500
13125TIP3    H260867   2.536   1.948  15.257 -0.7552  1.8444 -0.7090
13126TIP3   OH260868   1.740   1.391   3.893 -0.3764  0.1576  0.7265
13126TIP3    H160869   1.690   1.403   3.812 -3.3504 -1.8243  2.0819
13126TIP3    H260870   1.830   1.374   3.863 -1.5289 -1.5326 -2.2836
13127TIP3   OH260871   3.488   3.520  46.498 -0.2248 -0.1583  0.4522
13127TIP3    H160872   3.426   3.449  46.512  1.0004 -1.4418 -0.3560
13127TIP3    H260873   3.491   3.531  46.402  1.8746 -1.1964  0.3281
13128TIP3   OH260874   4.040   3.734   4.149  0.3956 -0.0017  0.1449
13128TIP3    H160875   3.970   3.798   4.140 -0.5594 -0.6079  2.4251
13128TIP3    H260876   4.016   3.683   4.227  3.5958  0.0746  1.3612
13129TIP3   OH260877   2.261   0.072   2.140 -0.0905 -0.1932 -0.4417
13129TIP3    H160878   2.317   0.013   2.190 -0.8939 -0.4994  0.1055
13129TIP3    H260879   2.321   0.139   2.107  0.5023 -0.1570  0.6728
13130TIP3   OH260880   1.781   2.362  31.431  0.0662 -0.6377 -0.2001
13130TIP3    H160881   1.772   2.416  31.353  0.4766 -2.8819 -1.9217
13130TIP3    H260882   1.868   2.383  31.465 -0.1789  0.4751 -0.2385
13131TIP3   OH260883   2.683   0.627  36.036  0.5004  0.0609 -0.3818
13131TIP3    H160884   2.773   0.632  36.067  0.4735  0.6566 -0.3781
13131TIP3    H260885   2.691   0.597  35.945  0.6218 -1.0128 -0.0283
13132TIP3   OH260886   0.920   0.889  35.386 -0.0678 -0.1866 -0.1278
13132TIP3    H160887   0.870   0.971  35.380 -1.1202 -0.8462 -0.7139
13132TIP3    H260888   1.011   0.917  35.394 -0.5546  1.1121  2.0458
13133TIP3   OH260889   1.967   3.442   2.950  0.6079  0.1173 -0.0864
13133TIP3    H160890   2.032   3.426   3.019  0.5778  1.7415  0.3592
13133TIP3    H260891   1.982   3.533   2.924 -2.1128  0.9002  0.7322
13134TIP3   OH260892   2.208   1.843  46.358  0.3273 -0.2378 -0.3249
13134TIP3    H160893   2.165   1.902  46.297 -0.7644  0.6442  1.2283
13134TIP3    H260894   2.164   1.759  46.345 -0.7664  0.2529  0.0948
13135TIP3   OH260895   2.867   2.098  10.916  0.1492  0.1829  0.4048
13135TIP3    H160896   2.789   2.153  10.921 -0.9693 -1.0034 -2.1558
13135TIP3    H260897   2.857   2.035  10.987 -0.7062  0.6569  0.7182
13136TIP3   OH260898   3.623   2.850   7.734  0.1690  0.1002  0.3997
13136TIP3    H160899   3.579   2.922   7.779 -0.2342 -1.0958  1.9976
13136TIP3    H260900   3.687   2.818   7.797  1.2874 -0.0960 -0.7935
13137TIP3   OH260901   1.483   2.113  36.010 -0.0029 -0.0023 -0.3793
13137TIP3    H160902   1.567   2.151  36.035  0.1317 -0.4840 -0.0890
13137TIP3    H260903   1.487   2.023  36.042 -0.9510  0.2110  0.3723
13138TIP3   OH260904   1.346   3.886  32.090  0.1677  0.5269  0.0121
13138TIP3    H160905   1.388   3.821  32.146  1.0068 -0.0235 -1.2235
13138TIP3    H260906   1.256   3.891  32.123  0.9352  1.1911  2.2458
13139TIP3   OH260907   3.913   3.479  45.154  0.2541 -0.3125  0.2519
13139TIP3    H160908   3.946   3.391  45.139  0.4788 -0.0251 -1.0603
13139TIP3    H260909   3.971   3.536  45.105 -1.0184  0.3892 -0.5052
13140TIP3   OH260910   1.249   1.362  41.874  0.0213  0.1004  0.0523
13140TIP3    H160911   1.165   1.401  41.849 -0.0621 -0.8362 -1.2936
13140TIP3    H260912   1.259   1.288  41.814  1.1051 -0.7179  1.1922
13141TIP3   OH260913   3.420   1.915  41.121  0.2252  0.5669 -0.8104
13141TIP3    H160914   3.335   1.875  41.102 -0.0905  0.8725 -0.0757
13141TIP3    H260915   3.482   1.843  41.114  0.0717  0.5481 -2.4353
13142TIP3   OH260916   2.075   1.221  13.438 -0.0458 -0.2270  0.0058
13142TIP3    H160917   1.980   1.229  13.446 -0.1293 -2.3806  2.6079
13142TIP3    H260918   2.088   1.171  13.357 -1.0371  0.7961 -0.8165
13143TIP3   OH260919   0.011   1.548  16.001 -0.0568  0.6490  0.1930
13143TIP3    H160920   0.048   1.480  16.058 -0.0405  1.7614  1.5658
13143TIP3    H260921   0.012   1.627  16.055  0.5632  1.9109 -1.5890
13144TIP3   OH260922   2.047   3.958  14.021 -0.2342 -0.0744 -0.5474
13144TIP3    H160923   2.048   3.862  14.015 -1.3882 -0.0988 -0.5458
13144TIP3    H260924   2.139   3.982  14.034 -0.1825 -1.3472  2.2362
13145TIP3   OH260925   0.538   3.678  37.252 -0.8428 -0.0639  0.4637
13145TIP3    H160926   0.545   3.653  37.344 -0.7841 -1.0567  0.1961
13145TIP3    H260927   0.543   3.774  37.253  1.2899 -0.1322  1.3075
13146TIP3   OH260928   0.972   3.615  15.160  0.4977  0.5166 -0.4304
13146TIP3    H160929   1.044   3.677  15.171  1.0732 -0.3074  0.6072
13146TIP3    H260930   0.976   3.559  15.237 -2.5421  1.7040  0.7155
13147TIP3   OH260931   3.563   3.682  44.799  0.5527  0.2685 -0.6693
13147TIP3    H160932   3.558   3.777  44.792 -0.6486  0.0957 -3.1231
13147TIP3    H260933   3.475   3.656  44.826  0.7411 -0.1951 -0.4895
13148TIP3   OH260934   3.859   3.241   7.597  0.1272 -1.0333  0.0025
13148TIP3    H160935   3.914   3.277   7.667 -1.0875 -0.1720  0.5446
13148TIP3    H260936   3.773   3.280   7.611 -0.0378 -0.4346 -2.2981
13149TIP3   OH260937   3.566   3.628  42.590  0.1579  0.1970 -0.2239
13149TIP3    H160938   3.557   3.701  42.528  0.5151 -0.1956 -0.7551
13149TIP3    H260939   3.656   3.636  42.622  0.2313 -0.0614 -0.3594
13150TIP3   OH260940   3.268   1.030  12.864 -0.2572 -0.2155 -0.1123
13150TIP3    H160941   3.273   1.083  12.943  0.1374 -0.5577  0.0952
13150TIP3    H260942   3.206   1.077  12.808  0.1848  0.5361  0.0121
13151TIP3   OH260943   0.080   3.408  26.575 -0.4486  0.4243  0.9786
13151TIP3    H160944   0.175   3.424  26.575 -0.3128 -0.3311  0.3911
13151TIP3    H260945   0.055   3.413  26.667  0.0156  1.4280  1.0677
13152TIP3   OH260946   3.393   0.055   8.748  0.3553  0.1570  0.2894
13152TIP3    H160947   3.342   0.068   8.668 -0.2441 -0.4721  0.5597
13152TIP3    H260948   3.397   0.141   8.789 -0.0264  0.3214 -0.0130
13153TIP3   OH260949   2.598   0.951   9.850 -0.2174 -0.6382  0.0289
13153TIP3    H160950   2.686   0.912   9.847 -0.1441 -0.6096  1.2206
13153TIP3    H260951   2.565   0.942   9.761  1.5690  0.7066 -0.8504
13154TIP3   OH260952   3.107   2.583  40.631  0.3111  0.0946 -0.2704
13154TIP3    H160953   3.036   2.523  40.608 -0.0116  0.3010  0.1790
13154TIP3    H260954   3.063   2.660  40.667  0.8221 -0.8958  2.7536
13155TIP3   OH260955   1.507   3.856  43.998 -0.3053  0.2174  0.4052
13155TIP3    H160956   1.516   3.938  43.949  0.9199  0.2629  0.6652
13155TIP3    H260957   1.578   3.859  44.062 -1.5838 -0.0538  1.9059
13156TIP3   OH260958   2.005   2.436  39.013 -0.4072 -0.5039  0.2548
13156TIP3    H160959   1.946   2.432  38.938  0.0488 -1.0443 -0.0840
13156TIP3    H260960   1.962   2.495  39.074 -0.3269  0.7386 -0.8384
13157TIP3   OH260961   3.715   0.787   9.920 -0.6521 -0.6319 -0.8392
13157TIP3    H160962   3.749   0.706   9.884  0.1003 -0.2494 -1.0117
13157TIP3    H260963   3.707   0.771  10.014 -0.4128 -0.8697 -0.8610
13158TIP3   OH260964   2.568   1.797   9.967 -0.0075  0.1429 -0.3585
13158TIP3    H160965   2.630   1.754   9.908 -1.0425 -0.5686 -0.9584
13158TIP3    H260966   2.623   1.849  10.026  1.2689 -1.6554  0.1274
13159TIP3   OH260967   1.385   1.911  32.837 -0.3921  0.1272 -0.5736
13159TIP3    H160968   1.323   1.878  32.903 -1.3800 -2.1618 -2.4972
13159TIP3    H260969   1.411   1.833  32.787  1.7695  1.4868 -1.7477
13160TIP3   OH260970   0.462   0.481  10.805 -0.2480  0.7527  0.7769
13160TIP3    H160971   0.475   0.474  10.900  0.3907  0.1233  0.6552
13160TIP3    H260972   0.544   0.518  10.772  0.2643 -0.7101  0.2882
13161TIP3   OH260973   3.380   0.595  41.897 -0.1369 -0.4251 -0.1518
13161TIP3    H160974   3.446   0.576  41.964 -1.4842 -1.7521  0.8662
13161TIP3    H260975   3.320   0.656  41.939  0.1225  0.3618 -0.8889
13162TIP3   OH260976   1.850   3.482   2.275  0.7256  0.1758  0.1391
13162TIP3    H160977   1.777   3.444   2.224  0.8993  1.5282 -1.1690
13162TIP3    H260978   1.854   3.573   2.247  2.2313  0.4065  1.0261
13163TIP3   OH260979   1.633   3.667  30.891 -0.8547  0.3002  0.3819
13163TIP3    H160980   1.687   3.730  30.938 -0.5087  1.6557 -1.6963
13163TIP3    H260981   1.693   3.597  30.865  0.0755  1.8628 -2.0267
13164TIP3   OH260982   2.584   2.052  41.028  0.3260 -0.3681 -0.0843
13164TIP3    H160983   2.533   2.025  41.105  1.0910  0.9328  0.9326
13164TIP3    H260984   2.520   2.052  40.957 -1.5580  2.4360  1.3825
13165TIP3   OH260985   1.608   1.818   3.372  0.3856  0.2140  0.2689
13165TIP3    H160986   1.667   1.831   3.297 -0.0336  0.9950  0.0606
13165TIP3    H260987   1.522   1.845   3.340  0.1904  0.5075  1.0118
13166TIP3   OH260988   2.604   1.713  14.370 -0.4115  0.5020 -0.7990
13166TIP3    H160989   2.621   1.732  14.277  0.3464  1.3241 -0.5100
13166TIP3    H260990   2.524   1.762  14.390  0.0324  1.2334 -0.7563
13167TIP3   OH260991   3.427   2.542  12.852  0.3227  0.4270 -0.3942
13167TIP3    H160992   3.493   2.497  12.905  1.5288  2.3184 -0.1685
13167TIP3    H260993   3.362   2.475  12.832  1.3372 -1.0566  0.9974
13168TIP3   OH260994   3.834   2.396  42.230  0.5001 -0.2002  0.0485
13168TIP3    H160995   3.904   2.445  42.273  0.2720  0.1769 -0.0087
13168TIP3    H260996   3.770   2.462  42.205  0.6013 -0.4241 -0.8272
13169TIP3   OH260997   2.137   3.619  35.290  0.1089  0.2761  0.0257
13169TIP3    H160998   2.194   3.684  35.331 -0.0517  0.2398  0.3110
13169TIP3    H260999   2.138   3.641  35.197 -0.5127  1.1455  0.2081
13170TIP3   OH261000   0.696   4.021  47.172  0.5737 -0.1883 -0.0342
13170TIP3    H161001   0.604   4.003  47.191  0.6179 -0.4578 -0.0674
13170TIP3    H261002   0.737   4.030  47.258  1.0106 -2.6027  0.0813
13171TIP3   OH261003   3.720   3.099   1.398 -0.1628  0.3573  0.1263
13171TIP3    H161004   3.796   3.157   1.393  0.1950 -0.0844  0.3529
13171TIP3    H261005   3.647   3.153   1.369  0.3641  0.5611 -0.8826
13172TIP3   OH261006   2.222   3.504  32.541  0.2816 -0.0950 -0.4107
13172TIP3    H161007   2.245   3.591  32.573  0.0307 -0.3301  0.4206
13172TIP3    H261008   2.199   3.517  32.449  1.8755  0.4480 -0.7594
13173TIP3   OH261009   1.262   1.801  39.070  0.4997  0.0398 -0.3202
13173TIP3    H161010   1.311   1.776  39.148 -0.2514 -0.8819 -0.1205
13173TIP3    H261011   1.178   1.831  39.104  0.3476  0.0915 -0.7432
13174TIP3   OH261012   0.040   2.413  14.074 -0.2735  0.0117 -0.3645
13174TIP3    H161013   0.122   2.373  14.102 -0.7190  0.6665  2.0960
13174TIP3    H261014  -0.020   2.340  14.063  0.2863 -0.3669 -0.9810
13175TIP3   OH261015   0.146   1.026  42.590 -0.5149 -0.1165  0.4229
13175TIP3    H161016   0.137   1.113  42.629 -1.1879  0.7622 -1.5365
13175TIP3    H261017   0.143   0.966  42.664 -0.4509  1.4982  1.7980
13176TIP3   OH261018   3.404   1.744  40.591  0.5170  0.1732 -0.0266
13176TIP3    H161019   3.442   1.729  40.677 -1.9784  0.6777  1.2578
13176TIP3    H261020   3.325   1.690  40.590  0.3430  0.3989 -1.9124
13177TIP3   OH261021   1.165   1.949   9.828 -0.3421 -0.5431 -0.1676
13177TIP3    H161022   1.215   1.918   9.752 -0.1783  0.2445 -0.3892
13177TIP3    H261023   1.077   1.914   9.813 -0.1102 -1.0846 -0.2961
13178TIP3   OH261024   3.234   1.020   0.187  0.2336 -0.2592  0.2043
13178TIP3    H161025   3.143   0.998   0.204 -0.2214  0.9999 -0.5435
13178TIP3    H261026   3.232   1.108   0.151  1.8634  0.4069  1.5723
13179TIP3   OH261027   1.059   1.692   1.037 -0.6255  0.0598 -0.4002
13179TIP3    H161028   1.095   1.768   0.991 -1.9638 -0.4917 -2.4950
13179TIP3    H261029   0.971   1.718   1.062 -0.4620 -0.2073  0.4907
13180TIP3   OH261030   3.518   3.240  47.323 -0.5115  0.0266 -0.1857
13180TIP3    H161031   3.503   3.308  47.389 -0.8308  1.4679 -1.6890
13180TIP3    H261032   3.451   3.174  47.342 -1.0368  0.7395  0.5205
13181TIP3   OH261033   0.745   0.281  37.154 -0.7898 -0.2655 -0.6597
13181TIP3    H161034   0.721   0.367  37.186 -0.0898  0.2279 -1.4311
13181TIP3    H261035   0.775   0.296  37.065  2.2186 -0.8224  0.1574
13182TIP3   OH261036   3.357   0.952  38.876  0.0830 -0.8685 -0.1577
13182TIP3    H161037   3.299   1.028  38.885 -0.3918 -0.9805 -1.9288
13182TIP3    H261038   3.376   0.926  38.966 -0.5610  0.7259  0.4770
13183TIP3   OH261039   1.627   1.032  42.864  0.3432 -0.0415  0.4171
13183TIP3    H161040   1.583   0.947  42.858 -2.4179  1.3112 -0.1744
13183TIP3    H261041   1.592   1.082  42.790  1.5517  1.7520  0.9997
13184TIP3   OH261042   3.559   1.921   8.714  0.0036 -0.4556  0.4154
13184TIP3    H161043   3.492   1.853   8.708 -1.1732  0.7877 -1.8752
13184TIP3    H261044   3.527   1.981   8.782 -0.5636 -0.5498  0.2328
13185TIP3   OH261045   3.766   2.535   5.130  0.7877 -0.1545 -0.7712
13185TIP3    H161046   3.785   2.513   5.039  2.4626 -0.4602 -0.3837
13185TIP3    H261047   3.801   2.462   5.180  0.5021  0.3328  0.1673
13186TIP3   OH261048   3.272   0.170  26.215 -0.1375  0.2359 -0.5847
13186TIP3    H161049   3.321   0.194  26.294 -0.6327  0.3397 -0.3098
13186TIP3    H261050   3.314   0.220  26.145 -0.0414  0.5574 -0.3000
13187TIP3   OH261051   1.599   3.820  11.531 -0.0241 -0.1840  0.1065
13187TIP3    H161052   1.538   3.747  11.541 -1.4547  0.9607  0.0408
13187TIP3    H261053   1.603   3.835  11.437 -3.8282  3.0013  0.1781
13188TIP3   OH261054   3.655   1.989   7.086 -0.1466 -0.1648 -0.3182
13188TIP3    H161055   3.638   2.049   7.159 -0.0846 -0.9265  0.3302
13188TIP3    H261056   3.604   2.026   7.013 -1.0999 -0.0065  0.4061
13189TIP3   OH261057   3.893   0.580  45.490  0.6714 -0.7563  0.0465
13189TIP3    H161058   3.980   0.585  45.528  2.2475 -0.7805 -3.2229
13189TIP3    H261059   3.885   0.489  45.460 -0.0257 -0.4713 -0.6578
13190TIP3   OH261060   2.497   3.458  31.079  0.0781  0.2531 -0.3429
13190TIP3    H161061   2.592   3.472  31.084 -0.0577  1.7072 -1.3073
13190TIP3    H261062   2.463   3.539  31.041 -2.0178  1.3448  3.4286
13191TIP3   OH261063   2.685   2.856  37.450  0.1830 -0.1413 -0.5009
13191TIP3    H161064   2.670   2.853  37.545  1.9040  1.3361 -0.1162
13191TIP3    H261065   2.743   2.782  37.433 -0.8550 -0.9661 -0.6019
13192TIP3   OH261066   3.407   0.917   2.961 -0.7280 -0.1571  0.5277
13192TIP3    H161067   3.387   1.004   2.926  3.2998  0.6248 -0.2872
13192TIP3    H261068   3.407   0.861   2.884  1.1454  0.1265  0.2755
13193TIP3   OH261069   0.982   3.157   6.142  0.2817  0.1160 -0.1121
13193TIP3    H161070   1.001   3.184   6.232 -0.4328 -0.1351  0.1241
13193TIP3    H261071   0.926   3.226   6.108 -0.2106 -0.2496 -0.0513
13194TIP3   OH261072   3.153   2.331  45.329 -0.2064  0.5764 -0.2361
13194TIP3    H161073   3.196   2.259  45.283 -0.2011 -0.7220  1.6601
13194TIP3    H261074   3.213   2.353  45.400 -1.6958  0.0979  1.2542
13195TIP3   OH261075   1.601   0.525  27.023 -0.0459 -0.4848  0.4173
13195TIP3    H161076   1.581   0.557  27.111 -0.7624 -0.1659  0.1494
13195TIP3    H261077   1.522   0.546  26.972  0.1777 -1.0852 -0.1878
13196TIP3   OH261078   3.146   0.840   1.141  0.3817 -0.3365 -0.1872
13196TIP3    H161079   3.072   0.813   1.087  1.4685 -0.9256 -1.4738
13196TIP3    H261080   3.204   0.763   1.141  0.2295 -0.5105  2.2251
13197TIP3   OH261081   0.068   2.395  16.772  0.0307 -0.4054 -0.2181
13197TIP3    H161082  -0.027   2.406  16.775  0.1430  0.7821 -0.3065
13197TIP3    H261083   0.102   2.484  16.760  1.1336 -0.8664 -0.6759
13198TIP3   OH261084   0.054   3.465   2.284 -0.0196  0.2444 -0.1764
13198TIP3    H161085  -0.002   3.442   2.209  0.7495 -0.1979 -0.6275
13198TIP3    H261086   0.056   3.386   2.337 -1.6365  0.9593  1.0375
13199TIP3   OH261087   2.912   3.325  29.598  0.5572  0.1118  0.4123
13199TIP3    H161088   2.849   3.397  29.589 -0.6421 -0.9282  0.2086
13199TIP3    H261089   2.989   3.366  29.636  0.1591  1.6462 -0.3330
13200TIP3   OH261090   3.403   0.610  47.601  0.0261 -0.4322  0.1931
13200TIP3    H161091   3.390   0.673  47.530 -0.4262 -0.9039 -0.1500
13200TIP3    H261092   3.381   0.659  47.680  0.8177  0.1837  0.0411
13201TIP3   OH261093   0.397   1.932   5.895 -1.0402 -0.2990  0.4580
13201TIP3    H161094   0.421   1.917   5.804  0.1127 -0.6810  0.8138
13201TIP3    H261095   0.440   2.015   5.918  0.4648 -1.2594  1.2603
13202TIP3   OH261096   1.640   1.363  39.763 -0.4304  0.3645 -0.3892
13202TIP3    H161097   1.679   1.451  39.762 -1.7765  1.0150  0.6930
13202TIP3    H261098   1.546   1.379  39.753 -0.8398 -0.8496  1.2868
13203TIP3   OH261099   1.154   1.260  36.461  0.4054 -0.3090 -0.6822
13203TIP3    H161100   1.166   1.175  36.502  0.9234  0.7688  1.5891
13203TIP3    H261101   1.154   1.322  36.535  2.7790  1.9275 -2.3794
13204TIP3   OH261102   1.741   3.369   7.530 -0.4218  0.1672 -0.0586
13204TIP3    H161103   1.794   3.382   7.608 -1.5026  0.4445  0.6585
13204TIP3    H261104   1.658   3.413   7.550 -0.2048  1.5802 -1.9482
13205TIP3   OH261105   0.903   0.466  35.996 -0.4838 -0.4425  0.4943
13205TIP3    H161106   0.809   0.448  35.993 -0.0888 -2.8317  0.7337
13205TIP3    H261107   0.914   0.543  35.941 -2.4807 -0.6507 -0.2767
13206TIP3   OH261108   4.090   1.899  42.324  0.3509 -0.4802 -0.1629
13206TIP3    H161109   4.125   1.881  42.237  0.7713  0.1951 -0.1432
13206TIP3    H261110   4.061   1.814  42.357  0.3959 -0.7735 -0.8726
13207TIP3   OH261111   0.433   0.310  25.922  0.0171  0.1244  0.1539
13207TIP3    H161112   0.470   0.390  25.885  0.4995  0.0665  0.4926
13207TIP3    H261113   0.381   0.273  25.852 -1.8256  1.7349  0.5759
13208TIP3   OH261114   2.618   0.277  37.907  0.1006 -0.3869 -0.0920
13208TIP3    H161115   2.611   0.302  38.000 -2.0744  0.6109 -0.4729
13208TIP3    H261116   2.533   0.300  37.869  1.7105  1.6150 -2.9021
13209TIP3   OH261117   1.973   2.310   7.415 -0.0465  0.3073  0.3919
13209TIP3    H161118   1.902   2.266   7.462 -0.1440  1.7704  1.6970
13209TIP3    H261119   1.930   2.361   7.347 -0.1060  0.0057  0.2020
13210TIP3   OH261120   0.706   1.622  16.733 -0.0163 -0.2772 -0.2418
13210TIP3    H161121   0.663   1.684  16.674 -1.0671 -0.6180  0.1445
13210TIP3    H261122   0.713   1.669  16.816  0.6709 -0.1090 -0.3888
13211TIP3   OH261123   1.743   2.557   6.690  0.3614 -0.2894 -0.2455
13211TIP3    H161124   1.820   2.562   6.633 -0.1641  2.2497 -0.8452
13211TIP3    H261125   1.733   2.645   6.725 -2.4145 -0.4564 -0.3908
13212TIP3   OH261126   1.659   2.379  19.488  0.5200 -0.0145  0.7537
13212TIP3    H161127   1.690   2.454  19.437  1.2990  0.6357  2.1392
13212TIP3    H261128   1.629   2.316  19.422 -0.5848  1.6768 -0.4361
13213TIP3   OH261129   2.081   2.821   6.503 -0.6727  0.4201  0.3783
13213TIP3    H161130   2.067   2.801   6.411  0.7917 -1.4308  0.5179
13213TIP3    H261131   2.028   2.899   6.519  0.0755  1.5877 -2.3488
13214TIP3   OH261132   0.882   2.536  46.253  1.1027 -0.4391  0.5377
13214TIP3    H161133   0.974   2.531  46.278  1.1304 -1.6883  0.2516
13214TIP3    H261134   0.854   2.444  46.247 -0.6860 -0.1100  2.5337
13215TIP3   OH261135   3.237   1.015   3.563 -0.1718  0.0059 -0.6229
13215TIP3    H161136   3.257   1.096   3.611  0.2532 -1.0523  1.0785
13215TIP3    H261137   3.302   1.013   3.492  1.5001 -0.0633  0.8336
13216TIP3   OH261138   1.734   1.021  35.112  0.8638  0.5963 -0.0857
13216TIP3    H161139   1.749   1.055  35.200  1.8827  2.5769 -0.9630
13216TIP3    H261140   1.820   0.992  35.082  0.6005  0.3263 -0.6007
13217TIP3   OH261141   2.509   4.023  15.394  0.0674 -0.4506 -0.3933
13217TIP3    H161142   2.591   4.052  15.354 -0.0829 -1.0482 -1.1567
13217TIP3    H261143   2.499   3.933  15.365  0.5685 -1.3447  1.9913
13218TIP3   OH261144   0.935   1.222  13.968 -0.2592 -0.0153  0.8847
13218TIP3    H161145   0.945   1.203  14.062  1.0251 -1.3445  0.5123
13218TIP3    H261146   0.844   1.202  13.949 -0.5361  0.2764  1.8468
13219TIP3   OH261147   3.444   1.368  33.395  0.3914 -0.3262 -0.0788
13219TIP3    H161148   3.512   1.306  33.423 -0.0205 -0.9284 -0.3874
13219TIP3    H261149   3.392   1.383  33.474 -0.0109 -1.0382 -0.2025
13220TIP3   OH261150   2.745   2.267  41.103  0.2818  0.3547 -0.9893
13220TIP3    H161151   2.672   2.273  41.041 -1.6841  1.9558  1.2764
13220TIP3    H261152   2.752   2.174  41.124 -1.5112  0.2175 -0.8652
13221TIP3   OH261153   0.162   0.147   7.479  0.3589 -0.0883 -0.0341
13221TIP3    H161154   0.193   0.212   7.417  0.9500  0.0797  0.4188
13221TIP3    H261155   0.184   0.183   7.565 -2.0005  0.4983  0.3911
13222TIP3   OH261156   3.019   2.738   0.483  0.1097  0.3810  0.3609
13222TIP3    H161157   2.985   2.699   0.563 -1.4060  2.7699  0.9760
13222TIP3    H261158   2.945   2.786   0.445  1.3002  0.9423 -1.4195
13223TIP3   OH261159   0.415   1.374   6.691  0.2538 -0.4882 -0.2171
13223TIP3    H161160   0.365   1.437   6.744  0.3368 -0.6779  0.0892
13223TIP3    H261161   0.505   1.407   6.694  0.1813 -0.2430 -0.6247
13224TIP3   OH261162   2.613   0.567  37.560 -0.2014 -0.0181  0.4874
13224TIP3    H161163   2.566   0.601  37.637  2.1826  3.7179  0.5791
13224TIP3    H261164   2.581   0.620  37.487 -0.0210 -1.1890 -0.4619
13225TIP3   OH261165   2.443   4.068  26.580 -0.4763 -0.3781 -0.5952
13225TIP3    H161166   2.392   4.135  26.535  0.6307  2.6683  2.2577
13225TIP3    H261167   2.533   4.083  26.550 -0.6007 -3.5122 -3.0559
13226TIP3   OH261168   4.013   3.358   0.293 -0.0066 -0.1462 -0.4955
13226TIP3    H161169   4.019   3.341   0.199 -0.2485 -1.1954 -0.3299
13226TIP3    H261170   3.928   3.324   0.319  0.9209 -1.8753  0.4870
13227TIP3   OH261171   0.070   2.368  11.168  0.0190 -0.1926  0.0541
13227TIP3    H161172   0.078   2.272  11.170  1.0688 -0.1474 -0.6636
13227TIP3    H261173   0.094   2.396  11.256 -0.7272 -0.6052  0.3989
13228TIP3   OH261174   0.431   2.396  37.630 -0.1841 -0.3363  0.1963
13228TIP3    H161175   0.480   2.315  37.640  0.7765  0.2858  0.6369
13228TIP3    H261176   0.495   2.465  37.646 -0.8992  0.5221 -0.5382
13229TIP3   OH261177   3.565   0.962   2.162 -0.2898  0.0289 -0.0508
13229TIP3    H161178   3.489   0.998   2.117  0.4087  1.6157 -0.0263
13229TIP3    H261179   3.614   0.915   2.094 -0.3159  0.6261 -0.4849
13230TIP3   OH261180   3.826   0.998  44.197 -0.0707 -0.1734 -0.3450
13230TIP3    H161181   3.809   0.910  44.162  0.1372 -1.6908  3.0405
13230TIP3    H261182   3.747   1.048  44.174 -1.8893 -2.3439  0.7777
13231TIP3   OH261183   3.980   0.749   6.706 -0.3733  0.0776  0.3280
13231TIP3    H161184   4.030   0.737   6.787  0.7071 -0.7671 -0.4387
13231TIP3    H261185   4.025   0.821   6.661  1.1301 -1.6586 -1.0562
13232TIP3   OH261186   0.347   3.325   9.808 -0.5365 -0.0400 -0.2484
13232TIP3    H161187   0.305   3.387   9.748 -0.9645 -0.1005 -0.0131
13232TIP3    H261188   0.413   3.280   9.754  0.2785  1.1071 -0.2518
13233TIP3   OH261189   3.751   2.124   2.890  0.3496 -0.1114 -0.2307
13233TIP3    H161190   3.680   2.109   2.954  1.9855  1.3261  2.0848
13233TIP3    H261191   3.829   2.091   2.934  1.6506  1.4911 -1.2533
13234TIP3   OH261192   2.850   0.908  12.730 -0.4321 -0.8485 -0.2198
13234TIP3    H161193   2.785   0.926  12.662 -2.0530 -0.6201  1.3310
13234TIP3    H261194   2.929   0.884  12.681 -1.1696  0.4631 -2.2034
13235TIP3   OH261195   1.832   3.556  46.461 -0.0371  0.1195  0.5005
13235TIP3    H161196   1.834   3.530  46.368  1.5443  0.3107  0.4471
13235TIP3    H261197   1.746   3.596  46.473 -0.1566  0.3649 -0.9726
13236TIP3   OH261198   0.599   1.238  10.151  0.5626 -0.2323 -0.0319
13236TIP3    H161199   0.688   1.242  10.115  1.1205 -1.3093  1.1556
13236TIP3    H261200   0.603   1.286  10.233 -0.0347 -0.0168 -0.1215
13237TIP3   OH261201   1.508   3.914  42.588 -0.1598  0.3326  0.0539
13237TIP3    H161202   1.452   3.860  42.532 -1.3092  1.4536  0.0761
13237TIP3    H261203   1.551   3.851  42.646 -0.7571 -0.6422 -0.5263
13238TIP3   OH261204   1.253   2.206  38.161  0.1520 -0.2815 -0.4557
13238TIP3    H161205   1.309   2.248  38.095  2.7559 -2.9789 -0.1931
13238TIP3    H261206   1.209   2.279  38.205  2.3276  1.9629 -1.7235
13239TIP3   OH261207   0.770   0.158  29.315  0.4417  0.3089 -0.6160
13239TIP3    H161208   0.746   0.239  29.359 -0.7486 -0.1563 -0.3688
13239TIP3    H261209   0.834   0.117  29.374 -1.2062 -0.3557  0.7965
13240TIP3   OH261210   3.734   2.695  31.666 -0.2078 -0.2526  0.6720
13240TIP3    H161211   3.681   2.649  31.731  1.5702 -0.2257  2.2244
13240TIP3    H261212   3.807   2.636  31.648 -1.4391 -0.9705 -2.5942
13241TIP3   OH261213   3.237   0.079  46.503 -0.0469 -0.2309  0.0995
13241TIP3    H161214   3.321   0.124  46.497  0.1920 -0.8150 -1.9356
13241TIP3    H261215   3.260  -0.014  46.501 -0.6590 -0.4376  1.6654
13242TIP3   OH261216   1.348   2.861  45.095 -0.2065  0.2043 -0.0663
13242TIP3    H161217   1.271   2.894  45.049 -0.3747  0.6378  0.5093
13242TIP3    H261218   1.337   2.892  45.185 -0.1943 -1.1628  0.4193
13243TIP3   OH261219   0.958   0.086  25.833 -0.1052 -0.4919  0.2883
13243TIP3    H161220   1.038   0.127  25.867 -0.3808  0.8246 -0.5811
13243TIP3    H261221   0.989   0.024  25.767  0.2096 -0.0155 -0.0179
13244TIP3   OH261222   3.204   4.002  26.241  0.4558 -0.1361  0.2994
13244TIP3    H161223   3.257   3.994  26.162 -1.4617  0.5977 -1.1436
13244TIP3    H261224   3.209   4.095  26.263 -0.3693 -0.0217  0.0256
13245TIP3   OH261225   0.582   2.254  45.164  0.1246 -0.4071 -0.0443
13245TIP3    H161226   0.569   2.250  45.259 -1.4618  0.0722 -0.2115
13245TIP3    H261227   0.616   2.342  45.149 -1.0452  0.0521 -0.0542
13246TIP3   OH261228   2.809   1.366  44.440  0.2076 -0.0749  0.2009
13246TIP3    H161229   2.823   1.423  44.364  0.0730  0.7791  0.7932
13246TIP3    H261230   2.894   1.364  44.484  0.1524 -0.1476  0.3074
13247TIP3   OH261231   2.341   4.074  39.029  0.5196  0.2436 -0.0632
13247TIP3    H161232   2.410   4.012  39.052  1.6931  1.7015  0.5109
13247TIP3    H261233   2.260   4.023  39.033  1.4594 -1.2749  0.2011
13248TIP3   OH261234   3.814   0.995  43.522 -0.4769  0.2586  0.5731
13248TIP3    H161235   3.819   1.074  43.469 -3.3904  1.2887  1.6086
13248TIP3    H261236   3.765   0.933  43.467  0.5774 -0.3459  0.3048
13249TIP3   OH261237   1.146   2.985  40.339  0.1840 -0.6044 -0.6603
13249TIP3    H161238   1.150   3.024  40.426  0.7350 -0.3094 -0.8145
13249TIP3    H261239   1.222   3.020  40.293 -0.7873  0.2621 -1.6913
13250TIP3   OH261240   1.639   2.857  35.749 -0.1734  0.0227  0.0775
13250TIP3    H161241   1.732   2.881  35.755 -0.6008  1.4869  1.2767
13250TIP3    H261242   1.628   2.787  35.814  0.4233 -1.4292 -1.3031
13251TIP3   OH261243   1.604   1.522   8.061  0.0563  0.0462 -0.4836
13251TIP3    H161244   1.635   1.492   7.976 -1.0035 -3.2146  0.1528
13251TIP3    H261245   1.665   1.485   8.124  1.7764  3.7122  0.2719
13252TIP3   OH261246   3.380   3.582   0.970  0.0027 -0.0980  0.1541
13252TIP3    H161247   3.305   3.527   0.990  0.3074 -1.0054 -1.0292
13252TIP3    H261248   3.342   3.662   0.934 -0.4258 -1.0886 -1.7271
13253TIP3   OH261249   1.160   0.476  47.468  0.1009 -0.0653  0.3466
13253TIP3    H161250   1.217   0.541  47.426 -0.4737 -1.3035 -2.6430
13253TIP3    H261251   1.080   0.523  47.488 -0.6165  0.1452 -2.4994
13254TIP3   OH261252   3.531   3.540   5.297  0.5924  0.0801 -0.1126
13254TIP3    H161253   3.571   3.519   5.212  1.5065 -1.2460  0.6057
13254TIP3    H261254   3.606   3.561   5.354  0.1551 -0.8039  0.8211
13255TIP3   OH261255   0.334   0.900   6.233  0.1286 -0.2066 -0.2517
13255TIP3    H161256   0.319   0.819   6.183  3.3122 -1.2470  0.2339
13255TIP3    H261257   0.396   0.950   6.180  0.3977  0.5917  0.7783
13256TIP3   OH261258   2.912   0.743   8.769 -0.2084 -0.0430  0.8877
13256TIP3    H161259   2.902   0.742   8.864 -2.5724  1.4535  0.7349
13256TIP3    H261260   2.905   0.835   8.744  0.8325 -0.3452 -0.7362
13257TIP3   OH261261   2.525   3.301  45.432 -0.0244 -0.1751  0.0773
13257TIP3    H161262   2.447   3.301  45.487 -0.3514  1.0917 -0.3454
13257TIP3    H261263   2.571   3.382  45.456  0.9764 -0.7212  0.0566
13258TIP3   OH261264   2.498   3.239   9.173 -0.3026 -0.4851  0.1495
13258TIP3    H161265   2.457   3.309   9.224  0.4709 -0.9385  1.4296
13258TIP3    H261266   2.512   3.277   9.086  1.0490  1.3079  1.0955
13259TIP3   OH261267   3.383   0.171  36.766  0.1219 -0.2939 -0.1308
13259TIP3    H161268   3.460   0.125  36.732 -0.3499 -0.4270 -1.0507
13259TIP3    H261269   3.418   0.227  36.835  0.8984 -1.0693  0.1320
13260TIP3   OH261270   1.346   3.434  32.204 -0.0423 -0.0309  0.1221
13260TIP3    H161271   1.380   3.366  32.145 -1.9254 -0.0681 -0.9749
13260TIP3    H261272   1.356   3.396  32.292  3.6489  0.3774  0.0539
13261TIP3   OH261273   3.191   1.169  35.263 -0.3669 -0.6031 -0.0527
13261TIP3    H161274   3.136   1.197  35.336 -0.4388  0.7357 -0.5944
13261TIP3    H261275   3.143   1.097  35.223 -0.4227 -1.2153  1.0793
13262TIP3   OH261276   3.936   2.572   2.442  0.4365  0.4276 -0.2768
13262TIP3    H161277   3.988   2.558   2.521  1.2924 -1.6125 -1.1201
13262TIP3    H261278   3.917   2.484   2.410 -1.6282  1.1770 -1.2633
13263TIP3   OH261279   1.575   3.591   2.212 -0.0442 -0.2116  0.1924
13263TIP3    H161280   1.573   3.617   2.120  1.2984 -2.5983 -0.6120
13263TIP3    H261281   1.484   3.569   2.233 -0.0181 -2.3074 -1.4936
13264TIP3   OH261282   3.506   3.865   4.166  0.5183  0.1269  0.0624
13264TIP3    H161283   3.420   3.843   4.202  1.1259 -1.1505  0.8154
13264TIP3    H261284   3.493   3.949   4.124 -1.5937 -0.9158 -1.5703
13265TIP3   OH261285   2.604   2.991  44.924  0.3423  0.0698 -0.4656
13265TIP3    H161286   2.589   3.078  44.960 -1.2825 -0.1305 -0.5599
13265TIP3    H261287   2.599   2.933  45.000 -3.9058 -0.4446 -0.8643
13266TIP3   OH261288   2.989   1.799  36.380  0.0065  0.4193  0.1541
13266TIP3    H161289   3.039   1.879  36.393 -0.2220  0.5481  0.2453
13266TIP3    H261290   2.981   1.790  36.285 -1.0487  1.1848  0.1603
13267TIP3   OH261291   1.626   2.318  13.578 -0.1865 -0.2748 -0.0308
13267TIP3    H161292   1.621   2.392  13.639 -0.8779  0.4837 -0.9637
13267TIP3    H261293   1.719   2.294  13.577  0.1112  0.8108  0.0375
13268TIP3   OH261294   2.234   1.325   3.644  0.3815 -0.1126 -0.4365
13268TIP3    H161295   2.185   1.350   3.566 -0.9085 -0.8862  0.0922
13268TIP3    H261296   2.222   1.398   3.705  0.9002  0.2252 -0.7251
13269TIP3   OH261297   2.668   1.795  41.692  0.0332 -0.0173  0.5108
13269TIP3    H161298   2.710   1.859  41.749 -0.7329 -1.5982  3.0436
13269TIP3    H261299   2.577   1.793  41.721 -0.3113 -1.1449 -0.5377
13270TIP3   OH261300   2.733   0.811  31.778  0.1531 -0.4896  0.2584
13270TIP3    H161301   2.823   0.778  31.771  0.8725  1.0481  1.5449
13270TIP3    H261302   2.743   0.897  31.820 -1.8398  0.1687 -0.5302
13271TIP3   OH261303   1.087   3.050  46.201 -0.2028  0.3699 -0.0957
13271TIP3    H161304   1.176   3.016  46.201  0.0778  1.0696  0.8517
13271TIP3    H261305   1.053   3.030  46.113  1.5576  1.8661 -1.1768
13272TIP3   OH261306   0.641   0.602  10.286  1.0289  0.3990  0.0041
13272TIP3    H161307   0.677   0.565  10.206  0.4164 -0.5317  0.1400
13272TIP3    H261308   0.662   0.695  10.282  0.0706  0.5761 -1.7635
13273TIP3   OH261309   0.807   2.458   3.843  0.1603  0.3937  0.3812
13273TIP3    H161310   0.778   2.388   3.902  1.4801  0.2416  0.8860
13273TIP3    H261311   0.847   2.523   3.901  1.0360  0.4672 -0.2773
13274TIP3   OH261312   1.563   0.206  11.988  0.2033 -0.6162 -1.2457
13274TIP3    H161313   1.545   0.112  11.995 -1.9919 -0.4318 -3.1452
13274TIP3    H261314   1.481   0.248  12.013  1.3775  0.8754  0.3052
13275TIP3   OH261315   3.139   2.201  31.319 -0.4627  0.2747  0.4289
13275TIP3    H161316   3.077   2.203  31.392  0.4455  1.7235  1.2263
13275TIP3    H261317   3.224   2.188  31.361  0.0892  1.2096 -0.3502
13276TIP3   OH261318   1.115   1.533  43.433  0.5051 -0.1579 -0.1924
13276TIP3    H161319   1.098   1.474  43.360  1.5053  0.2227 -0.7567
13276TIP3    H261320   1.167   1.604  43.395 -0.9103  1.2534  0.3993
13277TIP3   OH261321   4.094   1.589  37.692  0.3411  0.4757 -0.4869
13277TIP3    H161322   4.060   1.546  37.771  0.2403  0.8352 -0.3274
13277TIP3    H261323   4.182   1.554  37.682 -0.1121 -0.5727 -0.9747
13278TIP3   OH261324   3.827   3.477  43.034  0.0064  0.3668  0.5639
13278TIP3    H161325   3.755   3.539  43.022  0.3816  1.0268  1.5782
13278TIP3    H261326   3.796   3.418  43.103  0.7680  1.2247  1.6796
13279TIP3   OH261327   1.448   1.298  11.985  0.5425  0.1438 -0.1200
13279TIP3    H161328   1.495   1.222  12.018  1.1947  0.2764 -0.6935
13279TIP3    H261329   1.362   1.294  12.026  0.9292 -0.3197  0.6642
13280TIP3   OH261330   2.334   1.011  37.845  0.1192 -0.4345  0.3801
13280TIP3    H161331   2.240   1.002  37.860 -0.2207  2.7433  0.8627
13280TIP3    H261332   2.344   1.098  37.808  3.0233 -0.0962  1.6897
13281TIP3   OH261333   2.373   3.193  10.208  0.5527  0.4750 -0.3630
13281TIP3    H161334   2.331   3.279  10.213 -0.3262 -0.0142  3.0237
13281TIP3    H261335   2.464   3.210  10.231  0.5400  0.5991 -0.4018
13282TIP3   OH261336   2.144   0.112  40.077 -0.5636  0.0142  0.0511
13282TIP3    H161337   2.114   0.083  39.991  1.1021 -0.3907 -0.4358
13282TIP3    H261338   2.081   0.179  40.103 -0.9936  0.2969 -1.5805
13283TIP3   OH261339   1.771   2.512  38.841 -0.3041 -0.1437  0.0066
13283TIP3    H161340   1.686   2.543  38.810 -0.7164 -0.0581  1.1690
13283TIP3    H261341   1.835   2.568  38.797 -0.8674  0.1018 -0.5085
13284TIP3   OH261342   0.969   1.509  17.278  0.0975  0.2366 -0.4279
13284TIP3    H161343   1.017   1.457  17.214 -0.3909  0.2433 -0.8151
13284TIP3    H261344   0.994   1.600  17.260 -0.1389  0.2503 -0.7073
13285TIP3   OH261345   1.024   0.520  35.606  0.2865 -0.2129  0.3646
13285TIP3    H161346   0.979   0.439  35.631  0.0074  0.2196  1.3026
13285TIP3    H261347   1.116   0.495  35.598  0.1807 -0.6521  0.4767
13286TIP3   OH261348   3.726   0.850  38.663  0.2261 -0.2160 -0.5427
13286TIP3    H161349   3.660   0.781  38.673  1.6090 -1.2662  2.4101
13286TIP3    H261350   3.679   0.931  38.685 -0.7368 -0.5313 -1.3309
13287TIP3   OH261351   0.523   3.186  12.203  0.0035  0.0316  0.1310
13287TIP3    H161352   0.458   3.122  12.176  1.7681 -1.6161 -0.4737
13287TIP3    H261353   0.514   3.191  12.298 -3.1882  2.4170 -0.1348
13288TIP3   OH261354   3.634   1.856  17.182  0.9392  0.4382 -0.3200
13288TIP3    H161355   3.551   1.861  17.135  1.1504  2.7651 -0.5417
13288TIP3    H261356   3.637   1.936  17.234  2.4187 -0.2874  0.7891
13289TIP3   OH261357   2.373   0.085   5.518  0.0209  0.5535  0.0008
13289TIP3    H161358   2.283   0.098   5.549  0.4476  1.7074  0.8371
13289TIP3    H261359   2.369   0.101   5.424 -0.5220  1.3239  0.1474
13290TIP3   OH261360   1.498   3.477  29.742 -0.3450  0.1400 -0.1488
13290TIP3    H161361   1.508   3.387  29.770 -1.3382 -0.2168 -0.8739
13290TIP3    H261362   1.554   3.485  29.665  0.8688  0.5706  0.7507
13291TIP3   OH261363   1.444   1.503  43.502  0.1180  0.0027  0.2195
13291TIP3    H161364   1.497   1.423  43.503  0.3431  0.1429  1.3821
13291TIP3    H261365   1.505   1.573  43.525 -0.1719  0.4578 -0.3534
13292TIP3   OH261366   0.179   1.857  10.648 -0.7809  0.0859  0.5908
13292TIP3    H161367   0.250   1.918  10.666 -0.1677 -0.8472  1.3607
13292TIP3    H261368   0.171   1.857  10.552 -0.1887  0.6747  0.5355
13293TIP3   OH261369   0.500   3.268  34.411 -0.7395  0.0544  0.3016
13293TIP3    H161370   0.411   3.265  34.374 -0.7751  0.2405  0.3692
13293TIP3    H261371   0.556   3.289  34.336 -0.9903  2.1001  0.6094
13294TIP3   OH261372   3.928   2.681  15.717  0.0482  0.3395 -0.0825
13294TIP3    H161373   3.938   2.750  15.652 -0.9919 -0.5503 -1.2573
13294TIP3    H261374   3.975   2.712  15.794  2.0641  1.0653 -1.5318
13295TIP3   OH261375   1.576   0.564  34.425  0.7444 -0.5199 -0.0865
13295TIP3    H161376   1.627   0.628  34.476 -0.9464  0.5871  0.2960
13295TIP3    H261377   1.602   0.579  34.334  0.1147  1.0103 -0.0445
13296TIP3   OH261378   1.121   3.681  34.530 -0.2967 -0.3599  0.0068
13296TIP3    H161379   1.190   3.730  34.486  2.0966 -2.6264  1.0009
13296TIP3    H261380   1.124   3.713  34.621 -1.8485  0.7868 -0.3016
13297TIP3   OH261381   0.101   3.243  37.839  0.2122  0.7874 -0.5117
13297TIP3    H161382   0.022   3.236  37.893 -0.3069  2.2257 -1.0477
13297TIP3    H261383   0.165   3.186  37.883 -0.3345  1.5501  1.3655
13298TIP3   OH261384   3.469   1.627   5.942  0.4459 -0.1576 -0.1800
13298TIP3    H161385   3.410   1.633   6.018 -1.6134  0.1578 -1.7256
13298TIP3    H261386   3.543   1.682   5.965 -0.0539 -0.1832  1.6624
13299TIP3   OH261387   4.095   2.845   5.268 -0.4456  0.6839  0.1485
13299TIP3    H161388   4.059   2.847   5.357  1.9343  0.6131  1.2093
13299TIP3    H261389   4.122   2.754   5.255  1.0506  1.0786  0.2170
13300TIP3   OH261390   0.562   3.155   5.442 -0.1117  0.2062 -0.3425
13300TIP3    H161391   0.523   3.150   5.355 -0.4401  0.9151 -0.2457
13300TIP3    H261392   0.652   3.186   5.427  0.0081 -0.2027 -0.4693
13301TIP3   OH261393   3.702   3.195   3.520  0.2208  0.3592 -0.1093
13301TIP3    H161394   3.696   3.114   3.469 -0.0119 -1.0649  2.0877
13301TIP3    H261395   3.791   3.195   3.555 -0.0639  0.6113  0.6226
13302TIP3   OH261396   3.031   2.971  10.689 -0.1887 -0.3170  0.4106
13302TIP3    H161397   3.105   3.002  10.743 -0.8318 -0.9580  1.7041
13302TIP3    H261398   2.990   3.052  10.658 -0.6845  0.1515  2.1435
13303TIP3   OH261399   2.931   1.536  39.264  0.0036 -0.5212  0.3550
13303TIP3    H161400   2.946   1.630  39.255 -1.0618 -0.3600  0.0864
13303TIP3    H261401   2.934   1.519  39.358  2.1877 -0.5952  0.3263
13304TIP3   OH261402   4.025   2.393  35.384 -0.1470 -0.0511 -0.0774
13304TIP3    H161403   3.969   2.436  35.449 -0.9301 -1.0243 -0.0885
13304TIP3    H261404   4.063   2.464  35.334 -1.6031  0.6312 -0.2522
13305TIP3   OH261405   3.905   0.670  41.080  0.3798 -0.2195 -0.3497
13305TIP3    H161406   3.972   0.738  41.086 -1.3560  1.4491  1.9187
13305TIP3    H261407   3.896   0.655  40.986  2.9573  0.4240 -0.7875
13306TIP3   OH261408   0.327   0.482  43.007  0.1921 -0.1624  0.3201
13306TIP3    H161409   0.394   0.415  43.010  2.4097  1.7808 -1.6350
13306TIP3    H261410   0.330   0.524  43.092  0.3702 -1.0616  0.7642
13307TIP3   OH261411   1.777   0.944  12.799  0.4487  0.3796  0.3123
13307TIP3    H161412   1.736   1.022  12.838 -1.5705 -0.5871  0.2268
13307TIP3    H261413   1.844   0.918  12.862 -0.6210  0.6963  1.6141
13308TIP3   OH261414   2.078   0.252  35.892  0.8758  0.4514 -0.4887
13308TIP3    H161415   2.018   0.206  35.951  1.8573  0.2275  0.3782
13308TIP3    H261416   2.075   0.343  35.921  0.2026  0.6282 -1.1046
13309TIP3   OH261417   3.871   0.286   8.926  0.6147 -0.2678 -0.5251
13309TIP3    H161418   3.807   0.300   8.857  1.8586  2.5392 -1.2598
13309TIP3    H261419   3.825   0.311   9.007  0.6084  1.3582 -0.9977
13310TIP3   OH261420   2.123   1.514  19.194 -0.5348 -0.0975  0.2800
13310TIP3    H161421   2.175   1.527  19.273 -0.9419 -1.0906  0.7288
13310TIP3    H261422   2.034   1.541  19.218 -0.2462  1.6845 -0.5132
13311TIP3   OH261423   0.664   0.303  36.284 -0.1114 -0.0562 -0.1915
13311TIP3    H161424   0.634   0.344  36.203  1.6213  1.1731 -0.2538
13311TIP3    H261425   0.745   0.259  36.260  0.2979  0.1116  0.8203
13312TIP3   OH261426   3.514   3.454  39.201  0.6563 -0.0861 -0.1736
13312TIP3    H161427   3.439   3.403  39.232  2.5337 -1.6163  2.2618
13312TIP3    H261428   3.547   3.498  39.279  1.1005  2.2926 -1.5974
13313TIP3   OH261429   0.260   3.636  40.280 -0.0489  0.1842  0.3209
13313TIP3    H161430   0.182   3.616  40.332  0.2059 -0.9443  0.3034
13313TIP3    H261431   0.262   3.731  40.274 -1.1409  0.2423  0.7552
13314TIP3   OH261432   0.942   3.369  14.090 -0.2377  0.4496 -0.6672
13314TIP3    H161433   1.027   3.410  14.074 -0.8903  1.8479 -0.7520
13314TIP3    H261434   0.882   3.443  14.102 -0.9850 -0.4785  1.9871
13315TIP3   OH261435   0.185   0.234   6.639 -0.0293 -0.5435  0.0360
13315TIP3    H161436   0.159   0.325   6.624  2.1632 -0.2131 -2.6639
13315TIP3    H261437   0.117   0.182   6.597  0.1436  0.0033 -0.9453
13316TIP3   OH261438   3.574   0.935  43.290 -0.5562 -0.4796  0.4006
13316TIP3    H161439   3.635   0.902  43.224  0.2962 -0.7308  1.2834
13316TIP3    H261440   3.539   0.856  43.332  1.9895 -0.4419  2.9797
13317TIP3   OH261441   1.501   0.430  31.371  0.2351 -0.9304  1.2102
13317TIP3    H161442   1.576   0.405  31.318 -0.7311  2.0161 -1.9453
13317TIP3    H261443   1.425   0.393  31.325 -0.5500  0.5440  1.2327
13318TIP3   OH261444   1.749   1.217  36.072 -0.3444 -0.5746 -0.6036
13318TIP3    H161445   1.759   1.255  35.984  0.2253 -2.5109 -1.4316
13318TIP3    H261446   1.839   1.202  36.101 -0.5139  0.5400  0.5772
13319TIP3   OH261447   2.435   1.638  31.977  0.6580  0.1764  0.0289
13319TIP3    H161448   2.425   1.548  31.947  0.4035  0.5150 -0.9245
13319TIP3    H261449   2.529   1.649  31.987  0.6394 -0.5057  1.1630
13320TIP3   OH261450   0.151   0.300  38.528  0.2912  0.7689 -0.2621
13320TIP3    H161451   0.225   0.298  38.467 -0.8338  0.4686 -1.6818
13320TIP3    H261452   0.181   0.251  38.604  1.0502 -0.6404 -1.4156
13321TIP3   OH261453   0.272   0.826  12.215  0.1472  0.2170  0.0134
13321TIP3    H161454   0.258   0.750  12.159 -0.5980 -1.6425  2.5560
13321TIP3    H261455   0.185   0.851  12.245  0.5413  0.9938  0.5700
13322TIP3   OH261456   1.984   1.349  47.603 -0.4471  0.0843  0.2244
13322TIP3    H161457   2.066   1.307  47.626 -1.0040  0.0471  2.3544
13322TIP3    H261458   1.990   1.365  47.509  2.1542  0.5007  0.4144
13323TIP3   OH261459   3.775   3.701   5.694  0.0963  0.2912 -0.2246
13323TIP3    H161460   3.755   3.790   5.724 -0.3807 -0.1969  0.9962
13323TIP3    H261461   3.869   3.701   5.678  0.2442  0.8009  0.5783
13324TIP3   OH261462   0.201   0.732  41.589  0.6895 -0.4505 -0.0816
13324TIP3    H161463   0.248   0.815  41.588  0.5292 -0.3132 -2.4079
13324TIP3    H261464   0.268   0.666  41.575  0.7048 -0.6528  0.8974
13325TIP3   OH261465   1.516   1.487  38.372  0.2194 -0.2031 -0.1382
13325TIP3    H161466   1.432   1.513  38.411 -0.0036 -1.6307  0.3905
13325TIP3    H261467   1.579   1.495  38.444  0.4629  0.4322 -0.4157
13326TIP3   OH261468   2.226   1.031  36.763 -0.4126  0.0583  0.2569
13326TIP3    H161469   2.307   0.995  36.728 -0.0707  0.2603  0.8328
13326TIP3    H261470   2.157   0.991  36.710  0.0727  0.0502 -0.3749
13327TIP3   OH261471   3.235   3.108  35.114  0.0006 -0.0881  0.0446
13327TIP3    H161472   3.307   3.151  35.068 -1.2498  2.4518  0.2992
13327TIP3    H261473   3.160   3.167  35.102 -1.4608 -1.4980  1.7036
13328TIP3   OH261474   0.826   2.461  32.251 -0.0092  0.9365  0.0497
13328TIP3    H161475   0.871   2.458  32.336  0.7522  1.2061 -0.3357
13328TIP3    H261476   0.896   2.472  32.187 -0.6931  2.6773 -0.4634
13329TIP3   OH261477   0.310   3.215   9.155 -0.3503 -0.0176 -0.4297
13329TIP3    H161478   0.275   3.265   9.228  0.4353 -1.2003  0.8041
13329TIP3    H261479   0.328   3.280   9.087 -0.5428  1.1881  0.6524
13330TIP3   OH261480   0.660   3.601   2.918 -0.1608  0.2870 -0.5005
13330TIP3    H161481   0.717   3.586   2.842 -0.8445  0.3978 -1.0437
13330TIP3    H261482   0.689   3.537   2.983  1.8204  1.5418 -0.0586
13331TIP3   OH261483   2.834   1.651   7.629 -0.7955 -0.1316  0.2875
13331TIP3    H161484   2.748   1.627   7.595  0.2354 -1.6308 -1.4845
13331TIP3    H261485   2.855   1.583   7.693 -1.9245  1.6397  2.6815
13332TIP3   OH261486   0.127   3.953  27.904 -0.4150 -0.0914  0.3411
13332TIP3    H161487   0.113   3.913  27.991  0.0493 -0.6096  0.1804
13332TIP3    H261488   0.219   3.977  27.903 -0.5984  0.6369  0.2795
13333TIP3   OH261489   3.665   3.643   8.794  0.2417  0.1583 -0.1508
13333TIP3    H161490   3.721   3.649   8.717  0.4584 -0.0553 -0.0113
13333TIP3    H261491   3.698   3.711   8.853  1.5330 -1.1187  0.6814
13334TIP3   OH261492   1.213   2.217  42.009  0.0646 -0.1849  0.0881
13334TIP3    H161493   1.282   2.270  42.048 -0.2013  0.4769 -0.3248
13334TIP3    H261494   1.240   2.206  41.918 -0.1828 -0.2506  0.0245
13335TIP3   OH261495   1.920   0.659   1.049  0.4455  0.1491  0.0314
13335TIP3    H161496   1.981   0.721   1.008 -0.2898  2.3328  2.0241
13335TIP3    H261497   1.835   0.679   1.010  0.1541  0.6058  0.8923
13336TIP3   OH261498   2.305   0.481  36.705  0.0513 -0.2676 -0.1830
13336TIP3    H161499   2.348   0.490  36.619 -1.8630  0.0037 -1.1775
13336TIP3    H261500   2.339   0.554  36.756  0.8315 -0.1123 -0.9023
13337TIP3   OH261501   0.370   2.301  10.315 -0.3427  0.3150  0.7335
13337TIP3    H161502   0.298   2.318  10.376  0.7585  1.6191  1.7372
13337TIP3    H261503   0.448   2.335  10.360  0.8232 -0.5701 -0.5476
13338TIP3   OH261504   1.175   0.132  40.508 -0.7798  0.8542  0.3634
13338TIP3    H161505   1.124   0.056  40.536  0.3005  0.3692  1.0866
13338TIP3    H261506   1.195   0.180  40.588  3.2234 -1.1008  0.8093
13339TIP3   OH261507   2.428   0.721  37.733 -0.4540  0.4324  0.2691
13339TIP3    H161508   2.416   0.811  37.765 -0.2985  0.2389  0.8735
13339TIP3    H261509   2.406   0.726  37.640  1.3655  1.5180 -0.1566
13340TIP3   OH261510   3.844   2.380   7.362  0.1235  0.2698 -0.0855
13340TIP3    H161511   3.802   2.421   7.286 -1.3382  1.0812  1.1021
13340TIP3    H261512   3.901   2.449   7.397 -0.7175  0.5952  0.6788
13341TIP3   OH261513   4.102   0.966   1.651  0.3268  0.6095 -0.1998
13341TIP3    H161514   4.067   0.921   1.727  0.9708  0.1407 -0.1707
13341TIP3    H261515   4.069   1.055   1.658 -0.6824  0.2358 -0.0747
13342TIP3   OH261516   2.992   3.696   6.463 -0.1460  0.1499  0.5310
13342TIP3    H161517   2.931   3.623   6.474 -0.6588  0.4011 -0.4936
13342TIP3    H261518   3.075   3.664   6.498 -0.3987 -0.8859  0.2168
13343TIP3   OH261519   0.626   2.540  40.850  0.5970  0.1327 -0.1395
13343TIP3    H161520   0.562   2.584  40.795  0.4608  1.1210  0.7657
13343TIP3    H261521   0.702   2.525  40.793  0.0372  0.0833 -0.8817
13344TIP3   OH261522   0.168   3.199   2.689  0.1998  0.2806  0.9563
13344TIP3    H161523   0.242   3.142   2.711 -1.0055 -1.6431  0.3545
13344TIP3    H261524   0.202   3.258   2.622  1.4926  0.2576  1.5553
13345TIP3   OH261525   3.357   0.999  37.723 -0.0837  1.1155 -0.2114
13345TIP3    H161526   3.309   1.069  37.680 -1.7681 -0.1172 -0.4616
13345TIP3    H261527   3.300   0.922  37.714  1.2632 -0.0681  0.8600
13346TIP3   OH261528   3.177   1.266   0.867 -0.1974 -0.0939  0.3925
13346TIP3    H161529   3.214   1.196   0.813  0.0524 -0.2957  0.8219
13346TIP3    H261530   3.237   1.340   0.854  0.7709 -0.6223  1.6082
13347TIP3   OH261531   1.818   2.614  38.088  0.7117 -0.1800  0.0865
13347TIP3    H161532   1.850   2.590  38.002  1.9596 -2.3063  1.0685
13347TIP3    H261533   1.723   2.625  38.077  0.8825 -0.2387 -1.5652
13348TIP3   OH261534   2.059   1.141  40.093 -0.1734  0.2567  0.6198
13348TIP3    H161535   2.117   1.200  40.046 -2.3170  0.0558 -2.6345
13348TIP3    H261536   2.081   1.054  40.061  1.6910 -0.6788  3.9706
13349TIP3   OH261537   1.946   2.359  32.949 -0.9035 -0.4972 -0.2239
13349TIP3    H161538   1.962   2.432  32.889  2.0197 -0.8217  0.0247
13349TIP3    H261539   1.878   2.392  33.008 -0.9601  1.3462 -1.2256
13350TIP3   OH261540   0.398   1.894  21.628 -0.1959  0.4384  0.1367
13350TIP3    H161541   0.372   1.805  21.606 -0.2094  0.6969 -0.9208
13350TIP3    H261542   0.340   1.918  21.701 -0.4422 -0.2737  0.1887
13351TIP3   OH261543   1.258   1.602  12.606  0.2845 -0.1938  0.1321
13351TIP3    H161544   1.302   1.672  12.558  0.3696 -0.0603  0.4004
13351TIP3    H261545   1.213   1.551  12.539  1.1776 -0.5709 -0.1932
13352TIP3   OH261546   3.811   2.276  14.386 -0.3981 -0.2635 -0.1731
13352TIP3    H161547   3.899   2.304  14.363 -1.6506  2.9426 -1.6187
13352TIP3    H261548   3.797   2.196  14.335  0.5755  0.9672 -2.4976
13353TIP3   OH261549   0.315   2.691   6.393 -0.2252  0.2211 -0.1681
13353TIP3    H161550   0.300   2.710   6.485  0.3367 -2.5768  0.6011
13353TIP3    H261551   0.409   2.702   6.380 -0.4359  1.5696 -0.6995
13354TIP3   OH261552   2.752   1.026  11.222  0.3367 -0.1206 -0.1913
13354TIP3    H161553   2.662   0.997  11.204 -0.0324  0.8051  0.0972
13354TIP3    H261554   2.750   1.121  11.206  0.7465  0.2568  1.7927
13355TIP3   OH261555   0.585   0.405   8.005 -0.3750 -0.4674  0.2675
13355TIP3    H161556   0.493   0.411   7.980 -0.1838 -0.3990 -0.4274
13355TIP3    H261557   0.607   0.312   7.995  0.2411 -0.1394 -1.8026
13356TIP3   OH261558   2.552   0.123   2.639  0.0696  0.2006  0.0043
13356TIP3    H161559   2.474   0.169   2.671  0.3006  0.0401  0.8437
13356TIP3    H261560   2.573   0.164   2.556 -0.0308  1.2651  0.4928
13357TIP3   OH261561   2.793   0.005  33.583 -0.0177 -0.2325 -0.2555
13357TIP3    H161562   2.856   0.049  33.527  0.8018 -1.4989 -0.3745
13357TIP3    H261563   2.728  -0.032  33.523  0.2645 -0.6666 -0.2988
13358TIP3   OH261564   3.948   3.519   1.996 -0.1193 -0.4166 -0.3222
13358TIP3    H161565   4.035   3.554   2.014  0.7185 -2.6070  0.2465
13358TIP3    H261566   3.890   3.566   2.056  1.0518 -0.5360  0.9540
13359TIP3   OH261567   1.778   3.634  35.894  0.5600 -0.0339  0.2705
13359TIP3    H161568   1.787   3.728  35.877  0.6137  0.6336  3.4601
13359TIP3    H261569   1.694   3.626  35.940  1.1536 -1.3364  1.1747
13360TIP3   OH261570   4.038   3.477  38.170 -0.4238  0.3233 -0.5240
13360TIP3    H161571   4.004   3.466  38.259  0.0806 -1.0654 -0.4712
13360TIP3    H261572   4.056   3.388  38.140  1.2986  0.8643 -1.2597
13361TIP3   OH261573   3.375   1.192  11.222 -0.0066 -0.0303  0.6367
13361TIP3    H161574   3.392   1.100  11.245 -0.2901 -0.5856 -1.2436
13361TIP3    H261575   3.294   1.214  11.270 -0.1013 -0.8473  0.8653
13362TIP3   OH261576   3.605   3.612  11.759  0.1275 -0.0704  0.1054
13362TIP3    H161577   3.540   3.678  11.734 -0.5498 -0.7794 -0.0432
13362TIP3    H261578   3.573   3.579  11.843  0.8201  0.2484  0.5007
13363TIP3   OH261579   0.719   1.758  47.742 -0.0524 -0.1179  0.6521
13363TIP3    H161580   0.780   1.697  47.700 -0.7854 -0.5229  0.1441
13363TIP3    H261581   0.667   1.793  47.670 -0.8665 -0.2879  1.1480
13364TIP3   OH261582   1.259   1.922  15.332  0.3458 -0.2091  0.0544
13364TIP3    H161583   1.354   1.928  15.332  0.3984 -0.9533  0.4319
13364TIP3    H261584   1.238   1.878  15.250  0.3145  0.0965 -0.1026
13365TIP3   OH261585   1.297   0.590   8.769 -0.7411  1.0462 -0.0958
13365TIP3    H161586   1.235   0.602   8.841 -1.5714  2.0560 -0.9484
13365TIP3    H261587   1.327   0.678   8.747  0.9081  0.5926  0.1929
13366TIP3   OH261588   2.602   3.241   3.869  0.0925  0.3401 -0.2571
13366TIP3    H161589   2.526   3.230   3.811  0.7327  1.3320 -1.3187
13366TIP3    H261590   2.595   3.168   3.931 -1.1212 -0.2263 -1.0172
13367TIP3   OH261591   0.592   3.593  30.577  0.1950 -0.1847  0.4913
13367TIP3    H161592   0.661   3.561  30.518  0.6665  0.1056  0.8737
13367TIP3    H261593   0.518   3.611  30.520  0.8606  0.7310 -0.1214
13368TIP3   OH261594   2.192   1.899  15.717 -0.4908 -0.6518 -0.4462
13368TIP3    H161595   2.224   1.989  15.727 -2.4108  0.0494 -0.2953
13368TIP3    H261596   2.239   1.850  15.784  1.0307  0.0908 -0.9229
13369TIP3   OH261597   3.835   3.147  30.681 -0.0206 -0.0884 -0.6964
13369TIP3    H161598   3.822   3.063  30.723  1.3860 -0.5258 -1.0589
13369TIP3    H261599   3.864   3.205  30.751  3.7440 -1.1760 -1.1168
13370TIP3   OH261600   2.851   2.010  42.162  0.4915 -0.0809  0.0178
13370TIP3    H161601   2.841   1.981  42.253  0.1539 -1.3642 -0.4133
13370TIP3    H261602   2.883   1.933  42.115  2.4451  1.0577 -0.6402
13371TIP3   OH261603   0.480   0.160  36.425  0.3134 -0.7072 -0.2521
13371TIP3    H161604   0.499   0.067  36.441  0.4124 -1.2155 -2.9812
13371TIP3    H261605   0.567   0.200  36.415  0.2405 -0.8540 -1.6285
13372TIP3   OH261606   2.342   3.966   9.482  0.2293 -0.0323  0.0230
13372TIP3    H161607   2.407   4.001   9.420  0.5799  1.2739  1.0773
13372TIP3    H261608   2.287   3.909   9.429  2.5595 -1.6668 -0.8300
13373TIP3   OH261609   2.682   0.248  46.549  0.7333 -0.0527  0.2579
13373TIP3    H161610   2.647   0.312  46.487 -2.9275 -0.6552  1.4527
13373TIP3    H261611   2.707   0.299  46.625  1.9765  0.3275 -0.3789
13374TIP3   OH261612   3.064   3.504   2.133  0.2324 -0.1343 -0.3791
13374TIP3    H161613   3.025   3.569   2.192  1.6908  0.1464  0.3181
13374TIP3    H261614   3.040   3.419   2.172 -0.4799  0.0076 -0.5000
13375TIP3   OH261615   3.708   3.054  43.023 -0.3989 -0.4994 -0.1464
13375TIP3    H161616   3.719   3.012  43.109  0.7381  1.5206  0.7613
13375TIP3    H261617   3.793   3.043  42.981  0.7007  2.6157  0.9939
13376TIP3   OH261618   1.314   3.451  32.648 -0.2703  0.9555 -0.0008
13376TIP3    H161619   1.249   3.521  32.643 -0.1781  1.1238  0.9151
13376TIP3    H261620   1.320   3.431  32.742  0.2083  0.2002 -0.1856
13377TIP3   OH261621   1.382   0.710   8.173  0.5865  0.0625 -0.1231
13377TIP3    H161622   1.366   0.751   8.258 -0.5487 -1.8070  0.6289
13377TIP3    H261623   1.402   0.619   8.193  1.4471 -0.1766 -1.8148
13378TIP3   OH261624   0.884   2.784  10.257 -0.4342  0.3313  0.0399
13378TIP3    H161625   0.955   2.829  10.303 -0.2664 -0.7526  0.8807
13378TIP3    H261626   0.813   2.848  10.253  0.6871  1.5702 -1.1464
13379TIP3   OH261627   0.988   3.015  10.093  0.2566  0.5034 -0.1242
13379TIP3    H161628   0.893   3.014  10.101  0.3694 -0.6466  1.8342
13379TIP3    H261629   1.004   3.020   9.999 -1.7575 -0.6016 -0.5918
13380TIP3   OH261630   2.644   1.604  35.140  0.5062 -0.0421  0.2703
13380TIP3    H161631   2.715   1.656  35.102  0.8745 -1.4732 -1.0885
13380TIP3    H261632   2.615   1.655  35.216  2.9477  0.6010  0.8509
13381TIP3   OH261633   0.384   2.190  13.975  0.1469  0.6208  0.5532
13381TIP3    H161634   0.470   2.201  13.936 -0.4822  2.8667 -0.3808
13381TIP3    H261635   0.332   2.149  13.906  0.2972 -0.1634  0.8970
13382TIP3   OH261636   1.515   3.867  29.022  0.0769 -0.1540  0.2431
13382TIP3    H161637   1.515   3.937  29.087 -2.1488  0.6417 -0.5388
13382TIP3    H261638   1.607   3.841  29.016  0.9506  2.5143  0.7279
13383TIP3   OH261639   2.576   1.975   6.209  0.4564  0.6527 -0.1882
13383TIP3    H161640   2.639   2.001   6.277 -0.0961  1.5380 -0.0025
13383TIP3    H261641   2.604   2.023   6.131  1.2411 -0.5565 -0.6845
13384TIP3   OH261642   3.610   1.600  47.732 -0.1829 -0.1927  0.1703
13384TIP3    H161643   3.652   1.630  47.813 -1.3815 -0.5038  0.9258
13384TIP3    H261644   3.517   1.619  47.744 -0.5689 -1.4888 -0.5540
13385TIP3   OH261645   0.960   2.498  37.738 -0.4611  0.7102  0.4023
13385TIP3    H161646   0.990   2.587  37.759 -0.3549  1.3034 -2.0234
13385TIP3    H261647   1.035   2.442  37.759  0.6982  1.6184 -1.1464
13386TIP3   OH261648   0.502   2.822  14.617 -0.0028  0.0501 -0.0060
13386TIP3    H161649   0.568   2.832  14.548  0.5837 -0.7401  0.4352
13386TIP3    H261650   0.533   2.877  14.688  0.9905 -1.4380  0.7728
13387TIP3   OH261651   2.405   2.299  17.941  0.1109  0.0754  0.5998
13387TIP3    H161652   2.315   2.306  17.973 -0.7660 -2.3849 -1.0304
13387TIP3    H261653   2.456   2.274  18.019 -1.2990 -2.1151  0.9200
13388TIP3   OH261654   1.955   3.435  47.599 -0.1101 -0.0251  0.0085
13388TIP3    H161655   1.966   3.414  47.692 -1.2856 -1.2489 -0.0918
13388TIP3    H261656   2.025   3.497  47.580 -0.5806  1.2320  2.0214
13389TIP3   OH261657   2.113   1.974  45.378  0.1547  0.0488  0.6237
13389TIP3    H161658   2.180   1.982  45.446 -1.2785  1.2505  1.9761
13389TIP3    H261659   2.037   1.937  45.423 -0.4900 -0.1732 -0.5993
13390TIP3   OH261660   1.522   2.047   8.391  0.3499  0.5206 -0.1205
13390TIP3    H161661   1.545   2.004   8.309  0.1647  0.7574 -0.2994
13390TIP3    H261662   1.441   2.003   8.419 -1.0091  2.0823 -1.3549
13391TIP3   OH261663   2.800   1.242  47.313 -0.3517 -0.3238  0.0270
13391TIP3    H161664   2.710   1.266  47.291  0.1548  1.3132 -0.3831
13391TIP3    H261665   2.849   1.256  47.232  0.0979 -2.4337 -0.1347
13392TIP3   OH261666   0.611   0.724  14.321 -0.2277  0.7014 -0.2977
13392TIP3    H161667   0.670   0.674  14.264  0.0106  0.8454 -0.1777
13392TIP3    H261668   0.524   0.689  14.302  0.0452 -0.5170  0.5776
13393TIP3   OH261669   1.942   1.043   1.520  1.0871  0.6186 -0.0366
13393TIP3    H161670   1.939   1.028   1.615  2.0112  1.5137  0.1480
13393TIP3    H261671   1.891   1.122   1.506 -1.6012 -1.1236 -0.6941
13394TIP3   OH261672   3.095   3.513   3.479  0.3800  0.0721  0.9406
13394TIP3    H161673   3.004   3.493   3.455  0.7907  0.6345 -1.3194
13394TIP3    H261674   3.096   3.507   3.574 -1.5781 -1.7732  0.9277
13395TIP3   OH261675   0.887   0.152  38.882  0.8433 -0.3772 -0.1755
13395TIP3    H161676   0.874   0.205  38.803 -1.1490  1.4277  1.2712
13395TIP3    H261677   0.801   0.116  38.901  0.6536  1.2231  2.4933
13396TIP3   OH261678   1.027   2.525  42.058  0.6156 -0.0348 -1.0832
13396TIP3    H161679   0.940   2.495  42.087  0.2382  0.5033 -1.6426
13396TIP3    H261680   1.087   2.491  42.125  0.0687 -1.0658 -1.0897
13397TIP3   OH261681   2.593   1.382  37.162  0.1042  0.1353  0.9018
13397TIP3    H161682   2.633   1.409  37.244  0.6484  0.8918  0.3993
13397TIP3    H261683   2.658   1.326  37.121  0.2006  0.4738  0.5864
13398TIP3   OH261684   2.554   1.293   6.789  0.0589  0.0895 -0.6309
13398TIP3    H161685   2.532   1.336   6.707 -3.2020  1.9943  1.0357
13398TIP3    H261686   2.615   1.353   6.832  0.4993 -0.1130 -0.9683
13399TIP3   OH261687   2.290   3.942  13.182  0.6707 -0.2745  0.2568
13399TIP3    H161688   2.336   3.989  13.252 -2.6580  1.1965  1.6367
13399TIP3    H261689   2.315   3.851  13.195  3.2980  0.4150  0.7441
13400TIP3   OH261690   1.848   0.602  43.358 -0.4616 -0.0934 -0.1958
13400TIP3    H161691   1.774   0.603  43.298 -1.4357  1.2203  0.9735
13400TIP3    H261692   1.873   0.693  43.368  0.3224 -0.3806  0.6330
13401TIP3   OH261693   1.193   1.959  47.635 -0.2146  0.7774  0.0858
13401TIP3    H161694   1.100   1.938  47.639 -0.1714  0.2869 -1.0254
13401TIP3    H261695   1.218   1.974  47.726 -0.7761 -1.8192  0.7524
13402TIP3   OH261696   1.361   0.916  42.764  0.4280 -1.1230 -0.2468
13402TIP3    H161697   1.315   0.973  42.702 -0.8214 -1.2997  0.4980
13402TIP3    H261698   1.329   0.943  42.850 -0.3572 -3.0518  0.1218
13403TIP3   OH261699   1.748   1.990   5.458 -0.3942 -0.0076  0.0921
13403TIP3    H161700   1.709   1.907   5.428  1.5409 -0.3730 -1.6888
13403TIP3    H261701   1.797   1.966   5.537  1.5279 -1.0376 -1.3161
13404TIP3   OH261702   3.346   3.026   3.717  0.1740  0.0472  0.1479
13404TIP3    H161703   3.418   3.086   3.738  0.3120 -0.0321 -0.0913
13404TIP3    H261704   3.281   3.041   3.786  0.8731 -0.6455  0.9781
13405TIP3   OH261705   2.188   2.538  43.955 -0.7981 -0.2790  0.1526
13405TIP3    H161706   2.240   2.492  44.020 -2.6734 -0.8845  1.3084
13405TIP3    H261707   2.167   2.471  43.889  0.6152  0.1930 -0.8210
13406TIP3   OH261708   1.264   3.806  34.795 -0.7511  0.1422 -0.0681
13406TIP3    H161709   1.296   3.716  34.805 -1.0381 -0.1690 -1.7035
13406TIP3    H261710   1.336   3.861  34.826 -0.2681 -0.6261  0.2032
13407TIP3   OH261711   2.744   2.285  40.123 -0.1055 -0.2166 -0.0415
13407TIP3    H161712   2.811   2.309  40.186 -0.7590  1.3503  0.1004
13407TIP3    H261713   2.663   2.285  40.174 -0.8298  2.2507 -1.0452
13408TIP3   OH261714   3.218   0.057  10.594  0.1325  0.2084  0.2818
13408TIP3    H161715   3.284   0.076  10.660  0.4757 -0.3809  0.1097
13408TIP3    H261716   3.194  -0.034  10.609 -0.3350  0.2918  0.0693
13409TIP3   OH261717   3.207   2.207   4.267 -0.3570 -0.1980 -0.5077
13409TIP3    H161718   3.166   2.198   4.353  0.7403 -0.0046  0.0528
13409TIP3    H261719   3.257   2.126   4.256 -0.7077 -0.3440 -1.0970
13410TIP3   OH261720   1.349   2.328  45.400  0.8295  0.1688 -0.1612
13410TIP3    H161721   1.418   2.359  45.341  0.5684 -1.1735 -1.2144
13410TIP3    H261722   1.325   2.242  45.366 -1.5812  0.7087 -0.0283
13411TIP3   OH261723   1.063   0.021  37.794 -0.0193 -0.2783 -0.0909
13411TIP3    H161724   0.995   0.087  37.781 -0.0368 -0.3793 -0.5429
13411TIP3    H261725   1.072   0.014  37.889 -1.8603 -1.4886  0.0486
13412TIP3   OH261726   2.888   1.380   0.926 -0.1455  0.2060  0.5621
13412TIP3    H161727   2.871   1.381   0.831  0.9222 -2.3017  0.2612
13412TIP3    H261728   2.983   1.379   0.933 -0.2172 -0.1420  1.6500
13413TIP3   OH261729   0.339   2.360   4.883 -0.2352  0.3397 -0.0947
13413TIP3    H161730   0.416   2.321   4.840 -1.0953 -0.8985 -0.5559
13413TIP3    H261731   0.364   2.366   4.976  0.1336 -0.8153 -0.1041
13414TIP3   OH261732   2.838   3.566  26.137  0.1023  0.4637  0.3154
13414TIP3    H161733   2.845   3.473  26.159 -0.6253  0.3498  0.1132
13414TIP3    H261734   2.874   3.574  26.049 -1.4733  0.0342 -0.4043
13415TIP3   OH261735   0.227   3.949  32.390  0.5732  0.5884  0.2115
13415TIP3    H161736   0.289   3.944  32.317 -0.5242  1.2885 -0.8049
13415TIP3    H261737   0.142   3.929  32.351 -0.1015  1.3886  1.2246
13416TIP3   OH261738   0.292   3.042  43.738 -0.1376  0.0227 -0.3473
13416TIP3    H161739   0.331   2.955  43.743  0.7719  0.4945  2.9923
13416TIP3    H261740   0.347   3.088  43.674 -0.3384 -1.6412 -1.8038
13417TIP3   OH261741   3.659   3.341  44.452  0.0319  0.2916 -0.1581
13417TIP3    H161742   3.627   3.272  44.511 -1.7167  1.1357 -0.0481
13417TIP3    H261743   3.627   3.422  44.490  2.5079  1.2860  0.0095
13418TIP3   OH261744   0.842   0.985  34.502  0.4455 -0.2416 -0.2316
13418TIP3    H161745   0.790   0.907  34.521  1.8137 -1.1105  0.0504
13418TIP3    H261746   0.789   1.058  34.535 -1.3598 -0.9119 -1.5088
13419TIP3   OH261747   2.983   2.610  34.832  0.2239  0.3487 -0.3492
13419TIP3    H161748   2.938   2.657  34.763 -0.1903  1.3330  0.5680
13419TIP3    H261749   2.915   2.558  34.875 -0.1970  2.1045  1.2629
13420TIP3   OH261750   2.095   3.374  31.512  0.2377 -0.0070  0.4118
13420TIP3    H161751   2.125   3.411  31.429  0.7964  0.0772  0.6387
13420TIP3    H261752   2.173   3.376  31.568  0.0102 -0.5687  0.7631
13421TIP3   OH261753   2.742   0.147  32.159  0.0383 -0.0826 -0.5082
13421TIP3    H161754   2.750   0.223  32.216  0.7949 -0.2534 -0.3822
13421TIP3    H261755   2.660   0.162  32.111  0.0781  0.7088 -0.3439
13422TIP3   OH261756   0.557   2.575  45.693  0.2138  0.2468 -0.4257
13422TIP3    H161757   0.608   2.498  45.719  0.3972  0.8364  1.0703
13422TIP3    H261758   0.621   2.631  45.649  0.8413  0.8499  1.1765
13423TIP3   OH261759   3.829   0.932  31.378  0.5021 -0.2495  0.5636
13423TIP3    H161760   3.872   1.017  31.381 -0.9147  0.4683  1.4900
13423TIP3    H261761   3.892   0.872  31.419  0.6694  0.7507  1.8470
13424TIP3   OH261762   3.829   0.312   5.020 -0.5636  0.1342 -0.4811
13424TIP3    H161763   3.795   0.402   5.020  0.6728  0.6504 -1.7628
13424TIP3    H261764   3.918   0.320   5.053 -1.0406 -0.9350  1.1724
13425TIP3   OH261765   0.770   1.364  42.254  0.1490 -0.0401 -0.1645
13425TIP3    H161766   0.834   1.297  42.232  0.9980  0.6557  0.1712
13425TIP3    H261767   0.763   1.417  42.174 -0.8863 -0.7921 -0.5995
13426TIP3   OH261768   2.157   0.397  43.730 -0.2631  0.0544 -0.1973
13426TIP3    H161769   2.247   0.389  43.701  0.0381  1.5573  0.2409
13426TIP3    H261770   2.112   0.441  43.657 -0.6096 -0.5182 -0.3377
13427TIP3   OH261771   1.134   0.776  34.901 -0.0037 -0.5118  0.1807
13427TIP3    H161772   1.054   0.761  34.850 -0.4447 -3.6646  1.5294
13427TIP3    H261773   1.179   0.691  34.898  0.9436 -0.2194  3.2856
13428TIP3   OH261774   3.623   0.344   6.810  0.3094 -0.4090  0.2827
13428TIP3    H161775   3.688   0.415   6.812 -2.1468  2.0589 -0.7713
13428TIP3    H261776   3.600   0.330   6.902  0.7436  0.2837  0.5100
13429TIP3   OH261777   2.654   1.556  44.158  0.3823  0.1191  0.4087
13429TIP3    H161778   2.602   1.475  44.153  2.1057 -1.0554  0.5561
13429TIP3    H261779   2.599   1.622  44.117 -1.5414 -0.8680  1.2571
13430TIP3   OH261780   1.431   0.612  40.490 -0.3766 -0.4684  0.0770
13430TIP3    H161781   1.357   0.578  40.440 -0.2920  0.9168 -1.0560
13430TIP3    H261782   1.392   0.670  40.555 -0.4291 -1.6514  1.1357
13431TIP3   OH261783   1.996   2.426   2.630  0.0550  0.6267 -0.1543
13431TIP3    H161784   1.934   2.481   2.677  0.2561  0.9755 -0.2924
13431TIP3    H261785   1.952   2.342   2.621  1.3320 -0.7330  3.8891
13432TIP3   OH261786   1.401   3.798   5.592  0.3708  0.0783  0.2126
13432TIP3    H161787   1.366   3.751   5.667  0.7421  0.7492  0.8178
13432TIP3    H261788   1.368   3.750   5.516  1.0673 -1.3874  0.7970
13433TIP3   OH261789   0.825   3.062  44.190  0.4236 -0.1065 -0.1417
13433TIP3    H161790   0.737   3.087  44.217 -0.0378 -0.8761 -0.9021
13433TIP3    H261791   0.882   3.124  44.236 -0.5201  0.5599  0.1660
13434TIP3   OH261792   3.482   1.874  31.458  0.3367  0.4512 -0.2836
13434TIP3    H161793   3.573   1.901  31.446  0.7325 -1.6463 -3.0903
13434TIP3    H261794   3.489   1.780  31.480 -1.1471  0.2721 -0.5266
13435TIP3   OH261795   1.245   0.814  43.652 -0.1902 -0.1149 -0.3227
13435TIP3    H161796   1.258   0.727  43.690  1.2415 -0.2558 -1.0493
13435TIP3    H261797   1.191   0.798  43.575 -0.5010 -0.2549 -0.0833
13436TIP3   OH261798   1.411   0.827   0.886 -0.2310  0.4677  0.3688
13436TIP3    H161799   1.451   0.914   0.892  1.1779 -0.0602 -0.7378
13436TIP3    H261800   1.391   0.804   0.977 -1.6562  2.3662  0.6108
13437TIP3   OH261801   2.290   0.704   0.189  0.2691  0.3428 -0.2108
13437TIP3    H161802   2.227   0.724   0.258 -1.0016  0.7975 -1.4484
13437TIP3    H261803   2.316   0.789   0.155 -0.6981  0.1131 -1.6251
13438TIP3   OH261804   0.775   1.066   3.296  0.1299  0.0458  0.2608
13438TIP3    H161805   0.834   1.004   3.255 -0.6634  0.3101 -1.3690
13438TIP3    H261806   0.690   1.049   3.255 -0.9753 -0.3279  2.5293
13439TIP3   OH261807   0.835   0.361  26.039 -0.6537  0.2157  0.0780
13439TIP3    H161808   0.887   0.401  25.969  0.4819  0.0065  0.7991
13439TIP3    H261809   0.758   0.419  26.046  0.4694  1.7294  0.4170
13440TIP3   OH261810   1.214   3.024  32.346 -0.1089  0.3623  0.2346
13440TIP3    H161811   1.252   3.087  32.408  0.5985 -1.0453  1.3026
13440TIP3    H261812   1.150   2.975  32.399 -1.5499  0.9715 -0.8856
13441TIP3   OH261813   1.982   1.846  16.314  0.7568 -0.0109 -0.4134
13441TIP3    H161814   2.024   1.880  16.394  2.1589  0.6418 -1.3847
13441TIP3    H261815   1.907   1.903  16.300  0.2205 -0.4246  0.6889
13442TIP3   OH261816   1.910   2.692  38.697  0.2028  0.0138 -0.3231
13442TIP3    H161817   2.003   2.680  38.674  0.3164  0.9378 -0.3826
13442TIP3    H261818   1.872   2.735  38.620 -0.0728  0.4534  0.0562
13443TIP3   OH261819   4.015   2.560  42.350  0.1205  0.0969 -0.2898
13443TIP3    H161820   4.098   2.538  42.392 -0.1418 -0.1386  0.1139
13443TIP3    H261821   3.977   2.628  42.406 -0.1603 -0.1132 -0.2196
13444TIP3   OH261822   2.808   2.446  47.449 -0.3838 -0.1065 -0.2380
13444TIP3    H161823   2.878   2.383  47.434  1.3034  1.5192  0.4027
13444TIP3    H261824   2.800   2.494  47.367 -0.7108 -0.2583 -0.2949
13445TIP3   OH261825   0.626   3.742  36.848 -0.5690 -0.2028  0.5433
13445TIP3    H161826   0.602   3.664  36.897  0.0875  0.9677  2.8546
13445TIP3    H261827   0.599   3.816  36.903  0.2971  1.2014 -0.7991
13446TIP3   OH261828   1.252   2.936   1.460  0.4260 -0.1347  0.2903
13446TIP3    H161829   1.245   2.922   1.555 -0.4745  1.2645  0.4615
13446TIP3    H261830   1.314   3.009   1.452 -0.4122  0.5433 -0.1167
13447TIP3   OH261831   3.525   4.104  45.899  0.5334 -0.2732 -0.7980
13447TIP3    H161832   3.579   4.176  45.868 -0.6535  1.9758  1.8984
13447TIP3    H261833   3.461   4.090  45.829  0.2440  1.9607 -1.0615
13448TIP3   OH261834   0.267   1.077  37.200  0.7280  0.0300 -0.7949
13448TIP3    H161835   0.291   1.066  37.108  0.7426 -0.3389 -0.7533
13448TIP3    H261836   0.244   0.988  37.229  0.8174  0.1281 -0.4182
13449TIP3   OH261837   3.208   4.023  30.837 -0.2808  0.4600  0.0983
13449TIP3    H161838   3.279   3.974  30.796 -0.5146  0.6807 -0.5759
13449TIP3    H261839   3.249   4.104  30.868 -0.1763  0.4567 -0.0309
13450TIP3   OH261840   1.845   0.064  24.225  0.4381 -0.8277 -0.1360
13450TIP3    H161841   1.795   0.009  24.166  0.5279  2.3344 -3.5046
13450TIP3    H261842   1.936   0.033  24.215  0.4950 -0.1659 -1.9869
13451TIP3   OH261843   1.309   2.008  38.913 -0.3645  0.6159  0.5155
13451TIP3    H161844   1.251   2.017  38.837  1.2549 -0.9274 -0.9969
13451TIP3    H261845   1.278   1.929  38.958  0.3942 -0.1107 -0.1961
13452TIP3   OH261846   0.144   0.932  46.169  0.2862  0.2698 -0.2987
13452TIP3    H161847   0.229   0.889  46.156  0.0681 -0.4211  0.4313
13452TIP3    H261848   0.100   0.876  46.233  0.0570  1.7099  0.8440
13453TIP3   OH261849   0.650   3.222   0.963 -0.2642 -0.1017 -0.4590
13453TIP3    H161850   0.639   3.136   0.922  1.8573 -0.1914 -0.9867
13453TIP3    H261851   0.734   3.216   1.008 -0.1056  1.6851 -0.4601
13454TIP3   OH261852   3.024   0.027  14.493  0.3857 -0.0465  0.0445
13454TIP3    H161853   2.965   0.103  14.494  0.1955 -0.1149 -1.6533
13454TIP3    H261854   2.979  -0.037  14.438  1.7414 -0.3433 -0.7778
13455TIP3   OH261855   2.462   3.092  45.931  0.3969  0.1643 -0.1982
13455TIP3    H161856   2.511   3.161  45.975  0.4615  0.6199 -0.9566
13455TIP3    H261857   2.370   3.118  45.941  0.3821 -0.0155  0.1299
13456TIP3   OH261858   0.800   2.656   5.487 -0.0418 -0.1068 -0.2143
13456TIP3    H161859   0.852   2.577   5.472 -0.9534 -0.7631 -0.0245
13456TIP3    H261860   0.709   2.627   5.476 -0.4781  0.5851  1.2823
13457TIP3   OH261861   0.662   0.679   5.931 -0.2267 -0.2637  0.2915
13457TIP3    H161862   0.653   0.594   5.888 -0.6813 -0.1036  0.0677
13457TIP3    H261863   0.732   0.665   5.996 -0.5854 -0.9259  0.5553
13458TIP3   OH261864   2.525   2.526  35.041  0.2553  0.2791  0.1710
13458TIP3    H161865   2.532   2.485  35.127  0.6306  0.2371  0.1242
13458TIP3    H261866   2.461   2.473  34.994  1.5343 -0.9395 -0.2667
13459TIP3   OH261867   3.214   0.710   2.121  0.5017 -0.6517 -0.3782
13459TIP3    H161868   3.214   0.803   2.140  0.1502 -0.4593 -1.2734
13459TIP3    H261869   3.134   0.695   2.071  0.0077 -1.6324  0.6462
13460TIP3   OH261870   0.219   1.004  15.240  0.5985 -0.2168 -0.5123
13460TIP3    H161871   0.128   1.004  15.269  1.2014  2.7802  1.8592
13460TIP3    H261872   0.213   1.004  15.144 -1.7883 -1.7671 -0.4537
13461TIP3   OH261873   0.573   0.321  32.214 -0.4303 -0.5238 -0.1728
13461TIP3    H161874   0.654   0.310  32.164  0.4416  0.8741  0.8703
13461TIP3    H261875   0.539   0.406  32.187 -1.1595 -0.7566 -0.0236
13462TIP3   OH261876   1.014   0.180  12.069 -0.2867 -0.2173 -0.2069
13462TIP3    H161877   1.045   0.190  11.979 -1.5932 -1.3640 -0.8244
13462TIP3    H261878   1.068   0.110  12.105 -1.5007 -1.6095 -0.9963
13463TIP3   OH261879   1.960   1.209  34.240  0.4994  0.2294 -0.4003
13463TIP3    H161880   2.019   1.283  34.224  0.7332  0.1809  0.2170
13463TIP3    H261881   1.915   1.232  34.321 -0.1927  0.1716 -0.7641
13464TIP3   OH261882   1.238   0.738  39.456  0.3111 -0.3927 -0.4378
13464TIP3    H161883   1.301   0.672  39.427  0.7371 -0.1758 -0.0125
13464TIP3    H261884   1.204   0.704  39.538  1.3027  0.3990  0.3281
13465TIP3   OH261885   3.758   3.845  35.919  0.1279  0.0304 -0.5105
13465TIP3    H161886   3.803   3.845  35.835  1.2827 -1.5832  0.0350
13465TIP3    H261887   3.826   3.820  35.982 -1.1994 -1.0244  0.5627
13466TIP3   OH261888   1.636   0.096   5.064 -0.3914 -0.5258 -0.3903
13466TIP3    H161889   1.732   0.091   5.065 -0.2447  1.4690 -0.1125
13466TIP3    H261890   1.615   0.150   4.987 -1.2719 -0.7541 -0.3194
13467TIP3   OH261891   3.926   1.999   0.935  0.0585  0.4072 -0.4429
13467TIP3    H161892   3.944   2.092   0.922 -0.6580  0.6415  0.2071
13467TIP3    H261893   3.981   1.955   0.869  2.1979  1.1251  0.7656
13468TIP3   OH261894   1.739   1.972  16.314  0.6307 -0.1639  0.3174
13468TIP3    H161895   1.727   1.927  16.398 -0.9480 -0.4383 -0.0219
13468TIP3    H261896   1.742   2.065  16.337  1.9135 -0.3001  0.8190
13469TIP3   OH261897   0.251   0.410  39.073  0.5457 -0.2281  0.2375
13469TIP3    H161898   0.225   0.325  39.037  0.9219 -0.6854  1.0293
13469TIP3    H261899   0.169   0.459  39.080 -0.1470 -1.5660  2.4852
13470TIP3   OH261900   1.552   4.074   4.174 -0.0781  0.2694 -0.2917
13470TIP3    H161901   1.471   4.115   4.144 -0.0869  0.7467  0.3643
13470TIP3    H261902   1.608   4.071   4.097 -0.1553  1.3255 -0.3964
13471TIP3   OH261903   2.342   1.760  20.677 -0.3270  0.5159  0.2042
13471TIP3    H161904   2.255   1.799  20.681 -1.0598 -1.0231  0.0503
13471TIP3    H261905   2.367   1.768  20.585  0.7839  3.1309  0.6580
13472TIP3   OH261906   2.842   0.610   9.280 -0.0041 -0.6152 -0.0263
13472TIP3    H161907   2.899   0.658   9.339 -1.2361  0.5230  0.2912
13472TIP3    H261908   2.876   0.629   9.193 -0.2967  0.6372  0.1132
13473TIP3   OH261909   3.139   2.847  39.915  0.4380 -0.1287 -0.7005
13473TIP3    H161910   3.132   2.758  39.879 -0.1423 -0.7611  0.8949
13473TIP3    H261911   3.189   2.837  39.995  1.2689  1.1728 -1.0326
13474TIP3   OH261912   1.424   2.937  42.197  0.4500 -0.5376 -0.2714
13474TIP3    H161913   1.428   2.903  42.107 -0.4683 -1.6239  0.0814
13474TIP3    H261914   1.377   2.870  42.246  0.8969  0.0692  1.0237
13475TIP3   OH261915   0.927   2.776  13.865  0.3424 -0.3543  0.1711
13475TIP3    H161916   0.884   2.818  13.790 -0.2723 -0.3402  0.5273
13475TIP3    H261917   0.891   2.821  13.941  0.3051 -0.9726  0.5190
13476TIP3   OH261918   3.999   3.890   2.457 -0.6133  0.4913  0.0410
13476TIP3    H161919   3.960   3.873   2.543 -1.4510  0.9181 -0.2471
13476TIP3    H261920   3.980   3.811   2.406  1.0609 -0.3512  0.6270
13477TIP3   OH261921   3.187   2.632  47.140 -0.4249 -0.0224 -0.0643
13477TIP3    H161922   3.227   2.700  47.086 -1.2583  0.4339 -0.1357
13477TIP3    H261923   3.166   2.677  47.222 -1.9678  0.1178 -0.5052
13478TIP3   OH261924   2.466   0.024  10.004  0.2963 -0.5405 -0.1893
13478TIP3    H161925   2.441   0.027   9.912  0.6664 -1.8556 -0.3497
13478TIP3    H261926   2.383   0.031  10.052  0.1154  0.2829 -0.6008
13479TIP3   OH261927   1.331   0.310   5.325  0.2443 -0.6556  0.5581
13479TIP3    H161928   1.420   0.344   5.337 -0.1470  0.3081  0.7767
13479TIP3    H261929   1.329   0.281   5.234  0.4074  0.4864  0.1682
13480TIP3   OH261930   3.961   2.356  41.533  0.0976  0.4888  0.4234
13480TIP3    H161931   3.919   2.374  41.449  1.0566  0.2996 -0.1038
13480TIP3    H261932   3.925   2.423  41.592 -0.3444  0.8210 -0.2067
13481TIP3   OH261933   1.589   0.626  11.381 -0.1229  0.3196 -0.5191
13481TIP3    H161934   1.524   0.578  11.331 -1.3829  0.5006  0.8706
13481TIP3    H261935   1.639   0.559  11.428 -0.8265  0.2755  0.1794
13482TIP3   OH261936   0.647   2.924  31.150  0.3292 -0.0423  0.0339
13482TIP3    H161937   0.698   2.939  31.229  1.1445  0.4741 -0.5684
13482TIP3    H261938   0.712   2.901  31.084 -0.5280 -2.9592  0.0595
13483TIP3   OH261939   2.845   1.537  42.544  0.1838 -0.2676 -0.1206
13483TIP3    H161940   2.937   1.558  42.559 -0.0965  0.5939  0.4856
13483TIP3    H261941   2.845   1.445  42.519  1.0184 -0.8431  1.8655
13484TIP3   OH261942   1.823   1.073   8.929 -0.0525  0.0376  0.3983
13484TIP3    H161943   1.856   1.118   9.006 -1.7185  1.8137  0.1716
13484TIP3    H261944   1.819   1.141   8.861  2.8355 -1.7874 -1.8238
13485TIP3   OH261945   1.688   1.895   0.970  0.0133 -0.6169  0.0330
13485TIP3    H161946   1.656   1.985   0.971  0.4232 -0.4709  0.1473
13485TIP3    H261947   1.671   1.862   1.059 -1.7142 -1.2215 -0.4880
13486TIP3   OH261948   1.480   2.192  35.753 -0.0161  0.0449  0.6482
13486TIP3    H161949   1.508   2.279  35.782 -0.6259  0.6984 -0.6121
13486TIP3    H261950   1.488   2.137  35.830 -0.2773  1.3767  1.6657
13487TIP3   OH261951   0.952   2.262  33.077  0.2647 -0.4173 -0.0607
13487TIP3    H161952   0.890   2.253  33.004 -0.3926 -0.4496  0.4945
13487TIP3    H261953   0.999   2.179  33.079 -0.0611 -0.6090 -0.1414
13488TIP3   OH261954   2.886   0.192  11.965  0.4129  0.5769 -0.2743
13488TIP3    H161955   2.971   0.236  11.971  0.7964 -0.2047  0.0607
13488TIP3    H261956   2.854   0.188  12.055  0.3361  0.2480 -0.3165
13489TIP3   OH261957   3.143   3.278   7.718  0.1742 -0.6953  0.7248
13489TIP3    H161958   3.152   3.323   7.634  0.4022 -2.2009 -0.1050
13489TIP3    H261959   3.172   3.341   7.783 -2.6089  1.5411  0.0149
13490TIP3   OH261960   3.732   2.235  16.145 -0.3039 -0.2279  0.6081
13490TIP3    H161961   3.692   2.149  16.162  0.4287 -0.8823 -0.7805
13490TIP3    H261962   3.729   2.244  16.050  0.4093  0.9083  0.6800
13491TIP3   OH261963   1.873   0.108  38.504  0.0944 -0.1780  0.2569
13491TIP3    H161964   1.901   0.127  38.594  0.8175 -0.6291  0.1346
13491TIP3    H261965   1.836   0.020  38.508 -1.1150  0.3268  0.3675
13492TIP3   OH261966   1.590   1.403   9.567  0.5933  0.0700 -0.4477
13492TIP3    H161967   1.593   1.444   9.653 -0.7876  0.6865 -0.6656
13492TIP3    H261968   1.626   1.316   9.580  0.3649  0.1399  0.7541
13493TIP3   OH261969   0.667   3.722  34.087  0.1804  0.3035  0.3711
13493TIP3    H161970   0.704   3.682  34.008 -1.1432 -0.3480  0.0472
13493TIP3    H261971   0.721   3.689  34.158  0.2728 -0.5573 -0.0888
13494TIP3   OH261972   2.463   4.098  11.057 -0.2469 -0.1618 -0.0110
13494TIP3    H161973   2.504   4.164  11.112 -0.9511  1.6917 -1.5767
13494TIP3    H261974   2.484   4.125  10.967 -0.0899 -2.4157 -0.7156
13495TIP3   OH261975   0.524   0.638  41.242 -0.5398  0.1600  0.3771
13495TIP3    H161976   0.547   0.548  41.267  4.0245  1.1007  0.3867
13495TIP3    H261977   0.507   0.634  41.148  0.6223 -0.5905  0.1874
13496TIP3   OH261978   1.621   0.767  44.639 -0.0357  0.2156 -0.0103
13496TIP3    H161979   1.547   0.712  44.614 -1.1972  1.2877  0.9225
13496TIP3    H261980   1.582   0.850  44.664  1.6026  1.2343 -0.6498
13497TIP3   OH261981   1.534   1.686  46.659  0.1654  0.2136 -0.4426
13497TIP3    H161982   1.494   1.609  46.618 -1.1948  1.0777 -0.8159
13497TIP3    H261983   1.553   1.658  46.749 -1.6635 -0.1445 -0.1251
13498TIP3   OH261984   0.182   1.539  46.902  0.2088  0.3641  0.3388
13498TIP3    H161985   0.155   1.482  46.974  1.2479  0.4069  0.7747
13498TIP3    H261986   0.227   1.481  46.841 -1.5872  0.1269 -0.8183
13499TIP3   OH261987   2.501   3.529  46.108  0.5018 -0.0986 -0.1506
13499TIP3    H161988   2.565   3.600  46.110 -1.2747  1.5485  0.5266
13499TIP3    H261989   2.422   3.566  46.148 -0.3875 -2.5722  0.5817
13500TIP3   OH261990   2.169   0.125  29.561  0.4085 -0.1980  0.3090
13500TIP3    H161991   2.131   0.170  29.486  1.7382  1.0762  0.3623
13500TIP3    H261992   2.125   0.040  29.562 -0.9491  0.4464 -0.8030
13501TIP3   OH261993   0.773   2.628  40.484 -0.2979  0.1997  0.0907
13501TIP3    H161994   0.810   2.579  40.559  0.3586  2.4873  1.3593
13501TIP3    H261995   0.685   2.591  40.473 -0.1219 -0.7452  1.4721
13502TIP3   OH261996   2.809   2.588  37.458  0.3109  0.0224  0.1451
13502TIP3    H161997   2.747   2.521  37.429  0.9017 -0.9337  1.0117
13502TIP3    H261998   2.850   2.550  37.536  4.3725 -0.8945 -2.1386
13503TIP3   OH261999   3.669   2.598  42.101  0.2234 -0.4357  0.5416
13503TIP3    H162000   3.641   2.626  42.188  0.5785 -0.4018  0.6443
13503TIP3    H262001   3.587   2.593  42.051  0.1619  1.0690  0.4339
13504TIP3   OH262002   3.193   2.174  40.289  0.0125 -0.0218 -0.0053
13504TIP3    H162003   3.216   2.143  40.376  0.0286 -0.0037 -0.0030
13504TIP3    H262004   3.154   2.098  40.246 -2.5544  0.6471  0.9571
13505TIP3   OH262005   3.621   2.318   1.786  0.7839 -0.1188  0.6887
13505TIP3    H162006   3.604   2.254   1.856 -1.0813  0.4130  0.7587
13505TIP3    H262007   3.660   2.265   1.716 -0.9033 -1.4007  0.6644
13506TIP3   OH262008   3.304   2.061   3.656 -0.0692  0.3607 -0.0443
13506TIP3    H162009   3.381   2.095   3.701  1.2624 -0.9549 -1.2122
13506TIP3    H262010   3.287   1.976   3.697  0.3954 -0.2825 -1.1125
13507TIP3   OH262011   1.188   2.623   7.889  0.0408 -0.2654  0.1041
13507TIP3    H162012   1.255   2.677   7.932  0.3642 -0.6947  0.1513
13507TIP3    H262013   1.189   2.541   7.938 -0.1143 -0.4859 -0.2606
13508TIP3   OH262014   1.016   2.808  36.624 -0.2834  0.5307 -0.2754
13508TIP3    H162015   1.059   2.771  36.547  0.6370  2.4528 -0.7376
13508TIP3    H262016   1.085   2.854  36.671 -1.0307  0.1858  1.2174
13509TIP3   OH262017   3.340   2.149  43.305 -0.3188  0.0499  0.1686
13509TIP3    H162018   3.252   2.187  43.307 -0.4221 -0.1931  0.2860
13509TIP3    H262019   3.325   2.056  43.290  0.0005  0.2806 -1.8848
13510TIP3   OH262020   1.149   3.468  12.953  0.4705  0.0954  0.1117
13510TIP3    H162021   1.151   3.554  12.993  3.2687  0.7731 -1.2316
13510TIP3    H262022   1.236   3.457  12.915  0.3053 -3.4334  0.4138
13511TIP3   OH262023   2.226   3.933  34.563 -0.4420  0.1441 -0.3770
13511TIP3    H162024   2.185   3.895  34.486 -1.5432 -0.0725  0.2942
13511TIP3    H262025   2.191   4.022  34.568 -1.1749 -0.1804  0.4369
13512TIP3   OH262026   0.589   3.387  44.353 -0.2315  0.6252 -0.3685
13512TIP3    H162027   0.633   3.350  44.429 -0.2491  0.2979 -0.5147
13512TIP3    H262028   0.562   3.311  44.301  1.8429  0.8531 -1.8937
13513TIP3   OH262029   2.417   2.880  11.501  0.1943  0.2884 -0.8370
13513TIP3    H162030   2.470   2.875  11.581 -0.0362  0.0920 -0.6968
13513TIP3    H262031   2.403   2.789  11.476 -2.3121  0.2021  0.6055
13514TIP3   OH262032   2.871   1.850  16.915 -0.7178 -0.1555  0.1056
13514TIP3    H162033   2.865   1.826  16.823  1.3302 -0.2588 -0.0391
13514TIP3    H262034   2.795   1.809  16.955 -1.3264 -0.5982 -1.4287
13515TIP3   OH262035   2.376   3.341  43.347  0.5514  0.3709 -0.1513
13515TIP3    H162036   2.470   3.323  43.348  0.3641 -0.6328  0.4515
13515TIP3    H262037   2.356   3.371  43.435 -0.2665 -2.7594  0.8725
13516TIP3   OH262038   1.172   1.397   3.692 -0.5003  0.3830 -0.2899
13516TIP3    H162039   1.221   1.414   3.773 -2.2919 -1.1523  1.2128
13516TIP3    H262040   1.110   1.469   3.686  0.5242  1.2331 -1.0919
13517TIP3   OH262041   1.988   3.728  38.609 -0.2273 -0.3835  0.2594
13517TIP3    H162042   2.017   3.751  38.521 -1.2060  0.4023  0.1279
13517TIP3    H262043   1.931   3.652  38.596 -0.5738 -0.1127  0.1816
13518TIP3   OH262044   1.498   1.240   5.229  0.4702  0.0493 -0.1925
13518TIP3    H162045   1.544   1.160   5.204 -0.3673 -1.0917  1.7042
13518TIP3    H262046   1.406   1.215   5.234  0.4241  0.4049  2.6953
13519TIP3   OH262047   2.605   3.230  10.366  0.4931 -0.3073  0.1016
13519TIP3    H162048   2.621   3.172  10.440 -0.0043 -1.8416 -0.9214
13519TIP3    H262049   2.675   3.209  10.304 -0.0316 -0.2460 -0.5198
13520TIP3   OH262050   0.209   3.990   1.302 -0.1179 -0.0660 -0.0962
13520TIP3    H162051   0.235   4.082   1.303 -2.6554  0.7344 -0.7475
13520TIP3    H262052   0.234   3.958   1.389 -0.0724  1.5213  0.5164
13521TIP3   OH262053   0.249   0.853  11.762  0.4026 -0.5794  0.4242
13521TIP3    H162054   0.229   0.764  11.792 -0.3791 -0.6946 -0.3947
13521TIP3    H262055   0.339   0.849  11.731  0.3124 -1.1332  0.2231
13522TIP3   OH262056   2.992   3.495   5.415 -0.3909 -0.4820  0.5052
13522TIP3    H162057   3.085   3.471   5.413 -0.1300  0.4240  1.2436
13522TIP3    H262058   2.977   3.540   5.332  0.2292  0.7383  1.0306
13523TIP3   OH262059   1.298   1.179  10.424  0.2633  0.2439  0.5481
13523TIP3    H162060   1.366   1.127  10.467  1.9384  1.6212 -0.2680
13523TIP3    H262061   1.246   1.116  10.375  0.4345 -0.9572  1.8514
13524TIP3   OH262062   2.295   1.188  34.215  0.5960 -0.4363  0.4329
13524TIP3    H162063   2.266   1.103  34.249  2.4244 -1.0228  0.6099
13524TIP3    H262064   2.242   1.202  34.137 -0.1913 -1.4216  0.7713
13525TIP3   OH262065   0.707   3.937  12.543 -0.1731  0.2364  0.1026
13525TIP3    H162066   0.649   3.931  12.619 -0.2223 -3.0756 -0.0202
13525TIP3    H262067   0.778   3.876  12.562  2.3343  2.7252 -0.6233
13526TIP3   OH262068   1.815   3.653   4.840 -0.5521 -0.0204  0.1526
13526TIP3    H162069   1.763   3.649   4.920  0.1793 -0.3595  0.6133
13526TIP3    H262070   1.753   3.685   4.774 -0.9923  0.8865  0.9806
13527TIP3   OH262071   0.870   0.647   6.107  0.5039 -0.6174 -0.4987
13527TIP3    H162072   0.888   0.573   6.165  0.0303  0.1366  0.6531
13527TIP3    H262073   0.946   0.652   6.050  1.5708 -0.6431  0.8745
13528TIP3   OH262074   0.073   1.382  12.872 -0.0936  0.1303 -0.4449
13528TIP3    H162075   0.080   1.457  12.932 -3.1274 -0.0943  0.3753
13528TIP3    H262076   0.101   1.416  12.788 -1.2591  2.2182 -0.0618
13529TIP3   OH262077   1.823   3.798  46.641 -0.5207  0.3222  0.4276
13529TIP3    H162078   1.832   3.876  46.696 -1.2197 -0.1878  1.2898
13529TIP3    H262079   1.860   3.727  46.694 -2.0746 -0.3489  0.6645
13530TIP3   OH262080   2.250   2.078   2.890  0.2415 -0.1142 -0.2789
13530TIP3    H162081   2.213   2.164   2.870  1.1814  0.5148  0.5351
13530TIP3    H262082   2.241   2.070   2.985 -2.1463 -2.0654 -0.5699
13531TIP3   OH262083   2.706   0.026  43.195  0.1444  0.1846 -0.2465
13531TIP3    H162084   2.701   0.065  43.282  0.2476  0.5480 -0.4016
13531TIP3    H262085   2.635  -0.037  43.193  0.7920 -0.5969  0.4790
13532TIP3   OH262086   1.834   0.561  42.347 -0.1282 -0.4124  0.6104
13532TIP3    H162087   1.846   0.471  42.317 -1.5981  0.0990 -1.7796
13532TIP3    H262088   1.922   0.593  42.365  0.7381 -1.3796 -1.5701
13533TIP3   OH262089   1.160   1.807  21.484  0.3704  0.1591  0.2089
13533TIP3    H162090   1.201   1.722  21.504  0.4745  0.0222 -0.5386
13533TIP3    H262091   1.083   1.810  21.541 -0.5450 -1.1746 -0.8742
13534TIP3   OH262092   2.199   0.408   2.014 -0.6088 -0.2393 -0.3249
13534TIP3    H162093   2.222   0.368   1.930 -0.8741 -0.0042 -0.5113
13534TIP3    H262094   2.157   0.491   1.990  2.4395  1.5761  0.0773
13535TIP3   OH262095   2.425   0.525   6.134 -0.1501 -0.4098 -0.8559
13535TIP3    H162096   2.413   0.540   6.227  0.4303  0.6298 -0.9411
13535TIP3    H262097   2.346   0.478   6.107 -0.1280 -1.1081  0.2317
13536TIP3   OH262098   1.597   2.550  44.765 -0.2337 -0.0324  0.3707
13536TIP3    H162099   1.628   2.472  44.810 -0.0792 -0.0352  0.2586
13536TIP3    H262100   1.503   2.536  44.754  0.0908 -1.1249 -1.4561
13537TIP3   OH262101   3.278   2.301  17.206 -0.3596 -0.0291  0.4915
13537TIP3    H162102   3.346   2.365  17.224 -0.1578 -0.4293  1.2196
13537TIP3    H262103   3.229   2.337  17.132  0.2342  0.5739  0.3846
13538TIP3   OH262104   3.476   1.861  36.307  0.5861  0.0702  0.2847
13538TIP3    H162105   3.449   1.865  36.216  0.6333 -2.5078  0.0755
13538TIP3    H262106   3.457   1.948  36.342  1.8396  1.5890 -2.4887
13539TIP3   OH262107   0.814   3.031   0.579 -0.0569 -0.1781 -0.4100
13539TIP3    H162108   0.734   3.029   0.631  0.5328  1.7524  0.6909
13539TIP3    H262109   0.885   3.021   0.643  0.6318 -0.1227 -1.1425
13540TIP3   OH262110   3.613   0.169  39.260  0.0120 -0.0004 -0.3539
13540TIP3    H162111   3.606   0.211  39.174 -1.5461  1.3903  0.3858
13540TIP3    H262112   3.558   0.223  39.318  2.3405  0.1496  1.9170
13541TIP3   OH262113   2.486   3.770  34.387 -0.3884  0.2855  0.1841
13541TIP3    H162114   2.394   3.796  34.388 -0.8202 -0.8356 -2.4834
13541TIP3    H262115   2.513   3.776  34.296  1.5807 -1.4432  0.5563
13542TIP3   OH262116   3.423   3.234  11.365  0.0748 -0.1226 -0.3883
13542TIP3    H162117   3.357   3.205  11.428 -0.7975  0.5917 -0.9599
13542TIP3    H262118   3.457   3.152  11.328 -0.6982 -0.4963 -0.3011
13543TIP3   OH262119   2.965   0.922  35.702  0.2475 -0.1427 -0.3504
13543TIP3    H162120   2.885   0.965  35.730  0.6187  0.1145  0.3413
13543TIP3    H262121   3.024   0.928  35.777  1.2780  0.5554 -1.1740
13544TIP3   OH262122   0.875   3.137  34.817 -0.2365  0.0162  0.1110
13544TIP3    H162123   0.931   3.088  34.756 -0.0506 -1.2248  1.2403
13544TIP3    H262124   0.788   3.101  34.803 -0.4015  0.5316 -0.2158
13545TIP3   OH262125   1.635   1.027  34.553 -0.4461  0.7109  0.4888
13545TIP3    H162126   1.645   1.065  34.640  3.2597 -0.3670  0.7245
13545TIP3    H262127   1.627   1.102  34.494  0.3510  1.6173  1.4882
13546TIP3   OH262128   2.997   0.280  26.201 -0.2023  0.1700  0.3465
13546TIP3    H162129   2.944   0.274  26.280 -1.3368 -0.6476 -0.4319
13546TIP3    H262130   3.082   0.244  26.225 -0.4066  0.2904  1.2793
13547TIP3   OH262131   2.280   2.797  30.539 -0.0642 -0.3462 -0.3506
13547TIP3    H162132   2.230   2.724  30.576 -0.1367  0.1853  0.6195
13547TIP3    H262133   2.215   2.847  30.489 -1.1479  1.6246  2.7252
13548TIP3   OH262134   3.832   3.309  43.394 -0.6712 -0.1159  0.2316
13548TIP3    H162135   3.780   3.306  43.313 -2.2091 -0.8752  1.1993
13548TIP3    H262136   3.849   3.402  43.408 -1.8891  0.1688 -0.0558
13549TIP3   OH262137   4.084   0.785  11.054 -0.4091 -0.4549  0.0016
13549TIP3    H162138   4.018   0.766  10.987  0.9564  0.5919 -1.7234
13549TIP3    H262139   4.053   0.865  11.096 -0.5600 -0.3192 -0.3652
13550TIP3   OH262140   1.785   2.614  21.275 -0.2873 -0.3100  0.1483
13550TIP3    H162141   1.821   2.611  21.186 -0.3864 -1.3607  0.1294
13550TIP3    H262142   1.829   2.688  21.316 -2.1418  1.8899 -1.5589
13551TIP3   OH262143   2.771   3.039   7.142  0.0470 -0.6105  0.4355
13551TIP3    H162144   2.845   3.036   7.081  0.1716  0.4626  0.5186
13551TIP3    H262145   2.811   3.038   7.228 -0.1026 -1.3408  0.5076
13552TIP3   OH262146   3.476   2.809  14.665 -0.6001 -0.6020 -0.0447
13552TIP3    H162147   3.428   2.727  14.673 -2.2908  0.5236  3.6461
13552TIP3    H262148   3.568   2.786  14.677 -1.0282 -1.9759  0.7246
13553TIP3   OH262149   2.859   1.018  38.162 -0.4221  0.2057 -0.6683
13553TIP3    H162150   2.930   0.961  38.190 -0.4428  0.7139  0.4668
13553TIP3    H262151   2.886   1.049  38.075  0.9167  0.6649 -0.1111
13554TIP3   OH262152   0.893   2.266  40.300  0.1981  0.1720 -0.2437
13554TIP3    H162153   0.827   2.320  40.257 -0.5279 -0.2708  0.2876
13554TIP3    H262154   0.976   2.307  40.277 -0.2099  0.3451 -1.4827
13555TIP3   OH262155   1.289   0.102  39.558 -0.0298 -0.7051 -0.3151
13555TIP3    H162156   1.303   0.046  39.634 -1.3775 -1.1652 -0.3621
13555TIP3    H262157   1.219   0.057  39.509 -1.3438  1.1393 -0.2264
13556TIP3   OH262158   0.881   3.320   9.231  0.1655 -0.4713  0.0402
13556TIP3    H162159   0.957   3.316   9.173 -0.7862  1.0742 -1.4028
13556TIP3    H262160   0.918   3.313   9.319  2.1543  1.7005 -0.5282
13557TIP3   OH262161   3.714   1.914   0.045  0.5716 -0.0745  0.2647
13557TIP3    H162162   3.804   1.881   0.052  0.4832 -1.0197 -2.2035
13557TIP3    H262163   3.722   1.998   0.002  0.2756 -0.1299  0.0994
13558TIP3   OH262164   0.384   3.492  34.546 -0.3533 -0.1477  0.2067
13558TIP3    H162165   0.428   3.484  34.631  0.1129 -0.0015 -0.0150
13558TIP3    H262166   0.442   3.446  34.485 -0.4281  0.1815 -0.1177
13559TIP3   OH262167   1.716   1.676  11.637  0.2761 -0.3938 -0.0124
13559TIP3    H162168   1.649   1.742  11.655 -0.1985 -0.7115 -0.5841
13559TIP3    H262169   1.738   1.640  11.723 -0.3594 -0.3546  0.1686
13560TIP3   OH262170   1.799   2.162  32.281 -0.3236 -0.4213 -0.6703
13560TIP3    H162171   1.711   2.177  32.246 -0.2582  1.1406 -0.2200
13560TIP3    H262172   1.786   2.144  32.374 -0.2253 -1.0911 -0.7818
13561TIP3   OH262173   1.135   0.533  34.675  0.4388  0.0174 -0.2829
13561TIP3    H162174   1.090   0.506  34.755 -0.9399  1.1333 -0.6456
13561TIP3    H262175   1.073   0.590  34.630  1.3898 -0.1470 -1.8950
13562TIP3   OH262176   1.774   0.272   4.469  0.1894  0.3670  0.1359
13562TIP3    H162177   1.846   0.334   4.477  0.2709  0.3491 -0.4177
13562TIP3    H262178   1.714   0.295   4.541 -0.1187  1.5438 -0.4767
13563TIP3   OH262179   1.692   1.132   9.626  0.2734  0.4405  0.4147
13563TIP3    H162180   1.754   1.067   9.592  0.7115  0.6206  0.8466
13563TIP3    H262181   1.716   1.141   9.718  0.9451  2.0021  0.1234
13564TIP3   OH262182   2.174   3.005  36.390  0.6853  0.3227 -0.5272
13564TIP3    H162183   2.089   3.038  36.420  0.9265  0.2817  0.2391
13564TIP3    H262184   2.174   2.913  36.415  0.1736 -0.1922 -2.2998
13565TIP3   OH262185   0.785   2.581  33.516 -0.3938 -0.0246 -0.8568
13565TIP3    H162186   0.780   2.530  33.597  0.9020  0.2106 -0.6148
13565TIP3    H262187   0.790   2.514  33.447  0.2674 -0.2407 -0.6102
13566TIP3   OH262188   1.834   0.008  35.420 -0.3845 -0.1630  0.1492
13566TIP3    H162189   1.839   0.030  35.513  2.2901  1.4248 -0.2541
13566TIP3    H262190   1.912  -0.045  35.404 -2.0314 -2.4810 -0.8030
13567TIP3   OH262191   2.017   1.468  34.636  0.0757 -0.0453  0.1951
13567TIP3    H162192   1.958   1.416  34.582  1.1548 -1.6223  0.4534
13567TIP3    H262193   1.965   1.493  34.712  0.0169 -2.4155  1.0025
13568TIP3   OH262194   1.229   1.318  21.629  0.5758  0.3967  0.4705
13568TIP3    H162195   1.190   1.264  21.698  0.2805  1.6711  1.3342
13568TIP3    H262196   1.166   1.313  21.557 -0.0743  0.5922  1.0109
13569TIP3   OH262197   1.888   0.765   0.609  0.0457 -0.1405  0.3889
13569TIP3    H162198   1.796   0.791   0.620 -0.5865 -1.1938 -1.7913
13569TIP3    H262199   1.890   0.720   0.525  2.3182 -1.4025  1.0359
13570TIP3   OH262200   1.109   1.398  32.498  0.6149 -0.2510 -0.4135
13570TIP3    H162201   1.129   1.491  32.482  0.2445  0.1067  1.0269
13570TIP3    H262202   1.016   1.398  32.522  0.5286 -1.0500 -0.7137
13571TIP3   OH262203   1.428   0.733  47.126 -0.7360 -0.8361  0.3443
13571TIP3    H162204   1.340   0.764  47.102 -0.0380  1.7468  0.8386
13571TIP3    H262205   1.443   0.769  47.213  0.6891 -1.5507  0.4185
13572TIP3   OH262206   3.405   0.450  42.937 -0.0641  0.5695 -0.0865
13572TIP3    H162207   3.493   0.442  42.901  0.2928 -1.4492  1.0603
13572TIP3    H262208   3.407   0.529  42.991  1.0932  0.4564  0.0501
13573TIP3   OH262209   3.767   3.315  42.078  0.5203  0.8526  0.5256
13573TIP3    H162210   3.763   3.394  42.132 -1.1965  0.9418  0.3118
13573TIP3    H262211   3.856   3.281  42.092  0.6968  1.8378  2.0124
13574TIP3   OH262212   2.266   0.620  46.360  0.6792 -0.0858 -0.6615
13574TIP3    H162213   2.311   0.540  46.334 -0.5541 -0.4949 -1.6143
13574TIP3    H262214   2.239   0.604  46.451  0.8811 -0.5389 -0.6781
13575TIP3   OH262215   2.691   3.387   7.295  0.6415 -0.0504 -0.0507
13575TIP3    H162216   2.624   3.319   7.284  0.9163 -0.2552 -0.4529
13575TIP3    H262217   2.694   3.432   7.211 -1.3542  2.1459  0.9565
13576TIP3   OH262218   2.144   3.830  46.833  0.0509 -0.2780  0.0410
13576TIP3    H162219   2.145   3.765  46.763  0.1672  0.9651 -1.1421
13576TIP3    H262220   2.062   3.877  46.822  1.2111  1.6421 -0.9251
13577TIP3   OH262221   2.106   2.058   1.407 -0.3551 -0.5662  0.7923
13577TIP3    H162222   2.158   2.008   1.344 -0.3452  0.1083  0.2564
13577TIP3    H262223   2.051   2.115   1.353 -1.1440 -0.7690  1.3721
13578TIP3   OH262224   4.089   1.958  36.391 -0.1029  0.1455  0.6562
13578TIP3    H162225   4.044   1.902  36.329 -0.9007 -0.0288  1.3783
13578TIP3    H262226   4.024   2.024  36.417  0.8982  1.6399 -0.4093
13579TIP3   OH262227   2.168   0.733  11.330  0.0418 -0.2990 -0.4360
13579TIP3    H162228   2.099   0.677  11.366  1.5371 -2.2583 -0.4095
13579TIP3    H262229   2.221   0.674  11.276  1.1374  1.3449 -1.2590
13580TIP3   OH262230   2.335   0.116  26.406  0.5092 -0.4602 -0.0622
13580TIP3    H162231   2.285   0.197  26.404  0.2322 -0.6194 -2.4879
13580TIP3    H262232   2.411   0.133  26.351  1.3663 -1.3158  0.8155
13581TIP3   OH262233   1.900   1.023  44.891  0.5996 -0.0111  0.1170
13581TIP3    H162234   1.994   1.040  44.887  0.6757 -0.4501 -0.0724
13581TIP3    H262235   1.860   1.099  44.848  0.9138 -0.1856 -0.5093
13582TIP3   OH262236   2.733   2.112  37.159 -0.0751 -0.5781  0.2020
13582TIP3    H162237   2.772   2.199  37.156  1.7396 -1.3492 -1.3826
13582TIP3    H262238   2.654   2.119  37.106  1.1144 -0.2876 -1.6341
13583TIP3   OH262239   0.344   0.142   2.101  0.0822  0.0745  0.0681
13583TIP3    H162240   0.407   0.148   2.173 -0.4574  2.7078  0.4037
13583TIP3    H262241   0.261   0.169   2.139 -0.2188  1.4990 -1.4774
13584TIP3   OH262242   0.546   1.990  14.145  0.2953 -0.1079  0.3362
13584TIP3    H162243   0.588   1.979  14.231  0.3362  0.8498  0.4493
13584TIP3    H262244   0.472   1.929  14.147  0.6548 -0.5419  0.8097
13585TIP3   OH262245   3.870   3.180   5.599 -0.0334 -0.2505  0.6484
13585TIP3    H162246   3.841   3.167   5.509  0.0624 -2.8298  0.9356
13585TIP3    H262247   3.954   3.135   5.604  0.2271  0.3386  1.8983
13586TIP3   OH262248   0.662   0.983  31.719  0.4153 -0.3852 -0.2838
13586TIP3    H162249   0.636   1.039  31.645  2.8525  0.8073 -0.3444
13586TIP3    H262250   0.751   0.956  31.699 -0.0590 -2.9044  0.6365
13587TIP3   OH262251   0.757   3.452  31.463  0.2526  0.1569  0.1613
13587TIP3    H162252   0.697   3.407  31.403  0.0245  0.2272  0.3334
13587TIP3    H262253   0.840   3.456  31.416  0.7025 -1.7827  0.7216
13588TIP3   OH262254   3.929   2.262  11.275  0.3884  0.1213  0.1253
13588TIP3    H162255   3.837   2.248  11.254  0.3903 -1.0821  0.8326
13588TIP3    H262256   3.966   2.300  11.195 -0.3789 -0.9141 -0.7567
13589TIP3   OH262257   2.169   2.618  32.149  0.1679 -0.1582  0.5425
13589TIP3    H162258   2.146   2.532  32.183 -0.9871 -0.0150  0.1861
13589TIP3    H262259   2.166   2.676  32.225 -1.2697 -0.0487  0.4408
13590TIP3   OH262260   3.601   0.481   0.227 -0.1299  0.0683  0.2262
13590TIP3    H162261   3.654   0.445   0.298 -0.7795  0.4855  0.9399
13590TIP3    H262262   3.654   0.467   0.148  1.1734  0.7318  0.9481
13591TIP3   OH262263   1.816   2.790  31.296  0.0494  0.3088  0.0515
13591TIP3    H162264   1.755   2.774  31.368 -0.5991 -1.2532 -0.8001
13591TIP3    H262265   1.761   2.808  31.220  0.6895  0.6242 -0.3524
13592TIP3   OH262266   2.397   2.348  47.317  0.0913 -0.1050  0.2036
13592TIP3    H162267   2.404   2.306  47.231 -1.8840  1.4364 -0.7906
13592TIP3    H262268   2.303   2.361  47.330  0.4356  0.8677  2.0343
13593TIP3   OH262269   3.214   3.167  32.538 -1.0029 -0.6337 -0.1493
13593TIP3    H162270   3.186   3.248  32.494 -1.5301 -0.7615 -0.0494
13593TIP3    H262271   3.140   3.108  32.529 -1.5613 -0.2926  1.8790
13594TIP3   OH262272   1.115   3.947  24.150  0.0404  0.1661 -0.3330
13594TIP3    H162273   1.131   3.855  24.131 -1.9751 -0.3192  0.0723
13594TIP3    H262274   1.202   3.984  24.166  0.9212 -1.5535 -0.9102
13595TIP3   OH262275   2.555   0.522  39.064 -0.2613  0.4988 -0.1359
13595TIP3    H162276   2.505   0.474  38.998 -3.3635 -0.0509  2.3928
13595TIP3    H262277   2.498   0.594  39.090  1.5284  1.6183  0.8779
13596TIP3   OH262278   1.504   1.169  21.628 -0.5037  0.2708 -0.0281
13596TIP3    H162279   1.428   1.228  21.625 -0.8993 -0.2144  0.2930
13596TIP3    H262280   1.530   1.169  21.720 -0.0009  0.5740 -0.1685
13597TIP3   OH262281   3.454   0.015  11.576  1.1011 -0.4460 -0.4596
13597TIP3    H162282   3.490   0.080  11.516  0.6569  0.2432 -0.0004
13597TIP3    H262283   3.522   0.005  11.643  0.3855  1.0385  0.5398
13598TIP3   OH262284   1.323   2.650  41.567  0.1788  0.0182  0.4892
13598TIP3    H162285   1.389   2.666  41.500 -0.9774  0.0465 -0.6707
13598TIP3    H262286   1.312   2.734  41.610 -0.3310  0.4499 -0.4639
13599TIP3   OH262287   4.017   2.365  12.409 -0.4266  0.7485 -0.2237
13599TIP3    H162288   4.098   2.404  12.375  0.2129  0.6932  1.1774
13599TIP3    H262289   4.002   2.410  12.492 -0.5150 -0.9069  0.6903
13600TIP3   OH262290   3.790   3.836   7.322 -0.0238  0.2090  0.4872
13600TIP3    H162291   3.710   3.831   7.270 -0.7780  0.5081  1.5872
13600TIP3    H262292   3.805   3.930   7.334 -0.0672  0.1402  1.1091
13601TIP3   OH262293   2.791   2.839  12.006  0.6943  0.2906 -0.2992
13601TIP3    H162294   2.791   2.935  12.006  0.4687  0.2903 -0.2646
13601TIP3    H262295   2.837   2.815  11.926  0.6228  0.4266 -0.3812
13602TIP3   OH262296   3.278   1.424  37.842 -0.0967 -0.6710  0.1164
13602TIP3    H162297   3.309   1.349  37.892 -0.8852 -1.5570 -0.6674
13602TIP3    H262298   3.196   1.450  37.885  0.6966  0.4414  1.0273
13603TIP3   OH262299   0.878   1.889   6.012  0.2265 -0.2893 -0.2627
13603TIP3    H162300   0.966   1.888   5.976  1.0997 -1.6208  1.6961
13603TIP3    H262301   0.866   1.800   6.047 -1.7568 -0.0231 -0.1549
13604TIP3   OH262302   3.830   2.359  43.743 -0.0579  0.1625  0.0434
13604TIP3    H162303   3.856   2.366  43.835 -0.2418  0.4532  0.0710
13604TIP3    H262304   3.908   2.324  43.699  0.6148  1.6284  0.0224
13605TIP3   OH262305   3.844   2.784  14.130  0.3210 -0.7075 -0.3499
13605TIP3    H162306   3.900   2.825  14.196 -0.0525 -1.7833  0.6704
13605TIP3    H262307   3.860   2.690  14.140  0.7356 -0.8780 -2.2497
13606TIP3   OH262308   1.787   3.719  40.842 -0.1315 -0.3797  0.5741
13606TIP3    H162309   1.728   3.654  40.804  0.7185 -0.1981 -1.1680
13606TIP3    H262310   1.784   3.702  40.937  1.4070 -4.2043  0.1181
13607TIP3   OH262311   1.701   0.378  13.649  0.6060  0.6038 -0.3609
13607TIP3    H162312   1.665   0.465  13.630  3.1766  1.9514  0.4388
13607TIP3    H262313   1.663   0.354  13.733  1.6851  2.1170  0.6086
13608TIP3   OH262314   1.506   1.034  37.319  0.5050 -0.4457  0.0031
13608TIP3    H162315   1.562   0.965  37.285 -0.3365 -1.6469  0.9326
13608TIP3    H262316   1.452   1.061  37.245  0.1579 -1.5123 -0.1472
13609TIP3   OH262317   0.741   0.389  46.625 -0.6789  0.4772  0.0767
13609TIP3    H162318   0.698   0.473  46.615 -0.5830  0.3647 -1.6541
13609TIP3    H262319   0.683   0.327  46.581 -0.6987 -0.3447  1.2382
13610TIP3   OH262320   0.927   2.476   1.371 -0.0630 -0.4514 -0.0575
13610TIP3    H162321   0.837   2.474   1.338  0.1873 -0.8107 -0.7274
13610TIP3    H262322   0.917   2.492   1.465 -0.7292  2.5994 -0.5252
13611TIP3   OH262323   2.579   3.177   6.959 -0.4935 -0.7342  1.0708
13611TIP3    H162324   2.612   3.161   6.871 -1.2027 -0.5342  0.7626
13611TIP3    H262325   2.649   3.146   7.017 -1.8025 -5.2292  0.5766
13612TIP3   OH262326   0.005   2.038  15.721  0.3666  0.8001 -0.3418
13612TIP3    H162327  -0.046   2.046  15.802  0.7640  1.4658 -0.1473
13612TIP3    H262328   0.072   1.972  15.742 -0.4212 -0.0990 -0.6096
13613TIP3   OH262329   1.282   0.701   9.795 -0.4987 -0.1225  0.0189
13613TIP3    H162330   1.274   0.795   9.780  0.4062 -0.1324 -0.6332
13613TIP3    H262331   1.231   0.661   9.724 -2.0322 -0.1335  1.0875
13614TIP3   OH262332   0.813   3.175  35.059  0.0263 -0.6149 -0.3940
13614TIP3    H162333   0.891   3.211  35.102  0.2535 -0.6576 -0.7660
13614TIP3    H262334   0.841   3.159  34.969 -0.2098 -1.2559 -0.3642
13615TIP3   OH262335   2.119   1.904  34.887  0.8142  0.3956 -0.0007
13615TIP3    H162336   2.079   1.974  34.834 -0.1996 -0.0375  0.1761
13615TIP3    H262337   2.138   1.946  34.971  0.6044  0.5743 -0.0418
13616TIP3   OH262338   3.172   1.420  47.189  0.1130 -0.4427  0.1265
13616TIP3    H162339   3.249   1.415  47.246  0.6651  1.8037 -0.3187
13616TIP3    H262340   3.109   1.473  47.238 -0.2980 -0.4219 -0.4070
13617TIP3   OH262341   0.479   0.364  41.247  0.1111 -0.1830 -0.6776
13617TIP3    H162342   0.405   0.421  41.225 -2.1634 -2.0198  1.5415
13617TIP3    H262343   0.459   0.281  41.203  1.3979 -0.3971 -0.8738
13618TIP3   OH262344   2.875   1.263  42.496  0.6420  0.4941 -0.1927
13618TIP3    H162345   2.913   1.190  42.545  2.1445  0.3383 -1.5341
13618TIP3    H262346   2.789   1.232  42.469  0.1834  0.2253  1.4668
13619TIP3   OH262347   3.253   0.718  44.925 -0.3466 -0.2341  0.0054
13619TIP3    H162348   3.188   0.648  44.928 -0.4631 -0.0984  0.6824
13619TIP3    H262349   3.320   0.692  44.987  0.8069 -0.8975 -1.4494
13620TIP3   OH262350   3.022   1.696  45.251 -0.0373 -0.2567  0.0434
13620TIP3    H162351   3.036   1.629  45.318 -0.3577 -1.3339 -0.9324
13620TIP3    H262352   3.104   1.698  45.202 -0.7126 -1.4143 -1.1908
13621TIP3   OH262353   3.490   1.267  13.301 -0.4150  0.3680  0.3904
13621TIP3    H162354   3.547   1.231  13.369  0.0950  0.1730 -0.1274
13621TIP3    H262355   3.487   1.199  13.234 -0.3447  0.8341 -0.0943
13622TIP3   OH262356   2.373   1.598  40.865 -0.0087 -0.2130  0.3526
13622TIP3    H162357   2.454   1.558  40.896 -1.2326 -2.5541  0.7962
13622TIP3    H262358   2.331   1.632  40.944  0.9498  1.9222 -0.0061
13623TIP3   OH262359   0.436   0.273  42.286 -0.0840  0.4632 -0.3178
13623TIP3    H162360   0.352   0.289  42.243 -0.6052  0.5920  0.7396
13623TIP3    H262361   0.462   0.358  42.322  0.6806  0.5052 -0.9171
13624TIP3   OH262362   0.239   2.199  36.099  0.6661  0.2266 -0.5386
13624TIP3    H162363   0.243   2.104  36.106 -0.8641  0.2513  1.2873
13624TIP3    H262364   0.318   2.230  36.143  0.0882 -0.1560  0.7903
13625TIP3   OH262365   2.277   1.877  35.808  0.3144 -0.2336 -0.3951
13625TIP3    H162366   2.317   1.858  35.724  1.1036  0.2959 -0.1470
13625TIP3    H262367   2.296   1.800  35.861 -1.0467 -1.0086 -0.9847
13626TIP3   OH262368   1.260   2.489  32.225  0.3754  0.0962 -0.0973
13626TIP3    H162369   1.308   2.487  32.308 -0.1179 -0.4202  0.1824
13626TIP3    H262370   1.168   2.496  32.250  0.0052 -2.3399 -0.4914
13627TIP3   OH262371   2.245   2.063  33.863  0.3792  0.1767  0.0574
13627TIP3    H162372   2.292   2.068  33.780  1.2527  0.8703  0.5607
13627TIP3    H262373   2.306   2.102  33.926 -0.8397  0.9491  0.7731
13628TIP3   OH262374   2.004   3.724  44.603 -0.0218 -0.4977  0.3010
13628TIP3    H162375   2.049   3.791  44.655 -1.2593  0.3583  0.3288
13628TIP3    H262376   1.941   3.685  44.663  1.2101 -2.2984  0.5091
13629TIP3   OH262377   2.837   0.324  42.221 -0.6043 -0.0100  0.0768
13629TIP3    H162378   2.796   0.244  42.255 -0.8400  0.0794  0.0048
13629TIP3    H262379   2.769   0.390  42.229 -0.0154  0.4842  1.3169
13630TIP3   OH262380   3.397   2.668  42.822 -0.2525 -0.4301  0.5090
13630TIP3    H162381   3.492   2.659  42.809 -0.2242 -1.2352  1.1655
13630TIP3    H262382   3.388   2.684  42.916 -0.7021  0.8652  0.2667
13631TIP3   OH262383   2.583   2.991  32.640  0.3241  0.3407  0.0406
13631TIP3    H162384   2.580   2.915  32.699 -0.5437  0.2595 -0.0998
13631TIP3    H262385   2.499   3.034  32.652 -0.2982 -0.2389 -1.8751
13632TIP3   OH262386   1.244   1.250   5.528  0.1344 -0.1322 -0.1812
13632TIP3    H162387   1.331   1.289   5.521 -0.6106  1.2952 -2.0292
13632TIP3    H262388   1.260   1.165   5.570  2.1614  0.8448  1.1811
13633TIP3   OH262389   0.235   3.915  12.135  0.2147  0.0261 -0.0876
13633TIP3    H162390   0.274   3.986  12.186  1.5895 -1.0286  0.3804
13633TIP3    H262391   0.257   3.937  12.044  2.5245 -0.8177  0.1870
13634TIP3   OH262392   3.582   1.098  12.379  0.3725 -0.0240 -0.3560
13634TIP3    H162393   3.542   1.059  12.457  0.5153 -0.5842 -0.5597
13634TIP3    H262394   3.675   1.104  12.400  0.1293  1.9545  0.4043
13635TIP3   OH262395   3.479   1.192  35.188  0.5721  0.2304  0.5059
13635TIP3    H162396   3.491   1.238  35.271  0.8680  2.0682 -0.5041
13635TIP3    H262397   3.385   1.180  35.181  0.1526  3.3305 -0.4969
13636TIP3   OH262398   1.253   2.309  12.226 -0.1607  0.7349  0.0431
13636TIP3    H162399   1.208   2.242  12.276  0.0622  0.4842 -0.0917
13636TIP3    H262400   1.342   2.276  12.216 -0.0832  0.9927 -0.1280
13637TIP3   OH262401   1.318   3.804  41.538 -0.1618 -0.5098 -0.6740
13637TIP3    H162402   1.384   3.826  41.603 -1.0324  0.9142 -0.2395
13637TIP3    H262403   1.312   3.708  41.541  0.6768 -0.5374  0.4623
13638TIP3   OH262404   0.846   0.166  43.727  0.2561  0.3236 -0.4984
13638TIP3    H162405   0.900   0.087  43.721 -0.2209 -0.2306  1.7927
13638TIP3    H262406   0.877   0.210  43.806 -1.4490  0.9050 -0.1243
13639TIP3   OH262407   3.129   2.452  10.716 -0.1835 -0.0483 -0.0425
13639TIP3    H162408   3.120   2.505  10.637  2.2796  0.2254 -0.1918
13639TIP3    H262409   3.104   2.364  10.689  1.2302 -0.0862 -1.3299
13640TIP3   OH262410   0.516   3.628  35.847  0.3572 -0.4798  0.3204
13640TIP3    H162411   0.568   3.682  35.906  0.9172  1.0628 -1.4941
13640TIP3    H262412   0.428   3.628  35.887  0.7056  0.5097  1.1464
13641TIP3   OH262413   0.525   3.568   4.610 -0.3991  0.4235  0.6212
13641TIP3    H162414   0.493   3.480   4.590  0.5504  0.7819 -3.3572
13641TIP3    H262415   0.593   3.554   4.676  1.3755 -2.2725 -1.5288
13642TIP3   OH262416   3.054   0.082   5.379 -0.3259  0.4371  0.3773
13642TIP3    H162417   3.059   0.145   5.451 -0.9141  0.0314  0.7824
13642TIP3    H262418   3.136   0.094   5.331  0.6693 -0.1492  1.8441
13643TIP3   OH262419   3.144   3.868  40.452 -0.2693 -0.0637  0.2210
13643TIP3    H162420   3.076   3.834  40.510 -0.9888  0.5445 -0.2463
13643TIP3    H262421   3.224   3.825  40.481 -0.6918 -0.1028  1.3755
13644TIP3   OH262422   1.660   2.004   9.338 -0.1100 -0.1569  0.2321
13644TIP3    H162423   1.642   2.096   9.319  2.2957  0.3407 -0.0540
13644TIP3    H262424   1.755   2.001   9.353  0.2552 -2.8965 -1.8138
13645TIP3   OH262425   0.955   3.625  37.852 -0.2453  0.3183 -0.2552
13645TIP3    H162426   1.008   3.704  37.857 -0.7760  0.7453 -1.1866
13645TIP3    H262427   0.926   3.609  37.942  1.1519  0.2728  0.2103
13646TIP3   OH262428   1.263   1.246  14.937 -0.0434  0.0010  0.3819
13646TIP3    H162429   1.185   1.254  14.883  1.8857 -1.5917 -2.9194
13646TIP3    H262430   1.265   1.154  14.963  0.5894  0.1007  0.6943
13647TIP3   OH262431   0.810   3.942   4.358  0.1317  0.8375  0.3323
13647TIP3    H162432   0.779   4.010   4.298 -0.2489 -0.2133 -0.7031
13647TIP3    H262433   0.758   3.956   4.437 -2.3734 -0.2227 -0.9841
13648TIP3   OH262434   3.595   1.771   7.244 -0.3682 -0.4346 -0.3189
13648TIP3    H162435   3.546   1.823   7.307 -0.3893 -0.0027 -0.6872
13648TIP3    H262436   3.641   1.836   7.191  1.1335 -0.8355  0.4327
13649TIP3   OH262437   2.429   2.193  15.574  0.1797 -0.0335 -0.0002
13649TIP3    H162438   2.374   2.174  15.498  0.2164 -1.3815  0.2895
13649TIP3    H262439   2.367   2.207  15.645  0.1421  1.3185 -0.2730
13650TIP3   OH262440   0.053   2.604  37.521  0.0143  0.3565  0.7651
13650TIP3    H162441   0.140   2.624  37.555  0.6704 -0.6697 -0.2439
13650TIP3    H262442   0.059   2.618  37.427 -0.6771 -0.4708  0.5805
13651TIP3   OH262443   1.225   1.952  22.113  0.8627  0.3140 -0.6625
13651TIP3    H162444   1.299   1.962  22.174 -1.0170  1.6855  1.5424
13651TIP3    H262445   1.180   1.874  22.143  0.5640  0.3386 -1.0471
13652TIP3   OH262446   2.570   2.896  11.719  0.0663 -0.2244 -0.0407
13652TIP3    H162447   2.637   2.829  11.706 -0.4035 -0.6513 -0.3228
13652TIP3    H262448   2.514   2.860  11.789  0.2898  0.2542  0.3875
13653TIP3   OH262449   1.633   2.393   5.109  0.3592  0.0142  0.1898
13653TIP3    H162450   1.714   2.415   5.063  0.4877  0.9790  0.8694
13653TIP3    H262451   1.658   2.319   5.166  0.1444 -1.3492 -1.4038
13654TIP3   OH262452   0.466   3.619  46.577  0.5213 -0.6658 -0.0170
13654TIP3    H162453   0.514   3.633  46.659  2.0113 -0.7385 -0.8500
13654TIP3    H262454   0.530   3.582  46.517  0.4752  2.5202 -2.3130
13655TIP3   OH262455   3.928   0.541  36.762 -0.1211  1.0475  0.5752
13655TIP3    H162456   3.846   0.589  36.756 -0.0139  1.2646  0.7952
13655TIP3    H262457   3.920   0.489  36.841 -0.9069 -0.6048 -0.5420
13656TIP3   OH262458   0.122   0.519   6.660  0.2247  0.1441  0.6624
13656TIP3    H162459   0.126   0.509   6.755 -0.1128  0.1236  0.6746
13656TIP3    H262460   0.117   0.613   6.646  0.5347  0.1587  0.6557
13657TIP3   OH262461   0.991   2.928  47.658  0.0275 -0.1204 -0.2797
13657TIP3    H162462   1.006   2.900  47.748 -0.6171  1.1359  0.2435
13657TIP3    H262463   0.978   3.022  47.664 -2.8310 -0.3500 -1.2878
13658TIP3   OH262464   0.911   1.546  15.170  0.5379  0.6944 -0.1265
13658TIP3    H162465   0.956   1.479  15.220 -0.2743  0.4506  0.2934
13658TIP3    H262466   0.929   1.628  15.216  0.6621  0.6186 -0.0423
13659TIP3   OH262467   0.664   0.912   1.515 -0.0069 -0.1047 -0.1246
13659TIP3    H162468   0.675   1.003   1.543  2.0524 -0.3462 -0.0028
13659TIP3    H262469   0.707   0.908   1.430 -0.4230 -0.8828 -0.3027
13660TIP3   OH262470   0.004   0.381  13.480  1.2202  0.3979  0.3799
13660TIP3    H162471  -0.087   0.395  13.454  0.5760 -0.9698  1.7069
13660TIP3    H262472   0.011   0.425  13.565  2.0639  1.2523 -0.1212
13661TIP3   OH262473   0.158   3.470  44.632 -0.3052 -0.6116 -0.5801
13661TIP3    H162474   0.124   3.516  44.708 -0.2124 -0.5003 -0.6055
13661TIP3    H262475   0.247   3.443  44.657  0.7963  1.7912 -1.5963
13662TIP3   OH262476   3.143   2.547   2.767  0.1867  0.7978  0.3940
13662TIP3    H162477   3.224   2.554   2.717  0.6592  1.2402  1.2001
13662TIP3    H262478   3.157   2.601   2.844  0.0967 -1.1331  1.8436
13663TIP3   OH262479   3.262   2.354  35.474  0.5125 -0.1641 -0.1478
13663TIP3    H162480   3.270   2.415  35.401 -0.0210  1.5441  1.1735
13663TIP3    H262481   3.272   2.408  35.552 -2.7354 -1.2411  1.1623
13664TIP3   OH262482   2.294   0.766   6.955  0.2372 -0.2757  0.3143
13664TIP3    H162483   2.199   0.763   6.941  0.2050 -0.8754  0.6133
13664TIP3    H262484   2.328   0.693   6.904  0.4359 -0.6136  0.9180
13665TIP3   OH262485   1.175   3.634  39.482  0.2551  0.2069 -0.5015
13665TIP3    H162486   1.221   3.630  39.398 -1.5412 -0.7610 -1.4931
13665TIP3    H262487   1.086   3.662  39.460 -0.0527  0.6604  1.1777
13666TIP3   OH262488   1.211   0.443  45.281  0.1360 -0.0945  0.0515
13666TIP3    H162489   1.222   0.465  45.373  0.0306  0.8206 -0.1358
13666TIP3    H262490   1.131   0.390  45.278  0.8822 -1.2730  0.6382
13667TIP3   OH262491   2.559   2.581  13.091 -0.2887  0.4813 -0.2093
13667TIP3    H162492   2.592   2.492  13.103  0.3030  0.6468 -0.5898
13667TIP3    H262493   2.542   2.588  12.997 -0.1240  0.8463 -0.2130
13668TIP3   OH262494   2.047   2.976  10.130  0.1293 -0.6697 -0.4894
13668TIP3    H162495   1.999   3.043  10.178  0.7437 -0.8796  0.4501
13668TIP3    H262496   1.979   2.925  10.085 -0.3383  0.5175 -1.1545
13669TIP3   OH262497   3.043   3.436  10.663  0.0904 -0.1039  0.4969
13669TIP3    H162498   3.025   3.518  10.616  1.3112  0.5826  1.1838
13669TIP3    H262499   3.045   3.461  10.755  1.4014 -0.7132  0.6551
13670TIP3   OH262500   1.816   0.865  40.807  0.2909 -0.1604 -0.2762
13670TIP3    H162501   1.818   0.794  40.743 -0.3628 -1.2128  0.8198
13670TIP3    H262502   1.845   0.824  40.888  0.9017  1.0962  0.1481
13671TIP3   OH262503   2.159   1.012  14.668 -0.0314  0.1343  0.3259
13671TIP3    H162504   2.130   1.102  14.656 -1.3250 -0.2343  0.5709
13671TIP3    H262505   2.145   0.971  14.583 -1.5187 -0.3832  0.7979
13672TIP3   OH262506   0.334   2.621   4.642 -0.0841 -0.7901 -0.2705
13672TIP3    H162507   0.286   2.555   4.692  0.5729 -1.2673 -0.2523
13672TIP3    H262508   0.268   2.687   4.620 -0.4225 -0.6607  1.0465
13673TIP3   OH262509   1.456   1.802  11.623  0.3958  0.2770  0.2574
13673TIP3    H162510   1.454   1.723  11.570  3.2296 -0.1037  0.5918
13673TIP3    H262511   1.386   1.857  11.586  0.8311 -0.8258 -2.4634
13674TIP3   OH262512   0.973   2.916  46.599 -0.1268 -0.4395  0.0798
13674TIP3    H162513   0.965   2.877  46.512  1.2858 -1.0917  0.2207
13674TIP3    H262514   0.907   2.871  46.652  0.1325 -1.2286 -0.2521
13675TIP3   OH262515   3.550   1.743   5.706 -0.0188  0.4501  0.1759
13675TIP3    H162516   3.608   1.787   5.768  1.2184 -0.3086 -0.3851
13675TIP3    H262517   3.558   1.794   5.625  0.9963 -0.4432 -0.3148
13676TIP3   OH262518   2.032   1.788  22.335  0.2925 -0.4229 -0.1852
13676TIP3    H162519   1.974   1.712  22.329  0.1481 -0.3401  0.1603
13676TIP3    H262520   1.990   1.846  22.398  0.6527 -0.2735 -0.0796
13677TIP3   OH262521   3.954   4.062  44.394 -0.6676 -0.6855 -0.5157
13677TIP3    H162522   3.967   4.006  44.317  1.3733  0.1511 -0.8528
13677TIP3    H262523   3.972   4.150  44.362  2.9036 -0.5255  1.3655
13678TIP3   OH262524   3.816   3.205  46.046  0.3505  1.1681  0.3501
13678TIP3    H162525   3.797   3.299  46.050 -0.3848  1.1259 -1.2193
13678TIP3    H262526   3.736   3.166  46.011  0.5514 -0.1030  1.2066
13679TIP3   OH262527   0.436   1.969  32.193 -0.0137 -0.2153  0.1013
13679TIP3    H162528   0.348   1.992  32.222 -0.2703 -0.5160 -0.4314
13679TIP3    H262529   0.472   2.050  32.156 -0.1290 -0.1358  0.1648
13680TIP3   OH262530   2.498   1.757  36.669 -0.4120 -0.4819 -0.3202
13680TIP3    H162531   2.555   1.784  36.741 -0.2400  2.1785 -1.3415
13680TIP3    H262532   2.417   1.728  36.711  0.4705 -1.1267  0.9995
13681TIP3   OH262533   2.407   2.540  11.395  0.4660  0.3427  0.1319
13681TIP3    H162534   2.312   2.548  11.381  0.2447 -0.5511  1.0389
13681TIP3    H262535   2.431   2.461  11.346  0.3160 -0.7415  1.7359
13682TIP3   OH262536   0.983   3.919  44.873 -0.8006  0.0112 -0.1150
13682TIP3    H162537   1.075   3.946  44.882 -0.1456 -2.2045  0.6096
13682TIP3    H262538   0.986   3.823  44.879 -3.2165 -0.0964  0.2206
13683TIP3   OH262539   0.723   3.266  40.755 -0.3041  0.0683 -0.2426
13683TIP3    H162540   0.684   3.337  40.806  0.7409  0.5487 -0.0891
13683TIP3    H262541   0.816   3.269  40.777  0.0358 -0.2289 -1.5809
13684TIP3   OH262542   1.970   1.617  15.328 -0.2702  0.4607  0.3187
13684TIP3    H162543   1.987   1.569  15.410  0.8980  1.9546  0.9902
13684TIP3    H262544   2.007   1.704  15.343 -1.3783  1.2502 -1.2621
13685TIP3   OH262545   4.092   1.061  38.761 -0.2444 -0.1923  0.6896
13685TIP3    H162546   4.165   1.032  38.816  0.2234 -1.0630 -0.3656
13685TIP3    H262547   4.070   0.985  38.708 -2.5632 -0.2543  1.6443
13686TIP3   OH262548   0.515   3.347   3.579 -0.1861 -0.3581 -0.3435
13686TIP3    H162549   0.450   3.392   3.632  1.7971  1.9172  0.3394
13686TIP3    H262550   0.535   3.268   3.628  0.5520  0.9839  1.6546
13687TIP3   OH262551   3.641   1.616  39.798 -0.3400 -0.1633 -0.1742
13687TIP3    H162552   3.621   1.671  39.722 -1.7072  0.8600  0.8717
13687TIP3    H262553   3.561   1.617  39.850  0.6438 -0.5770  1.4318
13688TIP3   OH262554   1.001   0.690  32.274  0.2677 -0.3874 -0.0913
13688TIP3    H162555   1.028   0.775  32.308 -0.3397 -0.6539  1.1193
13688TIP3    H262556   1.025   0.692  32.181  3.2416 -0.1376  0.5871
13689TIP3   OH262557   1.061   1.998  33.084 -0.0428  0.1547 -0.6120
13689TIP3    H162558   1.066   1.972  33.176  0.5006  0.9324 -0.4119
13689TIP3    H262559   1.071   1.916  33.035 -1.4309 -0.4169  0.0098
13690TIP3   OH262560   3.123   2.524  12.344 -0.7284  0.2684  0.1694
13690TIP3    H162561   3.141   2.594  12.281  1.4051 -0.4782 -0.1398
13690TIP3    H262562   3.089   2.452  12.290 -1.4870  0.5347  0.2790
13691TIP3   OH262563   3.844   1.868   5.640 -1.1253  0.0705  0.3913
13691TIP3    H162564   3.923   1.858   5.693 -1.1993 -0.2359  0.4441
13691TIP3    H262565   3.846   1.960   5.612 -0.1487 -0.2148 -0.5664
13692TIP3   OH262566   0.366   1.213  37.694 -0.4125  0.2695  0.2452
13692TIP3    H162567   0.325   1.152  37.633  1.0369 -1.5061  0.9892
13692TIP3    H262568   0.414   1.274  37.638 -1.1995  0.2488 -0.4725
13693TIP3   OH262569   3.255   0.056  41.545  0.0432 -0.1793 -0.0278
13693TIP3    H162570   3.240   0.117  41.617 -1.0388  0.6980 -0.9569
13693TIP3    H262571   3.198   0.087  41.475  0.3498 -1.5815 -0.9398
13694TIP3   OH262572   1.144   3.272  15.617 -0.4004  0.2954  0.4647
13694TIP3    H162573   1.162   3.190  15.571 -0.6406 -0.3997  1.5812
13694TIP3    H262574   1.217   3.284  15.677  0.6245  1.9212 -0.9981
13695TIP3   OH262575   0.931   2.061  46.584  0.2125 -0.6558 -0.1541
13695TIP3    H162576   0.944   2.053  46.490  0.6932 -1.4136 -0.0284
13695TIP3    H262577   0.838   2.082  46.594  0.1267 -0.7319 -0.7818
13696TIP3   OH262578   4.108   0.499  44.592  0.3397 -0.0121  0.0798
13696TIP3    H162579   4.047   0.436  44.553  2.8935 -1.3284 -2.1562
13696TIP3    H262580   4.110   0.572  44.530  2.1055 -0.7117 -0.7746
13697TIP3   OH262581   0.673   1.296  38.191 -0.0046  0.5674  0.4628
13697TIP3    H162582   0.580   1.316  38.197 -0.2753 -0.3105 -0.6407
13697TIP3    H262583   0.686   1.226  38.255 -0.4298 -0.3583 -0.4350
13698TIP3   OH262584   3.773   3.787   5.272 -0.0243  0.3886  0.0402
13698TIP3    H162585   3.706   3.800   5.340  0.0305 -0.4977  0.2801
13698TIP3    H262586   3.792   3.875   5.240  0.9543  1.0090  2.1323
13699TIP3   OH262587   3.984   0.392  13.984 -0.6767 -0.0469 -0.4721
13699TIP3    H162588   4.071   0.354  13.997 -1.6198 -2.3374 -0.4533
13699TIP3    H262589   3.950   0.406  14.072 -0.5176  0.4367 -0.4831
13700TIP3   OH262590   3.966   3.566  38.669 -0.2062 -0.1034 -0.5718
13700TIP3    H162591   4.038   3.616  38.708 -2.3613  2.5550  0.3405
13700TIP3    H262592   3.997   3.546  38.580  0.9701  2.7864 -0.9451
13701TIP3   OH262593   2.982   3.724  25.599 -0.3019  0.1208 -0.1294
13701TIP3    H162594   3.030   3.652  25.642 -0.5361  0.6569  1.0781
13701TIP3    H262595   2.979   3.793  25.666 -1.9568  0.4384 -0.5052
13702TIP3   OH262596   3.217   0.040  46.144  0.6366  0.1755  0.1082
13702TIP3    H162597   3.289  -0.022  46.136  0.1829 -0.7070  2.0295
13702TIP3    H262598   3.257   0.118  46.183  0.7780  0.1313  0.0503
13703TIP3   OH262599   0.699   0.978  38.663 -0.4534  0.1237  0.9512
13703TIP3    H162600   0.713   0.889  38.632  1.2524 -0.0155  1.9702
13703TIP3    H262601   0.627   1.012  38.609 -1.2958 -1.9202  0.7191
13704TIP3   OH262602   3.831   1.538  38.181 -0.5602  0.5668 -0.0085
13704TIP3    H162603   3.864   1.599  38.116 -1.6067  0.5024 -0.6266
13704TIP3    H262604   3.834   1.453  38.137  1.4283  0.0308  1.0311
13705TIP3   OH262605   1.871   0.806  10.862 -0.1731  0.1798 -0.6141
13705TIP3    H162606   1.918   0.845  10.788  1.5981  1.3521  1.0294
13705TIP3    H262607   1.800   0.757  10.822  0.5344  1.0118 -3.0710
13706TIP3   OH262608   3.167   3.755   8.098  0.1203  0.4716  0.2972
13706TIP3    H162609   3.104   3.821   8.069 -1.2762 -0.0744  1.9052
13706TIP3    H262610   3.211   3.727   8.018 -1.0337  1.5514 -0.7618
13707TIP3   OH262611   2.979   3.214  39.775  0.2445 -0.3868 -0.1127
13707TIP3    H162612   3.010   3.124  39.763 -2.2427 -1.4723  0.9738
13707TIP3    H262613   3.013   3.239  39.861 -0.4525 -0.9395  0.3337
13708TIP3   OH262614   1.744   1.091  31.617 -0.0968  0.3443 -0.2458
13708TIP3    H162615   1.661   1.090  31.664  0.7647  0.5101  1.3327
13708TIP3    H262616   1.743   1.173  31.568 -0.7430  0.4677 -0.0381
13709TIP3   OH262617   1.884   1.477   2.866 -0.7725 -0.3267  0.2522
13709TIP3    H162618   1.850   1.399   2.909 -0.7193 -0.9307 -0.7777
13709TIP3    H262619   1.979   1.467   2.869 -0.7677 -0.3391  0.0422
13710TIP3   OH262620   0.899   1.380   5.146  0.1265 -0.4873  0.5381
13710TIP3    H162621   0.829   1.383   5.080  1.3728 -1.1942 -0.8960
13710TIP3    H262622   0.858   1.342   5.223 -1.1135 -0.7514 -0.2228
13711TIP3   OH262623   2.227   0.997  32.578  0.1090  0.5116  0.3906
13711TIP3    H162624   2.298   0.981  32.641  2.0059 -0.2938 -1.7948
13711TIP3    H262625   2.214   1.092  32.581  1.0508  0.6359  1.1148
13712TIP3   OH262626   2.797   1.023   1.020  0.1009 -0.4048 -0.3066
13712TIP3    H162627   2.881   1.065   1.038 -0.2236  0.8376 -1.4462
13712TIP3    H262628   2.737   1.097   1.007 -1.7456 -1.1920  2.6844
13713TIP3   OH262629   1.823   2.451  20.778  0.4132 -0.1833  0.2987
13713TIP3    H162630   1.796   2.415  20.693  0.7812  1.4217 -0.5317
13713TIP3    H262631   1.770   2.403  20.842 -2.9435  1.3311 -1.1150
13714TIP3   OH262632   2.223   0.608  41.335 -0.0130 -0.0050  0.6217
13714TIP3    H162633   2.180   0.537  41.286  1.3134 -0.0170 -0.6050
13714TIP3    H262634   2.305   0.623  41.287 -0.5109  2.7622  0.5121
13715TIP3   OH262635   3.464   1.740  12.743  0.2262 -0.0194 -0.2243
13715TIP3    H162636   3.411   1.674  12.787  0.8004 -1.8073 -2.0791
13715TIP3    H262637   3.404   1.782  12.681 -0.5290  2.3497  1.9724
13716TIP3   OH262638   1.137   3.815  26.391 -0.7684  0.0459  0.1100
13716TIP3    H162639   1.101   3.790  26.305  1.1981 -0.1609 -0.7113
13716TIP3    H262640   1.062   3.848  26.439 -1.5577  2.5972 -2.5824
13717TIP3   OH262641   3.616   0.679  40.925 -0.7032 -0.0624 -0.0787
13717TIP3    H162642   3.672   0.618  40.877  1.1950  0.7732  0.9809
13717TIP3    H262643   3.527   0.656  40.898  0.1373 -1.2115 -2.1054
13718TIP3   OH262644   2.521   0.175  38.380 -0.3721  0.0557 -0.1221
13718TIP3    H162645   2.443   0.127  38.410  0.9336 -2.0353  0.1366
13718TIP3    H262646   2.555   0.218  38.458 -2.7737  3.4725 -0.7377
13719TIP3   OH262647   2.952   0.304  46.950  0.2978 -0.2874  0.1522
13719TIP3    H162648   2.998   0.224  46.976  1.4871 -0.0112 -1.0106
13719TIP3    H262649   3.000   0.375  46.994 -2.2009 -0.2668  3.1969
13720TIP3   OH262650   0.565   3.696  35.356 -0.4074 -0.1670  0.4179
13720TIP3    H162651   0.551   3.791  35.353 -1.1339 -0.2837 -0.0817
13720TIP3    H262652   0.620   3.683  35.433  0.4565  0.7486 -0.0186
13721TIP3   OH262653   3.452   0.853  12.976  0.1951 -0.1953 -0.3988
13721TIP3    H162654   3.386   0.801  13.022  1.0928 -1.2137 -0.2331
13721TIP3    H262655   3.401   0.911  12.919 -0.8572 -0.5493  0.1468
13722TIP3   OH262656   0.763   3.474  42.061 -1.0994  0.1832 -0.6987
13722TIP3    H162657   0.695   3.529  42.100 -0.7641  0.8643 -1.0468
13722TIP3    H262658   0.731   3.385  42.071  0.4699 -0.1258  4.3122
13723TIP3   OH262659   3.649   2.288   8.772 -0.7017  0.1357 -0.1433
13723TIP3    H162660   3.570   2.234   8.774  0.8920 -2.5178 -2.1035
13723TIP3    H262661   3.636   2.346   8.697  0.1051 -1.9647 -1.9944
13724TIP3   OH262662   2.521   0.757   4.999 -0.3085  0.3946  0.7332
13724TIP3    H162663   2.456   0.819   4.966  1.2923  1.5955 -0.3255
13724TIP3    H262664   2.553   0.796   5.080 -0.8942 -0.2041  1.2632
13725TIP3   OH262665   1.849   3.080  13.429  0.3192 -0.2131  0.3522
13725TIP3    H162666   1.789   3.022  13.477  0.0268  0.6279  1.0276
13725TIP3    H262667   1.852   3.043  13.341 -3.0108  0.9492 -0.4205
13726TIP3   OH262668   3.386   2.735  37.008  0.8147 -0.1177 -0.4110
13726TIP3    H162669   3.419   2.763  37.094  0.8333 -1.2785 -0.0283
13726TIP3    H262670   3.444   2.664  36.982 -0.5186 -1.2573 -0.3641
13727TIP3   OH262671   4.009   0.559   8.878 -0.5967  0.0179 -0.0973
13727TIP3    H162672   3.969   0.485   8.924 -0.1751 -0.8809 -1.1217
13727TIP3    H262673   4.097   0.567   8.915 -0.2321 -0.7500 -0.7749
13728TIP3   OH262674   4.010   3.917  39.330 -0.2884 -0.0531 -0.4449
13728TIP3    H162675   3.945   3.858  39.367 -0.6248 -0.5887 -1.8157
13728TIP3    H262676   4.046   3.868  39.256  1.3816  0.4052  0.0286
13729TIP3   OH262677   3.057   3.393  29.316  0.1163  0.5735 -0.0267
13729TIP3    H162678   3.017   3.469  29.358  1.0359  1.4768 -0.7338
13729TIP3    H262679   3.125   3.364  29.377 -0.1914  0.3445  0.2125
13730TIP3   OH262680   0.863   1.864  32.625  0.5330  0.1980  0.6613
13730TIP3    H162681   0.824   1.862  32.538  3.4867  0.7873 -0.8109
13730TIP3    H262682   0.864   1.773  32.654 -1.3504  0.1067  0.5840
13731TIP3   OH262683   1.350   1.871  14.521 -0.5828  0.7905 -0.3105
13731TIP3    H162684   1.433   1.876  14.568 -0.5192 -0.5314 -0.2332
13731TIP3    H262685   1.358   1.792  14.467 -1.6045  0.9027 -0.6492
13732TIP3   OH262686   0.944   4.077  34.747 -0.2337 -0.0816 -0.0393
13732TIP3    H162687   0.926   3.994  34.792 -0.6866  0.6666  1.2226
13732TIP3    H262688   0.943   4.054  34.654 -2.1184 -1.1641  0.1935
13733TIP3   OH262689   0.502   3.714   6.241 -0.4364  0.1505  0.8609
13733TIP3    H162690   0.555   3.788   6.212  0.9911 -0.7719  1.0335
13733TIP3    H262691   0.439   3.701   6.170  0.2435  0.6110  0.1564
13734TIP3   OH262692   1.128   4.027  47.739 -0.0917 -0.0642 -0.3527
13734TIP3    H162693   1.080   4.105  47.711  1.1539  0.3367 -1.4592
13734TIP3    H262694   1.156   4.048  47.828  0.3938  0.8634 -0.6991
13735TIP3   OH262695   1.145   2.757  30.889  0.4569  0.1256  0.3031
13735TIP3    H162696   1.192   2.680  30.920 -0.0379 -0.0222  0.7055
13735TIP3    H262697   1.211   2.827  30.889  1.1767 -0.5194 -1.1024
13736TIP3   OH262698   3.819   3.898   8.538 -0.0889 -0.0933  0.0744
13736TIP3    H162699   3.746   3.899   8.476  0.1569 -0.6952 -0.2367
13736TIP3    H262700   3.825   3.988   8.570 -0.2563  0.2168 -0.7363
13737TIP3   OH262701   3.130   2.073  10.865 -0.0542  0.1031 -0.1332
13737TIP3    H162702   3.042   2.107  10.882 -0.5988 -1.4563  0.4166
13737TIP3    H262703   3.185   2.111  10.933 -0.2687  1.1854 -0.5506
13738TIP3   OH262704   3.291   1.002   4.687 -0.6350 -0.4728  0.2771
13738TIP3    H162705   3.269   0.926   4.632 -2.1723  0.5468 -0.6224
13738TIP3    H262706   3.318   1.069   4.624  0.7231 -0.2624  1.0640
13739TIP3   OH262707   1.098   1.080  34.410 -0.0413  0.1297 -0.4594
13739TIP3    H162708   1.003   1.070  34.417  0.0307 -2.1478 -1.6994
13739TIP3    H262709   1.133   1.035  34.487  0.0639 -0.1620 -0.6757
13740TIP3   OH262710   0.838   2.491  35.798  0.0080  0.1671 -0.0766
13740TIP3    H162711   0.808   2.517  35.711 -1.2650  1.8571  0.7984
13740TIP3    H262712   0.774   2.427  35.828  0.4715 -0.4489 -0.3810
13741TIP3   OH262713   2.857   0.135  12.888  0.5571 -0.4020  0.4271
13741TIP3    H162714   2.918   0.076  12.932 -0.3338 -1.2273  0.5938
13741TIP3    H262715   2.771   0.101  12.911  0.0443  0.2218 -0.5145
13742TIP3   OH262716   0.792   2.224  32.804 -0.5500  1.0303  0.1187
13742TIP3    H162717   0.730   2.248  32.735  0.5502  2.1535 -0.5282
13742TIP3    H262718   0.740   2.223  32.884 -2.1057 -1.3721 -0.7973
13743TIP3   OH262719   2.443   2.310  14.671 -0.3876  0.6719 -0.1083
13743TIP3    H162720   2.415   2.218  14.677 -0.5156  0.5855 -1.5612
13743TIP3    H262721   2.381   2.349  14.609  0.9910  1.1761 -1.2117
13744TIP3   OH262722   1.890   2.278  14.458  0.4365 -0.2552  0.1993
13744TIP3    H162723   1.900   2.370  14.483 -1.1456  0.1254 -0.4146
13744TIP3    H262724   1.797   2.259  14.476  0.3562 -1.2738 -1.1367
13745TIP3   OH262725   1.183   1.677  12.985  1.1542  0.2110 -0.1588
13745TIP3    H162726   1.145   1.592  12.961  0.7478  0.3534 -0.0313
13745TIP3    H262727   1.205   1.717  12.901 -0.9165  1.0056 -0.3843
13746TIP3   OH262728   1.166   0.847  32.676  0.1107 -0.1819 -0.3198
13746TIP3    H162729   1.184   0.809  32.590 -1.1487  0.4824 -0.9072
13746TIP3    H262730   1.109   0.922  32.658 -1.9947 -1.3098  1.2512
13747TIP3   OH262731   3.139   0.865  46.862 -0.4477 -0.0914 -0.0879
13747TIP3    H162732   3.074   0.795  46.856 -0.0972 -0.5487  1.0805
13747TIP3    H262733   3.129   0.915  46.781  0.6767 -2.6778 -1.9208
13748TIP3   OH262734   0.846   2.366  17.130 -0.4335 -0.4896  0.0357
13748TIP3    H162735   0.754   2.361  17.154 -0.2715  1.6942  1.3288
13748TIP3    H262736   0.849   2.422  17.052 -0.0165  2.4353  1.9973
13749TIP3   OH262737   1.670   1.792  37.647  0.1302 -0.1548 -0.0059
13749TIP3    H162738   1.712   1.718  37.691  0.6639  0.5083  0.6187
13749TIP3    H262739   1.587   1.804  37.694  0.8617  0.7843  1.1006
13750TIP3   OH262740   0.190   2.224  36.454 -0.3775  0.1873  0.1268
13750TIP3    H162741   0.125   2.209  36.385  0.4722  0.5748 -0.7736
13750TIP3    H262742   0.242   2.298  36.423  2.1134 -1.6624 -0.3890
13751TIP3   OH262743   1.564   1.008  45.974  0.0983  0.0981  0.5371
13751TIP3    H162744   1.580   1.098  45.947  2.7317 -0.0462  1.3645
13751TIP3    H262745   1.617   0.955  45.915 -0.1029 -0.7929  1.1347
13752TIP3   OH262746   2.122   2.448  12.356  0.1425 -0.3992  0.5579
13752TIP3    H162747   2.166   2.497  12.425  1.5011 -3.6977  2.2342
13752TIP3    H262748   2.055   2.397  12.401 -0.8994 -0.4993 -1.0232
13753TIP3   OH262749   3.342   3.551  33.926  0.5385 -0.1110 -0.1319
13753TIP3    H162750   3.373   3.461  33.923  0.7483 -0.1611  2.1170
13753TIP3    H262751   3.417   3.601  33.960  0.2182  0.8176 -0.7567
13754TIP3   OH262752   3.278   3.954  41.095  0.0315 -0.0090 -0.3973
13754TIP3    H162753   3.361   3.993  41.068  0.8482 -0.5037  1.2650
13754TIP3    H262754   3.287   3.941  41.190 -1.7342 -0.5750 -0.2676
13755TIP3   OH262755   3.663   0.650  14.947 -0.6641 -0.1994  0.9218
13755TIP3    H162756   3.734   0.633  14.885 -0.6142  1.7324  0.3645
13755TIP3    H262757   3.584   0.622  14.901 -0.9537  3.3976 -1.2503
13756TIP3   OH262758   3.708   4.047   5.237  0.0713  0.4652 -0.2922
13756TIP3    H162759   3.672   4.092   5.313  0.2514 -0.2509  0.2302
13756TIP3    H262760   3.682   4.101   5.162 -1.3905  0.3967  0.1363
13757TIP3   OH262761   3.750   2.051  36.066  0.0392 -0.1779 -0.5693
13757TIP3    H162762   3.757   1.960  36.095  2.3594 -0.2982 -1.2626
13757TIP3    H262763   3.696   2.094  36.133  1.1538 -1.4841  1.2752
13758TIP3   OH262764   0.791   2.127   1.606  0.2663 -0.0097  0.0143
13758TIP3    H162765   0.762   2.152   1.518 -0.0296  0.5529  0.2668
13758TIP3    H262766   0.786   2.208   1.656  1.7870 -0.0122  0.2002
13759TIP3   OH262767   1.777   3.356   9.049  0.1920 -0.5358  0.7852
13759TIP3    H162768   1.761   3.396   9.134  0.3981 -0.2691  0.6988
13759TIP3    H262769   1.800   3.266   9.070 -1.0881 -0.8575  0.9325
13760TIP3   OH262770   1.891   0.780  12.056 -0.2551  0.3580 -0.0286
13760TIP3    H162771   1.923   0.749  11.971 -0.2853 -1.9782  0.7378
13760TIP3    H262772   1.850   0.703  12.096 -3.4066  2.1996  0.6918
13761TIP3   OH262773   0.754   0.776   6.885  0.6491 -0.3059  0.1053
13761TIP3    H162774   0.694   0.732   6.946 -2.0173  0.2020 -1.9731
13761TIP3    H262775   0.780   0.707   6.824 -1.1096  0.2461 -1.3501
13762TIP3   OH262776   0.784   2.264  13.331  0.1537  0.3337  0.4940
13762TIP3    H162777   0.746   2.351  13.314  0.4383  0.3278 -0.2361
13762TIP3    H262778   0.864   2.282  13.381  1.1515  0.6607 -1.1355
13763TIP3   OH262779   2.177   0.772  16.263  0.5060  0.2594  0.0303
13763TIP3    H162780   2.085   0.794  16.279  0.7562  1.6782 -0.3455
13763TIP3    H262781   2.213   0.757  16.350  0.5851  2.6123  0.4663
13764TIP3   OH262782   3.650   1.171  39.470 -0.4691  0.0602 -0.2474
13764TIP3    H162783   3.694   1.143  39.390  1.2255  0.8161  0.3697
13764TIP3    H262784   3.641   1.091  39.521 -0.0625 -0.1603 -0.5138
13765TIP3   OH262785   2.882   2.572   2.551 -0.2820 -0.4070 -0.0253
13765TIP3    H162786   2.791   2.600   2.563 -0.0154  0.5701 -0.1836
13765TIP3    H262787   2.912   2.622   2.475  0.0189 -1.6693 -0.7841
13766TIP3   OH262788   0.699   3.573   5.001  0.0695  0.0719  0.2419
13766TIP3    H162789   0.769   3.542   5.059  1.1439  0.4461 -0.8175
13766TIP3    H262790   0.740   3.641   4.948 -1.2474  0.6512 -0.0718
13767TIP3   OH262791   1.364   1.241  31.916 -0.1821 -0.1563  0.1713
13767TIP3    H162792   1.299   1.213  31.851  0.7437  1.2711 -1.4622
13767TIP3    H262793   1.318   1.234  32.000 -1.7181 -1.2342 -0.7024
13768TIP3   OH262794   1.957   2.879  10.853 -0.3632  0.7732  0.1028
13768TIP3    H162795   1.899   2.951  10.879 -2.2369 -1.1586  1.7131
13768TIP3    H262796   2.040   2.921  10.833 -0.8844  3.2544  2.4461
13769TIP3   OH262797   1.379   1.385  33.110 -0.0403  0.3776  0.0446
13769TIP3    H162798   1.365   1.324  33.183 -2.8988 -1.6146 -1.9655
13769TIP3    H262799   1.429   1.334  33.046 -2.3954  0.0070 -1.6389
13770TIP3   OH262800   3.117   2.845  44.788 -0.3203  0.3387 -0.4487
13770TIP3    H162801   3.198   2.895  44.795 -1.5225  2.4022 -0.5626
13770TIP3    H262802   3.068   2.887  44.718 -1.1717 -1.3974 -0.9620
13771TIP3   OH262803   2.747   2.916  13.408  0.1310 -0.4885 -1.0993
13771TIP3    H162804   2.668   2.902  13.460  0.7132  1.8693  0.5957
13771TIP3    H262805   2.774   2.828  13.381 -0.8144 -1.7851  1.7342
13772TIP3   OH262806   2.293   3.437  44.675  0.1950 -0.2382  0.6139
13772TIP3    H162807   2.329   3.482  44.752  1.7124 -0.2685 -0.0538
13772TIP3    H262808   2.237   3.368  44.712 -0.9085  1.1388  1.6545
13773TIP3   OH262809   2.530   1.792  16.625  0.2772 -0.1323  0.3174
13773TIP3    H162810   2.561   1.816  16.538 -0.3610 -0.7546 -0.0920
13773TIP3    H262811   2.562   1.862  16.682  0.5964  0.3446 -0.4312
13774TIP3   OH262812   0.057   2.259  32.742 -0.1360 -0.1898 -0.3215
13774TIP3    H162813   0.011   2.187  32.700 -1.2199 -0.5644  1.3981
13774TIP3    H262814   0.127   2.217  32.793 -0.5158 -0.0129  0.3607
13775TIP3   OH262815   1.839   1.216  13.174 -0.0737  0.1847 -0.0033
13775TIP3    H162816   1.929   1.182  13.177 -0.5123 -1.7627 -3.4780
13775TIP3    H262817   1.840   1.280  13.103 -0.8844  2.3316  1.8282
13776TIP3   OH262818   2.622   0.145   0.951 -0.3257 -0.1780  0.6810
13776TIP3    H162819   2.631   0.235   0.982  0.6207 -0.7369  2.1841
13776TIP3    H262820   2.655   0.092   1.024  0.2253 -1.6877 -0.6176
13777TIP3   OH262821   3.828   1.973   1.765 -0.6637 -0.3649 -0.4028
13777TIP3    H162822   3.835   2.009   1.676 -1.8348 -1.2973 -0.8820
13777TIP3    H262823   3.899   2.017   1.813 -0.2560  0.4463 -1.6839
13778TIP3   OH262824   2.348   3.559   5.590 -0.7355  0.4588 -0.3778
13778TIP3    H162825   2.387   3.616   5.524  0.9072  2.1398  1.9092
13778TIP3    H262826   2.392   3.475   5.578  0.6565  1.1730 -0.4808
13779TIP3   OH262827   3.066   2.950  39.690  0.1152 -0.1081  0.3048
13779TIP3    H162828   3.010   2.876  39.668  0.9940 -0.7906  0.3091
13779TIP3    H262829   3.104   2.928  39.775  2.2797 -0.8382 -0.7774
13780TIP3   OH262830   0.838   1.776   3.823  0.2919 -0.2573  0.1574
13780TIP3    H162831   0.866   1.712   3.888 -0.7578 -1.8206 -0.8521
13780TIP3    H262832   0.745   1.790   3.842  0.2763  0.2181 -0.2494
13781TIP3   OH262833   1.613   1.530  33.120  0.1973  0.2568 -0.0530
13781TIP3    H162834   1.605   1.620  33.086 -3.1015  0.4960  1.0093
13781TIP3    H262835   1.523   1.503  33.136  1.1399 -3.0961  0.2106
13782TIP3   OH262836   3.076   4.031   6.572 -0.2981 -0.2903  0.2955
13782TIP3    H162837   3.004   4.040   6.509  0.1971  1.2740 -0.0985
13782TIP3    H262838   3.155   4.032   6.519  0.0970  0.3584  0.8716
13783TIP3   OH262839   3.309   2.379  44.173 -0.0634  0.3164  0.1235
13783TIP3    H162840   3.327   2.470  44.196 -1.6688  1.0883 -1.4180
13783TIP3    H262841   3.254   2.385  44.095  1.9542 -2.0370 -1.6274
13784TIP3   OH262842   0.417   3.257   1.930 -0.1382  0.8505  0.4551
13784TIP3    H162843   0.494   3.212   1.897  0.2098  1.5730  0.2547
13784TIP3    H262844   0.423   3.248   2.025  0.6347  1.5892  0.4843
13785TIP3   OH262845   0.987   2.196   1.973 -0.2195 -0.1668 -0.0877
13785TIP3    H162846   0.986   2.101   1.989  0.7908 -0.3000 -0.7732
13785TIP3    H262847   1.059   2.228   2.027  0.5984 -0.0505 -1.2182
13786TIP3   OH262848   2.934   1.440  45.712  0.3916  0.0757 -0.2461
13786TIP3    H162849   2.905   1.378  45.645 -1.9055  0.3543  0.4220
13786TIP3    H262850   2.970   1.384  45.781 -0.7938 -0.5051 -0.0633
13787TIP3   OH262851   1.157   0.051  28.589  0.4232  0.4742  0.1606
13787TIP3    H162852   1.242   0.091  28.571 -0.1557  2.0582  0.7632
13787TIP3    H262853   1.170   0.005  28.672  1.3020 -1.2969 -0.9157
13788TIP3   OH262854   1.730   3.334  29.926 -0.3968 -0.4985 -0.4236
13788TIP3    H162855   1.698   3.259  29.977  0.3983  0.0371  0.9187
13788TIP3    H262856   1.825   3.329  29.934 -0.2460 -0.4555 -1.9795
13789TIP3   OH262857   3.304   2.484  42.641 -0.3476  0.0770  0.8580
13789TIP3    H162858   3.363   2.438  42.582 -1.8252 -1.3161  0.3992
13789TIP3    H262859   3.362   2.538  42.695  1.2864 -0.8877  0.1576
13790TIP3   OH262860   0.474   1.768  16.399  0.4435  0.1068  0.0037
13790TIP3    H162861   0.395   1.797  16.445 -0.9966 -1.1300 -1.5387
13790TIP3    H262862   0.546   1.800  16.453 -1.0931  1.1864  1.5494
13791TIP3   OH262863   3.287   1.519  19.363  0.3693  0.0324  0.4519
13791TIP3    H162864   3.339   1.459  19.309  1.6535 -1.4621  3.1491
13791TIP3    H262865   3.351   1.569  19.412 -0.7584  1.3499  0.6571
13792TIP3   OH262866   2.792   0.714   7.003 -0.0330 -0.0887 -0.5013
13792TIP3    H162867   2.769   0.647   7.067 -1.4133  2.0182  1.3456
13792TIP3    H262868   2.870   0.756   7.040 -0.0524  0.2952 -0.8967
13793TIP3   OH262869   1.250   3.068  31.313  0.8515 -0.2794 -0.1630
13793TIP3    H162870   1.246   2.987  31.262 -0.6604 -0.1942 -0.2431
13793TIP3    H262871   1.330   3.061  31.365  0.3750 -2.1567  0.3807
13794TIP3   OH262872   3.662   1.791  36.737  0.4310  0.0169  0.9756
13794TIP3    H162873   3.575   1.753  36.750  0.4306 -0.1769  0.4216
13794TIP3    H262874   3.651   1.852  36.665  0.4624  0.9938  1.7755
13795TIP3   OH262875   2.049   0.274  10.620 -0.4383 -0.0058  0.6777
13795TIP3    H162876   2.081   0.189  10.650  1.7716  0.7203  0.6104
13795TIP3    H262877   2.073   0.277  10.527 -2.1829 -0.0206  0.2014
13796TIP3   OH262878   2.981   2.767  37.778  0.0530 -0.1499  0.1588
13796TIP3    H162879   2.920   2.819  37.832 -0.4728  0.2425 -0.7874
13796TIP3    H262880   3.049   2.829  37.752  1.3709 -0.7843  1.9139
13797TIP3   OH262881   3.564   0.106  12.454 -0.3239  0.4158 -0.0318
13797TIP3    H162882   3.629   0.099  12.384 -0.4554 -0.1738 -0.0944
13797TIP3    H262883   3.564   0.199  12.476  0.5725  0.4132  0.0052
13798TIP3   OH262884   2.610   2.034  47.650  0.0506  0.4212  0.0287
13798TIP3    H162885   2.596   2.115  47.600 -2.2301  1.5314  2.2578
13798TIP3    H262886   2.548   1.972  47.612 -0.5783  0.7843  0.4438
13799TIP3   OH262887   1.822   1.716  33.387  0.1285 -0.2358  0.0611
13799TIP3    H162888   1.852   1.687  33.301 -0.1282  0.5290 -0.2983
13799TIP3    H262889   1.732   1.745  33.373 -0.4876 -1.6241  0.9331
13800TIP3   OH262890   3.727   1.539  41.604  0.7592 -0.1131  0.6317
13800TIP3    H162891   3.751   1.560  41.513  0.6324  0.1998  0.6662
13800TIP3    H262892   3.671   1.612  41.631 -0.8709 -1.1941  0.3042
13801TIP3   OH262893   3.146   2.697  42.780  0.6038  0.3826  0.2996
13801TIP3    H162894   3.139   2.791  42.765 -0.2023  0.3755  0.6176
13801TIP3    H262895   3.239   2.683  42.801  1.3248  0.7156 -2.3019
13802TIP3   OH262896   1.016   3.259  44.289 -0.0922 -0.3387 -0.7926
13802TIP3    H162897   1.033   3.264  44.383 -0.4313 -0.0655 -0.7440
13802TIP3    H262898   0.967   3.339  44.269 -1.4513 -1.1684 -0.8922
13803TIP3   OH262899   3.924   2.170  43.540  0.0657  0.1689  0.3360
13803TIP3    H162900   3.979   2.097  43.512 -1.4817 -0.7667 -0.3951
13803TIP3    H262901   3.976   2.248  43.523  1.5618 -0.7249  0.6702
13804TIP3   OH262902   0.122   0.997  47.738  0.7635  0.0608 -0.0429
13804TIP3    H162903   0.126   1.033  47.827  0.8615 -0.9787  0.3856
13804TIP3    H262904   0.086   1.069  47.685  0.3583  0.5764  0.8953
13805TIP3   OH262905   2.233   1.467   7.257 -0.1093 -0.6654 -0.3298
13805TIP3    H162906   2.250   1.438   7.167  0.4576 -2.6001  0.3385
13805TIP3    H262907   2.269   1.397   7.311 -0.8694  0.2302  1.4045
13806TIP3   OH262908   1.373   0.574  41.254 -0.3538 -0.3669  0.0081
13806TIP3    H162909   1.370   0.481  41.235 -0.0892 -0.3373 -0.1709
13806TIP3    H262910   1.451   0.586  41.309 -0.0550 -0.1598 -0.4593
13807TIP3   OH262911   3.805   3.979   0.000  0.7355  0.1908  0.1673
13807TIP3    H162912   3.835   4.059  -0.042  1.3704  0.0591  0.3700
13807TIP3    H262913   3.867   3.911  -0.028  1.4772  0.2012  1.6912
13808TIP3   OH262914   3.441   3.937   3.815  0.0840 -0.1168  0.1283
13808TIP3    H162915   3.403   4.019   3.784 -2.4660 -0.4394  2.0626
13808TIP3    H262916   3.381   3.907   3.884  1.6871 -2.8956  0.4735
13809TIP3   OH262917   3.098   1.500   2.891 -0.0456  0.2054  0.1302
13809TIP3    H162918   3.066   1.430   2.949 -1.8384 -0.0922 -1.1450
13809TIP3    H262919   3.190   1.510   2.915  0.0288 -1.9724  0.9725
13810TIP3   OH262920   2.128   1.617  46.102  0.0263  0.3448 -0.4125
13810TIP3    H162921   2.161   1.528  46.117 -1.8440 -0.3632 -0.2620
13810TIP3    H262922   2.106   1.650  46.190  1.6853  1.4012 -0.3479
13811TIP3   OH262923   0.278   2.305   2.199 -0.3933  0.2173  0.1096
13811TIP3    H162924   0.309   2.394   2.215  0.4985 -0.2812  1.3579
13811TIP3    H262925   0.316   2.254   2.270  1.1324 -1.6342 -1.9144
13812TIP3   OH262926   0.683   1.870  12.930 -0.4035  0.3231 -0.8720
13812TIP3    H162927   0.753   1.903  12.986 -0.8851  1.3538 -0.8543
13812TIP3    H262928   0.720   1.793  12.888  0.4730  0.4036 -0.2725
13813TIP3   OH262929   1.112   0.502  36.802  0.7397  0.3659  0.1074
13813TIP3    H162930   1.076   0.545  36.879 -0.2134 -0.5086  0.1625
13813TIP3    H262931   1.205   0.489  36.823  0.9360  1.8767  0.2986
13814TIP3   OH262932   1.307   0.475   4.123 -0.4319  0.2472  0.1667
13814TIP3    H162933   1.238   0.521   4.172 -0.6917  1.5174 -1.3298
13814TIP3    H262934   1.286   0.491   4.031  1.3373 -0.1536 -0.3426
13815TIP3   OH262935   2.800   1.358   8.630 -0.1396  0.0800 -0.4248
13815TIP3    H162936   2.734   1.427   8.620 -0.7992 -0.0472  2.3010
13815TIP3    H262937   2.750   1.280   8.655  0.8735 -0.4891 -0.1145
13816TIP3   OH262938   0.456   1.906  42.183 -0.2389 -0.0123  0.5603
13816TIP3    H162939   0.397   1.854  42.129 -1.2989 -0.2049  1.8461
13816TIP3    H262940   0.467   1.988  42.134 -0.6905 -0.4070 -0.2160
13817TIP3   OH262941   2.923   2.277  44.257  0.9249 -0.0160 -0.7784
13817TIP3    H162942   2.836   2.299  44.291  0.9938  0.3346 -0.8292
13817TIP3    H262943   2.979   2.349  44.285  0.9095  0.4637 -1.9380
13818TIP3   OH262944   1.514   3.260   4.409  0.9079 -0.2027 -0.2737
13818TIP3    H162945   1.516   3.347   4.448  0.0188  0.1982 -1.0556
13818TIP3    H262946   1.479   3.275   4.321 -0.5255 -1.4971  0.0257
13819TIP3   OH262947   2.937   3.017  14.660  0.2480  0.3046 -0.0090
13819TIP3    H162948   3.015   2.964  14.675 -0.0239 -0.3509 -0.8314
13819TIP3    H262949   2.949   3.054  14.573 -0.5755 -0.2120 -0.3575
13820TIP3   OH262950   0.889   1.384   1.134 -0.1895  0.0350 -0.0643
13820TIP3    H162951   0.854   1.340   1.212 -0.9355  0.0379 -0.3892
13820TIP3    H262952   0.851   1.472   1.137  0.5238  0.3409  0.0608
13821TIP3   OH262953   2.009   0.447   3.235 -0.3906 -0.7115  0.1179
13821TIP3    H162954   2.023   0.489   3.320 -0.9585 -1.8530  0.7969
13821TIP3    H262955   2.097   0.438   3.199 -0.2357  0.8500  0.0326
13822TIP3   OH262956   3.601   2.032  35.327  0.3056  0.3530  0.1715
13822TIP3    H162957   3.580   2.051  35.418 -0.0544 -0.0598  0.1787
13822TIP3    H262958   3.609   1.937  35.323 -0.6882  0.2740 -0.4212
13823TIP3   OH262959   3.769   0.052   9.426 -0.4284 -0.3851  0.6006
13823TIP3    H162960   3.826  -0.024   9.434 -0.8249 -0.8947 -0.9770
13823TIP3    H262961   3.681   0.016   9.418 -0.4712  0.0611 -1.9727
13824TIP3   OH262962   1.495   3.500  47.317 -0.1971 -0.6417  0.1152
13824TIP3    H162963   1.517   3.574  47.259 -1.2273  0.8757  1.5965
13824TIP3    H262964   1.576   3.483  47.364  0.5157 -1.5741 -1.3549
13825TIP3   OH262965   1.494   1.398   6.058  0.5814  0.6491  0.1710
13825TIP3    H162966   1.502   1.310   6.021  2.4484  0.6376  0.5149
13825TIP3    H262967   1.427   1.390   6.126 -1.4241  0.2164 -1.7820
13826TIP3   OH262968   1.620   1.672  39.819 -0.6293  0.5262  0.0450
13826TIP3    H162969   1.649   1.694  39.907 -0.4306 -0.8886  0.3568
13826TIP3    H262970   1.589   1.755  39.782  1.1824  1.5329  0.6980
13827TIP3   OH262971   3.571   3.932   7.188 -0.2199  0.0393  0.3945
13827TIP3    H162972   3.486   3.931   7.144  0.3471 -1.3416 -0.7560
13827TIP3    H262973   3.614   4.010   7.154 -0.5130  0.0087 -0.0617
13828TIP3   OH262974   1.413   1.698   1.581  0.0383  0.4581 -0.2372
13828TIP3    H162975   1.394   1.663   1.494  1.4108 -0.0516 -0.3682
13828TIP3    H262976   1.489   1.755   1.567  0.0769  0.6123  0.5669
13829TIP3   OH262977   2.695   3.913  47.648  0.0129 -0.0858 -0.0188
13829TIP3    H162978   2.635   3.974  47.606  0.2443  0.0899 -0.1008
13829TIP3    H262979   2.759   3.969  47.692  0.5037 -0.2619 -0.4953
13830TIP3   OH262980   0.190   3.413   6.725 -0.4283 -1.0476 -0.3441
13830TIP3    H162981   0.098   3.432   6.745 -0.0509 -0.7156  1.1370
13830TIP3    H262982   0.202   3.448   6.636 -1.7822 -1.3159 -0.6635
13831TIP3   OH262983   2.790   2.933  43.219  0.1211 -0.3525  0.0647
13831TIP3    H162984   2.832   2.864  43.167  1.2298  0.8905 -0.7651
13831TIP3    H262985   2.829   2.926  43.306 -1.6963 -2.4066  0.8271
13832TIP3   OH262986   2.317   2.784   8.513  0.4510 -0.2160 -0.2970
13832TIP3    H162987   2.308   2.736   8.595 -0.5403 -1.6859 -1.2169
13832TIP3    H262988   2.398   2.834   8.523  0.8851 -1.1531  1.1791
13833TIP3   OH262989   0.299   4.093  35.047  0.0633  0.0253  0.1675
13833TIP3    H162990   0.263   4.008  35.021  0.9174 -0.1191 -0.5808
13833TIP3    H262991   0.342   4.126  34.968 -0.9395  1.5255  0.2119
13834TIP3   OH262992   1.666   1.416   7.339  0.7242 -0.4033  0.2863
13834TIP3    H162993   1.646   1.489   7.399  0.6400 -0.2684  0.0943
13834TIP3    H262994   1.752   1.439   7.303  0.1953  0.1819 -0.6439
13835TIP3   OH262995   2.889   2.171  10.090 -0.3553 -0.7946 -0.1133
13835TIP3    H162996   2.897   2.106  10.020 -0.7573 -1.4473  0.4323
13835TIP3    H262997   2.824   2.134  10.149 -0.0261 -0.2474  0.6032
13836TIP3   OH262998   1.705   1.032  35.715 -0.7428 -0.4336 -0.0560
13836TIP3    H162999   1.627   1.054  35.765  0.3828  0.0018  1.5908
13836TIP3    H263000   1.754   1.114  35.709  0.0747 -0.9151 -0.1602
13837TIP3   OH263001   2.065   4.102  33.308 -0.4920  0.4548  0.4703
13837TIP3    H163002   1.981   4.133  33.343 -0.7451  0.4273 -0.0927
13837TIP3    H263003   2.068   4.138  33.219 -0.4344 -0.4846  0.0803
13838TIP3   OH263004   0.123   1.718  45.599 -0.1865 -0.1098 -0.2816
13838TIP3    H163005   0.198   1.680  45.555 -0.7503 -1.2982 -0.2677
13838TIP3    H263006   0.049   1.698  45.542 -1.1459 -2.8727  1.7113
13839TIP3   OH263007   0.582   0.053  11.023 -0.0193  0.3213 -0.0986
13839TIP3    H163008   0.569   0.147  11.039 -0.4371  0.3694 -0.6915
13839TIP3    H263009   0.495   0.021  10.998 -0.1315 -0.4514  1.1552
13840TIP3   OH263010   0.081   1.556   2.588 -0.1668  0.8341  0.1916
13840TIP3    H163011   0.149   1.490   2.570  1.8798  1.4570  4.3505
13840TIP3    H263012   0.129   1.639   2.592 -1.3433  1.4890  2.0375
13841TIP3   OH263013   1.598   3.265   8.199 -0.0231  0.0910  0.1304
13841TIP3    H163014   1.577   3.172   8.186 -0.7085  0.2292  0.1799
13841TIP3    H263015   1.690   3.272   8.177  0.0959 -0.6479  0.3476
13842TIP3   OH263016   1.505   3.140   3.966  0.7496  0.6792 -0.3391
13842TIP3    H163017   1.463   3.215   4.009 -0.2651  0.3097 -0.6698
13842TIP3    H263018   1.575   3.179   3.914  2.3552  1.1177  1.9726
13843TIP3   OH263019   1.028   1.275  43.929 -0.2020  0.2832  0.3016
13843TIP3    H163020   0.965   1.321  43.874 -1.8333  1.1073  2.7069
13843TIP3    H263021   1.024   1.184  43.899 -0.4275  0.8341 -1.4190
13844TIP3   OH263022   1.225   1.036  34.961 -0.1270  0.4463  0.3111
13844TIP3    H163023   1.291   1.040  35.030  0.0653  0.7205  0.1153
13844TIP3    H263024   1.190   0.947  34.966 -0.1555  0.4831  0.8000
13845TIP3   OH263025   3.237   1.799  11.236 -0.2527  0.4429  0.5115
13845TIP3    H163026   3.177   1.874  11.228 -0.3588  0.4652  1.3723
13845TIP3    H263027   3.189   1.737  11.290 -0.1172 -0.2097 -0.1074
13846TIP3   OH263028   2.418   1.029  43.283 -0.0499  0.0249  0.4104
13846TIP3    H163029   2.443   1.081  43.207  0.8539  0.4499  0.9718
13846TIP3    H263030   2.381   0.949  43.246  1.5971 -0.3728 -0.5271
13847TIP3   OH263031   0.114   1.442   7.846 -0.4629  0.1574  0.4806
13847TIP3    H163032   0.065   1.520   7.871  0.3037  1.1207 -0.8843
13847TIP3    H263033   0.194   1.446   7.898 -0.6891 -0.0408  0.8447
13848TIP3   OH263034   1.191   3.433   7.377 -0.2008 -0.3949 -0.0739
13848TIP3    H163035   1.247   3.491   7.430  0.1709  0.7368 -1.6420
13848TIP3    H263036   1.155   3.371   7.440  0.5378  0.6524  1.4429
13849TIP3   OH263037   4.017   0.871   0.556  0.9030 -0.5872  0.0970
13849TIP3    H163038   4.100   0.838   0.591  0.8181 -0.3816  0.5010
13849TIP3    H263039   3.979   0.922   0.628  0.7504 -0.1103 -0.3132
13850TIP3   OH263040   1.892   2.762   7.243  0.1439  0.3992 -0.5804
13850TIP3    H163041   1.829   2.729   7.179 -0.2384  0.4052 -0.2078
13850TIP3    H263042   1.918   2.848   7.209 -0.1562  0.4587 -0.6593
13851TIP3   OH263043   0.644   2.185   3.246  0.3130 -0.1528  0.3056
13851TIP3    H163044   0.570   2.241   3.269  0.6631  1.5160 -2.2670
13851TIP3    H263045   0.721   2.230   3.280  0.4336 -0.0419 -0.1062
13852TIP3   OH263046   2.630   1.670  16.061  0.1618  0.8001  0.2499
13852TIP3    H163047   2.562   1.664  16.128  1.6131 -0.6362  1.6872
13852TIP3    H263048   2.636   1.582  16.024  0.3388  1.2421 -0.8412
13853TIP3   OH263049   0.333   1.419  18.014 -0.2926  0.1568  0.1515
13853TIP3    H163050   0.338   1.392  18.106 -0.9827 -2.4261 -0.4852
13853TIP3    H263051   0.425   1.424  17.987 -0.0852  0.7645  0.9249
13854TIP3   OH263052   0.733   2.757  11.128  0.2359 -0.6295 -0.0268
13854TIP3    H163053   0.720   2.800  11.044  0.1901 -0.7762 -0.0941
13854TIP3    H263054   0.829   2.753  11.138  0.2411 -0.4283  0.0246
13855TIP3   OH263055   3.340   2.101  11.347 -0.5623 -0.0992 -0.6327
13855TIP3    H163056   3.408   2.034  11.337 -0.8705 -0.4711 -0.3002
13855TIP3    H263057   3.370   2.153  11.422  0.4972  1.1574 -1.8728
13856TIP3   OH263058   3.518   3.986   2.578 -0.3473  0.1763 -0.2096
13856TIP3    H163059   3.569   4.048   2.526  0.6132 -1.6961 -1.5837
13856TIP3    H263060   3.428   3.997   2.547 -0.2314  1.0416 -0.2600
13857TIP3   OH263061   2.538   2.571   4.456  0.1662 -0.2698  0.6394
13857TIP3    H163062   2.609   2.547   4.515  1.2704  1.6962  0.1835
13857TIP3    H263063   2.581   2.592   4.374 -0.9617  0.6570  0.2588
13858TIP3   OH263064   2.416   3.288   5.515  0.2636 -0.1650  0.0674
13858TIP3    H163065   2.478   3.217   5.537 -0.1381 -0.2318  1.0277
13858TIP3    H263066   2.333   3.243   5.500 -0.0373  0.1095  0.8673
13859TIP3   OH263067   2.933   1.777  42.018  0.0686  0.1571 -0.1298
13859TIP3    H163068   2.982   1.768  41.935 -0.5591 -0.9182 -0.4049
13859TIP3    H263069   2.868   1.707  42.015 -0.2950  0.4228  1.0628
13860TIP3   OH263070   3.874   3.877   6.261 -0.1324 -0.8223  0.4172
13860TIP3    H163071   3.950   3.928   6.234 -1.2091  0.9704  0.6131
13860TIP3    H263072   3.835   3.847   6.179  0.0768 -0.6619  0.2575
13861TIP3   OH263073   0.516   2.853  10.454  0.0732 -0.3589 -0.0943
13861TIP3    H163074   0.469   2.788  10.402 -0.3162 -0.7070  0.6822
13861TIP3    H263075   0.488   2.837  10.544  1.5785 -0.4861  0.3793
13862TIP3   OH263076   2.842   0.031  45.335  0.0971  0.2967 -0.0758
13862TIP3    H163077   2.832   0.017  45.429  2.1889 -0.1278  0.1410
13862TIP3    H263078   2.796   0.113  45.318 -0.9236  0.0082  1.1649
13863TIP3   OH263079   1.090   0.659   8.234  0.0295  0.3352 -0.2586
13863TIP3    H163080   1.130   0.634   8.150  0.2541 -2.3068  0.5584
13863TIP3    H263081   1.159   0.705   8.281  0.5112  0.1620 -0.7892
13864TIP3   OH263082   3.750   2.383  31.947 -0.1842  0.0658 -0.3530
13864TIP3    H163083   3.729   2.476  31.957  1.6990  0.4998 -0.1512
13864TIP3    H263084   3.748   2.349  32.037  2.2180  0.6599 -0.0126
13865TIP3   OH263085   3.410   1.676  11.769 -0.6011  0.1836 -0.1141
13865TIP3    H163086   3.447   1.673  11.857 -0.2520 -2.1986 -0.2608
13865TIP3    H263087   3.480   1.642  11.712 -1.9684 -1.7511 -0.7677
13866TIP3   OH263088   0.347   3.046  41.485  0.3905 -0.3773  0.2256
13866TIP3    H163089   0.288   3.099  41.539  1.6657  0.7028  0.6135
13866TIP3    H263090   0.380   2.979  41.546  0.2870 -0.4144  0.2448
13867TIP3   OH263091   4.009   2.203  15.201  0.0173 -0.1083  0.1029
13867TIP3    H163092   3.967   2.117  15.193  0.8743 -0.5431  0.1300
13867TIP3    H263093   4.065   2.195  15.278 -1.3084  1.1007  1.2606
13868TIP3   OH263094   1.921   1.755   6.699  0.6681 -0.9000  0.0903
13868TIP3    H163095   1.957   1.716   6.619  2.6111 -0.3845  0.6758
13868TIP3    H263096   1.990   1.813   6.731 -0.8906  0.5417  1.0170
13869TIP3   OH263097   3.749   2.792   5.048  0.0140 -0.4351 -0.8025
13869TIP3    H163098   3.754   2.703   5.083 -1.6307 -0.7271 -1.2293
13869TIP3    H263099   3.724   2.846   5.123  1.0096 -0.3142 -0.5436
13870TIP3   OH263100   3.816   3.246   7.006  0.3452  0.7225  0.4973
13870TIP3    H163101   3.891   3.306   7.005  0.2052  0.9104  0.9367
13870TIP3    H263102   3.743   3.299   6.974  0.4066  0.5233  0.0146
13871TIP3   OH263103   2.402   1.612  16.820  0.5531  0.2186 -0.3356
13871TIP3    H163104   2.460   1.543  16.853  0.0130 -0.1886 -0.2272
13871TIP3    H263105   2.453   1.657  16.752  0.8288 -0.4395 -0.5689
13872TIP3   OH263106   0.603   0.230  34.151 -0.0915  0.1135  0.1714
13872TIP3    H163107   0.590   0.135  34.152 -0.7337  0.1977  0.4000
13872TIP3    H263108   0.698   0.242  34.156  0.0014 -0.5164 -0.0084
13873TIP3   OH263109   3.727   1.117   1.488  0.4219  0.4161  0.1394
13873TIP3    H163110   3.681   1.041   1.522 -1.2218  1.5526  0.6153
13873TIP3    H263111   3.767   1.158   1.566  3.1215 -1.0205 -0.3635
13874TIP3   OH263112   2.884   0.319  37.441  0.0072 -0.3823 -0.6939
13874TIP3    H163113   2.972   0.294  37.413 -0.3039 -0.2640 -1.8418
13874TIP3    H263114   2.868   0.404  37.399 -0.1028  0.3249  0.7091
13875TIP3   OH263115   2.891   2.036  32.466 -0.0988 -0.6609 -0.0221
13875TIP3    H163116   2.935   2.055  32.383  0.6051  0.1079  0.5030
13875TIP3    H263117   2.838   2.114  32.483 -0.0606 -0.7172  0.3599
13876TIP3   OH263118   3.663   0.501   4.337 -0.1614  0.5332 -0.0683
13876TIP3    H163119   3.740   0.535   4.382 -0.1608  0.3723  0.0508
13876TIP3    H263120   3.589   0.527   4.392 -0.0856 -0.5247  0.5419
13877TIP3   OH263121   1.353   3.382  27.887  0.0447 -0.4450 -0.2307
13877TIP3    H163122   1.330   3.371  27.795  0.0045  2.1267 -0.6133
13877TIP3    H263123   1.448   3.381  27.888  0.0431 -0.6229 -0.2916
13878TIP3   OH263124   0.232   1.894  14.417 -0.5559 -0.1878 -0.2665
13878TIP3    H163125   0.147   1.862  14.445  0.3215 -3.3492 -0.8734
13878TIP3    H263126   0.239   1.868  14.325  1.1022 -0.1323 -0.1946
13879TIP3   OH263127   2.163   2.570  42.891  0.7759  0.3517  0.5400
13879TIP3    H163128   2.123   2.514  42.957  1.0513 -1.0489 -0.4527
13879TIP3    H263129   2.110   2.650  42.892 -1.8823 -1.2842 -0.5088
13880TIP3   OH263130   0.049   0.586  43.420 -0.4649 -0.0827  0.4615
13880TIP3    H163131  -0.024   0.643  43.443 -0.5943  0.0181 -0.1839
13880TIP3    H263132   0.125   0.645  43.416 -0.4537 -0.0900  0.5717
13881TIP3   OH263133   2.393   1.744  46.756 -0.7143 -0.3306 -0.2063
13881TIP3    H163134   2.322   1.769  46.696 -0.0681 -1.3950 -1.4861
13881TIP3    H263135   2.404   1.820  46.813 -1.7618  0.5061 -1.0606
13882TIP3   OH263136   1.501   0.479  32.059 -0.3753  0.5416 -0.2891
13882TIP3    H163137   1.479   0.396  32.017 -0.9752  1.0079 -0.9208
13882TIP3    H263138   1.426   0.498  32.116 -0.3137  0.7296 -0.2681
13883TIP3   OH263139   0.511   0.509  13.853  0.0752 -0.4302 -0.2091
13883TIP3    H163140   0.458   0.481  13.927  0.3075  1.2547  0.6246
13883TIP3    H263141   0.568   0.577  13.888 -0.1827  0.7985 -2.0261
13884TIP3   OH263142   2.945   0.156   7.192  0.3886 -0.5364  0.0130
13884TIP3    H163143   2.855   0.132   7.214 -0.6707  1.7186 -1.4958
13884TIP3    H263144   2.978   0.198   7.271 -0.1518 -0.6798  0.3198
13885TIP3   OH263145   4.034   0.280  35.483  0.1409 -0.2043  0.3892
13885TIP3    H163146   4.005   0.331  35.407  1.1946 -0.8628 -0.4783
13885TIP3    H263147   3.953   0.261  35.531 -0.7701 -1.1855 -1.4458
13886TIP3   OH263148   4.002   3.618  41.745 -0.0118  0.2545  0.0344
13886TIP3    H163149   3.991   3.574  41.661 -0.2152  0.4233 -0.0266
13886TIP3    H263150   4.006   3.711  41.723 -0.9909  0.3667  0.3025
13887TIP3   OH263151   2.956   2.505   9.478  0.0607  0.2047 -0.5123
13887TIP3    H163152   3.028   2.443   9.476 -1.1090 -1.2334 -0.4166
13887TIP3    H263153   2.982   2.575   9.418  1.0776 -0.7918 -1.2783
13888TIP3   OH263154   2.367   3.186   4.021  0.2332  0.2201  0.5865
13888TIP3    H163155   2.376   3.134   4.100 -0.0386 -0.3760  0.2286
13888TIP3    H263156   2.404   3.272   4.044 -2.1975  0.9357  2.1943
13889TIP3   OH263157   0.729   0.281  36.635 -0.2088 -0.5962 -0.0691
13889TIP3    H163158   0.644   0.238  36.645 -0.3289  0.0955  2.8950
13889TIP3    H263159   0.789   0.229  36.689  0.8622 -0.0255 -0.6661
13890TIP3   OH263160   2.606   2.042   6.942  0.7702 -0.1154 -0.0826
13890TIP3    H163161   2.585   1.949   6.940 -0.3823  0.1323 -0.9709
13890TIP3    H263162   2.616   2.063   7.035  0.6240 -1.0333  0.1475
13891TIP3   OH263163   0.518   3.589   7.738 -0.5916 -0.9711  0.1112
13891TIP3    H163164   0.516   3.593   7.834  0.3606  0.8603  0.0850
13891TIP3    H263165   0.427   3.603   7.712 -0.5323  0.7003  0.7114
13892TIP3   OH263166   4.004   2.800  40.489  0.0772  0.6645  0.3190
13892TIP3    H163167   3.929   2.745  40.468 -0.8440  0.9634  2.5744
13892TIP3    H263168   3.997   2.874  40.429 -1.2859  0.5638  0.3303
13893TIP3   OH263169   2.405   3.190   7.909  0.3542  0.4406 -0.0816
13893TIP3    H163170   2.337   3.221   7.970 -0.6460 -1.6463 -0.0451
13893TIP3    H263171   2.471   3.150   7.965 -0.0737 -0.5796 -0.2929
13894TIP3   OH263172   3.274   4.002  47.067  0.1210  0.2010  0.1035
13894TIP3    H163173   3.190   4.036  47.099  0.7705  1.1626  0.8387
13894TIP3    H263174   3.256   3.910  47.046 -0.9672  0.2270  0.8364
13895TIP3   OH263175   3.091   3.265  37.687  0.1016 -0.6396 -0.4546
13895TIP3    H163176   3.038   3.318  37.746 -0.4814 -0.8441 -0.7906
13895TIP3    H263177   3.134   3.329  37.629 -1.2846 -0.5463 -1.4370
13896TIP3   OH263178   0.635   1.170  12.413 -0.1615  0.1930 -0.5567
13896TIP3    H163179   0.676   1.134  12.492 -2.4297 -0.6795  0.3262
13896TIP3    H263180   0.629   1.095  12.354  0.7781  0.6546 -1.2597
13897TIP3   OH263181   1.447   3.029   1.909 -0.5188 -0.0965  0.1380
13897TIP3    H163182   1.383   3.094   1.939 -0.2122  0.4311 -0.3358
13897TIP3    H263183   1.405   2.945   1.926 -0.8519  0.2147  0.9131
13898TIP3   OH263184   3.183   1.499  32.733  0.6606  0.5196 -0.1711
13898TIP3    H163185   3.185   1.524  32.826 -1.7171 -0.5040  0.2145
13898TIP3    H263186   3.132   1.569  32.691 -0.1858 -0.1589 -0.2877
13899TIP3   OH263187   2.044   3.408  25.939  0.2869 -0.2018  0.0086
13899TIP3    H163188   2.072   3.325  25.901 -1.0785 -0.4055 -0.6080
13899TIP3    H263189   2.075   3.404  26.030  1.5643 -0.7105 -0.4246
13900TIP3   OH263190   0.095   0.896  33.276 -0.2807 -0.5800  0.0243
13900TIP3    H163191   0.010   0.938  33.259 -0.4077 -1.2161 -1.0541
13900TIP3    H263192   0.077   0.802  33.268  0.1122 -0.8375  1.8226
13901TIP3   OH263193   1.428   3.235  47.511 -0.6509  0.4540 -0.1333
13901TIP3    H163194   1.439   3.271  47.423  1.3068 -0.7513 -0.4359
13901TIP3    H263195   1.480   3.155  47.511 -1.4183 -0.1063  1.8332
13902TIP3   OH263196   2.051   1.523  37.677 -0.9697  0.2456 -0.3128
13902TIP3    H163197   2.112   1.592  37.652 -0.5929  0.2304  0.5580
13902TIP3    H263198   2.030   1.541  37.769 -0.0868 -1.3638  0.2355
13903TIP3   OH263199   3.991   0.866  35.113  0.5262  0.4780  0.1605
13903TIP3    H163200   3.967   0.871  35.020  0.7739  1.1804  0.1302
13903TIP3    H263201   4.079   0.827  35.114 -0.9897 -3.4399  0.3485
13904TIP3   OH263202   0.982   0.296  12.563  0.2259 -0.3913  0.5788
13904TIP3    H163203   0.922   0.222  12.571 -0.3863  0.0246 -0.0581
13904TIP3    H263204   0.978   0.321  12.470 -0.2044  0.9462  0.9249
13905TIP3   OH263205   1.226   1.114   8.116 -0.0928 -0.3269  0.4096
13905TIP3    H163206   1.169   1.072   8.051  0.4978  0.4858 -0.6594
13905TIP3    H263207   1.263   1.189   8.071  1.1426 -0.3292  1.3658
13906TIP3   OH263208   0.324   1.439   9.432  0.4897 -0.2380 -0.0908
13906TIP3    H163209   0.237   1.479   9.438 -0.9615 -2.9555 -1.1170
13906TIP3    H263210   0.329   1.380   9.507  1.7508  0.3531  0.3114
13907TIP3   OH263211   0.951   3.963  37.249 -0.6708  0.3337  0.1349
13907TIP3    H163212   1.025   3.930  37.198 -0.0895  1.1493  0.4359
13907TIP3    H263213   0.990   4.024  37.312 -1.5553  0.5058  0.5310
13908TIP3   OH263214   3.457   2.112  44.938  0.3959 -0.0485 -0.0417
13908TIP3    H163215   3.538   2.117  44.887 -0.4651 -0.1656 -1.4873
13908TIP3    H263216   3.438   2.203  44.962  1.1020 -0.0540  0.5566
13909TIP3   OH263217   3.698   0.559   7.379 -0.4835 -0.1249  0.2596
13909TIP3    H163218   3.655   0.620   7.439  1.7878  1.6373  0.2182
13909TIP3    H263219   3.776   0.530   7.425 -0.6483 -1.7468 -0.4061
13910TIP3   OH263220   1.613   0.710  41.088  0.0429 -0.6125 -0.6973
13910TIP3    H163221   1.573   0.795  41.068  1.5385  0.0670 -0.9235
13910TIP3    H263222   1.560   0.647  41.040 -2.5662 -0.1358  1.3440
13911TIP3   OH263223   3.036   4.069  34.086 -0.1667  0.1161 -0.2591
13911TIP3    H163224   3.067   3.983  34.058  1.0845 -0.6937  3.1942
13911TIP3    H263225   3.018   4.115  34.004  1.3982 -2.5771 -2.2968
13912TIP3   OH263226   0.272   2.629   7.188  0.0270 -0.1800 -0.2257
13912TIP3    H163227   0.223   2.688   7.130 -2.1689  0.0846  1.7437
13912TIP3    H263228   0.299   2.557   7.131  2.0722  2.2089 -2.5196
13913TIP3   OH263229   4.005   1.924  32.945  0.2369 -0.0530  0.1521
13913TIP3    H163230   3.945   1.865  32.991 -0.1717  1.3666  1.5048
13913TIP3    H263231   4.020   1.880  32.861 -1.1555 -1.3978  0.5425
13914TIP3   OH263232   0.563   2.866  41.914  0.1543  0.2344  0.0145
13914TIP3    H163233   0.584   2.951  41.954  0.5958 -0.7315  1.9586
13914TIP3    H263234   0.505   2.823  41.977  0.8954 -1.3832 -0.3511
13915TIP3   OH263235   3.465   0.874  38.296  0.0541  0.1799 -0.4515
13915TIP3    H163236   3.530   0.937  38.327 -0.2394  1.4584 -2.2760
13915TIP3    H263237   3.511   0.822  38.231 -0.0817 -0.6043  0.0712
13916TIP3   OH263238   1.728   2.739  45.514  0.8978 -0.8253 -0.2710
13916TIP3    H163239   1.757   2.674  45.577 -0.6586  1.1967  2.8000
13916TIP3    H263240   1.632   2.731  45.515  0.6982  1.1766 -0.1055
13917TIP3   OH263241   1.339   2.459  44.427  0.2677  0.0787  0.3634
13917TIP3    H163242   1.327   2.518  44.501 -1.6050  0.9349 -0.5711
13917TIP3    H263243   1.285   2.496  44.357  1.4544 -1.0584 -1.2424
13918TIP3   OH263244   1.299   2.135  19.817 -0.6013  0.1172  0.3308
13918TIP3    H163245   1.378   2.178  19.786  1.0542 -1.7328  1.7430
13918TIP3    H263246   1.288   2.166  19.907 -1.6871  0.5944  0.0510
13919TIP3   OH263247   0.613   2.473  10.989  0.1061  0.4457 -0.0801
13919TIP3    H163248   0.571   2.556  11.015  0.3100  0.3436  0.6073
13919TIP3    H263249   0.629   2.483  10.896 -1.1696  0.6182 -0.3093
13920TIP3   OH263250   0.028   1.683   1.290 -0.2232 -0.3965 -0.6328
13920TIP3    H163251   0.122   1.669   1.296 -0.6685 -4.0697  1.3535
13920TIP3    H263252   0.007   1.738   1.365  0.2873 -0.0434 -0.7485
13921TIP3   OH263253   1.285   3.438  10.115 -0.1237  0.3519  0.1886
13921TIP3    H163254   1.369   3.482  10.123  0.5748  0.3212 -4.3301
13921TIP3    H263255   1.230   3.498  10.064 -1.8650 -0.7973  0.5946
13922TIP3   OH263256   2.375   3.482   7.445  0.2869  0.1030  0.7096
13922TIP3    H163257   2.292   3.508   7.406  0.9636  0.7325 -0.3592
13922TIP3    H263258   2.406   3.410   7.390  0.4625 -0.1137  1.0874
13923TIP3   OH263259   1.236   1.081  15.814 -0.5420 -0.1631  0.5861
13923TIP3    H163260   1.143   1.069  15.835 -1.0926  2.5039 -0.0158
13923TIP3    H263261   1.236   1.133  15.734  1.5221 -1.4460 -0.3229
13924TIP3   OH263262   0.925   3.092   7.583 -0.0721 -0.2342 -0.4493
13924TIP3    H163263   0.930   2.999   7.601 -0.9613 -0.6608 -2.2483
13924TIP3    H263264   0.838   3.105   7.546  0.1007  1.2891 -0.3916
13925TIP3   OH263265   2.342   1.285  12.279 -0.6865 -0.2491  0.0747
13925TIP3    H163266   2.405   1.353  12.254 -0.8565  0.2275  0.9128
13925TIP3    H263267   2.298   1.320  12.357 -4.3559  0.9878 -2.2795
13926TIP3   OH263268   0.949   0.874  38.954 -0.2983 -0.1128 -0.1406
13926TIP3    H163269   0.908   0.946  39.002 -1.2617 -0.7818  0.0564
13926TIP3    H263270   0.885   0.850  38.887 -0.1198 -0.9851 -0.0100
13927TIP3   OH263271   1.339   1.450  42.131  0.2560 -0.0613 -0.0402
13927TIP3    H163272   1.317   1.420  42.043 -1.3382  1.2445 -0.1270
13927TIP3    H263273   1.324   1.545  42.129 -1.7942 -0.2484  2.1761
13928TIP3   OH263274   2.539   0.293  39.767  0.2469  0.7290  0.2663
13928TIP3    H163275   2.560   0.386  39.759  0.0738  0.7024 -0.5862
13928TIP3    H263276   2.608   0.248  39.718  0.8989  0.3344  1.4971
13929TIP3   OH263277   0.344   2.671  39.409 -0.3969 -1.0912 -0.5134
13929TIP3    H163278   0.372   2.659  39.318  0.6167 -2.4202 -0.0453
13929TIP3    H263279   0.253   2.643  39.410 -0.2976 -1.4478 -1.0342
13930TIP3   OH263280   2.627   3.619  37.492 -0.2190  0.2595 -0.1665
13930TIP3    H163281   2.644   3.566  37.569 -0.4581 -0.8631 -0.8642
13930TIP3    H263282   2.649   3.709  37.519  2.8356 -0.4811  0.2494
13931TIP3   OH263283   3.848   1.782  12.020 -0.5174 -0.6299  0.1854
13931TIP3    H163284   3.861   1.805  12.112 -2.0397 -0.3206  0.3529
13931TIP3    H263285   3.932   1.804  11.978 -0.4298  1.1015  1.1430
13932TIP3   OH263286   0.226   1.635  47.441 -0.1841  0.2560  0.1969
13932TIP3    H163287   0.190   1.547  47.431  0.3175  0.2024 -1.3241
13932TIP3    H263288   0.173   1.690  47.384  0.0466  0.7853  0.4861
13933TIP3   OH263289   0.979   2.671  33.944 -0.0847  0.9069  0.0332
13933TIP3    H163290   0.918   2.672  34.018  1.1385  2.1071  1.0780
13933TIP3    H263291   1.066   2.674  33.984  0.7587 -1.3343 -1.3912
13934TIP3   OH263292   0.418   0.077  44.418  0.1853  0.1190 -0.1870
13934TIP3    H163293   0.431   0.084  44.323 -0.3637  3.0180 -0.1398
13934TIP3    H263294   0.376  -0.008  44.430 -0.1876 -0.1234 -2.5982
13935TIP3   OH263295   3.103   2.336   0.875 -0.1233 -0.4760  0.0664
13935TIP3    H163296   3.009   2.351   0.868  0.2107  1.6296 -0.5403
13935TIP3    H263297   3.124   2.360   0.966 -0.0195  0.1466 -0.1156
13936TIP3   OH263298   2.241   0.728  42.113 -0.1204  0.2138 -0.1563
13936TIP3    H163299   2.311   0.792  42.103 -0.8436  1.0888  0.2241
13936TIP3    H263300   2.286   0.645  42.129  0.8251  0.8702  0.6761
13937TIP3   OH263301   1.898   1.174  37.839  0.6908 -0.6876 -0.4509
13937TIP3    H163302   1.936   1.224  37.768  0.5740 -0.3089 -0.2495
13937TIP3    H263303   1.847   1.106  37.795  0.0467 -0.0295 -0.7410
13938TIP3   OH263304   1.565   0.993   2.559 -0.0942 -0.3358 -0.3618
13938TIP3    H163305   1.643   1.013   2.611 -1.3337  0.6622  1.2461
13938TIP3    H263306   1.592   1.005   2.468  2.1440 -1.9866  0.0083
13939TIP3   OH263307   2.020   1.817  41.669 -0.6899 -0.5576 -0.4772
13939TIP3    H163308   2.043   1.909  41.655 -0.1670 -0.6067  0.0143
13939TIP3    H263309   2.099   1.769  41.643 -0.0028 -0.7071  1.6180
13940TIP3   OH263310   1.078   3.387   3.161  0.0595  0.1917  0.2956
13940TIP3    H163311   1.151   3.448   3.164  1.6521 -1.6491  1.7679
13940TIP3    H263312   1.054   3.382   3.068 -1.0360  3.9059  0.2114
13941TIP3   OH263313   1.970   3.466  38.384 -0.3452 -0.1819 -0.2741
13941TIP3    H163314   1.988   3.517  38.306 -0.9550  1.9221  0.8735
13941TIP3    H263315   2.055   3.456  38.427 -0.0163 -1.3121 -1.1471
13942TIP3   OH263316   2.035   3.629  40.352 -0.5953 -0.4593  0.0015
13942TIP3    H163317   2.014   3.721  40.369 -0.8056 -0.3405 -0.8189
13942TIP3    H263318   2.035   3.588  40.438  1.3977  0.6716  0.6069
13943TIP3   OH263319   0.986   3.164  38.348  0.2522  0.5408  0.2499
13943TIP3    H163320   1.015   3.187  38.436 -1.0324 -0.5868  1.0131
13943TIP3    H263321   0.920   3.097  38.362  0.9490 -0.6111 -1.6519
13944TIP3   OH263322   2.751   0.070  42.336  0.7949 -0.3856  0.1680
13944TIP3    H163323   2.843   0.051  42.354  0.2496 -0.2115  3.6897
13944TIP3    H263324   2.715  -0.013  42.305  1.7818 -0.8662  0.2666
13945TIP3   OH263325   3.963   0.444  42.117  0.0327 -0.1486  0.3558
13945TIP3    H163326   4.000   0.529  42.141  0.2868 -0.3599  0.7154
13945TIP3    H263327   3.921   0.412  42.197 -0.5674 -0.1084  0.0685
13946TIP3   OH263328   1.665   1.597   2.300 -0.1552 -0.2392 -0.3466
13946TIP3    H163329   1.665   1.580   2.394  3.1788 -2.4591 -0.5835
13946TIP3    H263330   1.689   1.689   2.293 -0.4472 -0.0423  0.9507
13947TIP3   OH263331   2.368   2.314   3.195  0.0587  1.3334 -0.4956
13947TIP3    H163332   2.338   2.224   3.186  0.8521  1.0114 -0.0041
13947TIP3    H263333   2.325   2.345   3.275 -2.0276  2.1622 -1.8535
13948TIP3   OH263334   1.040   2.671  41.155  0.5405 -0.1520 -0.3540
13948TIP3    H163335   0.965   2.702  41.103 -0.2504 -2.4383 -0.6623
13948TIP3    H263336   1.048   2.735  41.225 -1.9681 -0.0321 -0.0928
13949TIP3   OH263337   1.401   0.955   2.802 -0.3853 -0.4683 -0.1048
13949TIP3    H163338   1.428   0.875   2.846 -0.5405 -0.1405  0.6095
13949TIP3    H263339   1.431   0.945   2.712  2.4060  0.0099  0.6913
13950TIP3   OH263340   4.010   3.271  25.728 -0.3058 -0.3520 -0.2936
13950TIP3    H163341   4.068   3.195  25.718  0.6662  0.1467  1.2707
13950TIP3    H263342   4.044   3.318  25.804 -2.5208  0.1953  0.4431
13951TIP3   OH263343   0.811   1.686  46.511 -0.2022 -0.1051  0.2971
13951TIP3    H163344   0.733   1.658  46.462  1.2702 -1.3707 -1.4891
13951TIP3    H263345   0.878   1.700  46.444  0.9826  1.5354  1.7202
13952TIP3   OH263346   0.470   2.546   4.187 -0.1838  0.3442  0.5645
13952TIP3    H163347   0.381   2.542   4.222 -0.1122  0.5052  0.7662
13952TIP3    H263348   0.458   2.541   4.092 -0.3037 -1.4284  0.6361
13953TIP3   OH263349   3.600   1.603   4.783 -0.1695 -0.7139 -0.1635
13953TIP3    H163350   3.648   1.657   4.719  0.5519  0.4199  1.2640
13953TIP3    H263351   3.646   1.618   4.865 -2.3071 -0.4634  1.0537
13954TIP3   OH263352   0.624   0.417   9.430  0.1231 -0.1448 -0.2067
13954TIP3    H163353   0.586   0.502   9.405 -1.2804 -0.2163  1.5300
13954TIP3    H263354   0.704   0.411   9.378 -0.9481  1.1631 -2.1457
13955TIP3   OH263355   0.617   2.875  13.262  0.2138  0.1469 -0.0026
13955TIP3    H163356   0.612   2.795  13.313  1.0833 -0.9716 -1.5933
13955TIP3    H263357   0.547   2.931  13.297  0.0341 -1.0207  1.5741
13956TIP3   OH263358   2.627   0.685  32.528  0.2079  0.8311 -0.5587
13956TIP3    H163359   2.543   0.675  32.485  0.1716 -1.1697 -0.1062
13956TIP3    H263360   2.605   0.704  32.620  0.2728  1.3536 -0.6457
13957TIP3   OH263361   0.475   0.621  14.696  0.4527  0.0183  0.5117
13957TIP3    H163362   0.554   0.596  14.745  0.5819 -0.9087 -0.1398
13957TIP3    H263363   0.509   0.664  14.618  0.3453 -0.8382 -0.0191
13958TIP3   OH263364   2.679   2.557  12.503  0.1406  0.4872 -0.3877
13958TIP3    H163365   2.754   2.511  12.541 -0.0779  0.4105 -0.0438
13958TIP3    H263366   2.705   2.574  12.413  1.1658  1.7672  0.1252
13959TIP3   OH263367   3.799   0.310  44.759  0.0811 -0.2782 -0.4323
13959TIP3    H163368   3.832   0.307  44.849 -0.3968  0.7115 -0.2109
13959TIP3    H263369   3.866   0.266  44.707  1.1895  0.6475  0.1654
13960TIP3   OH263370   3.599   3.089  40.980  0.4629  0.4635  0.4856
13960TIP3    H163371   3.620   3.006  41.021  2.3820  0.2302 -0.8589
13960TIP3    H263372   3.576   3.067  40.890  1.3901  1.4076 -0.0047
13961TIP3   OH263373   3.898   1.723   2.369  0.0564 -0.2487 -0.4003
13961TIP3    H163374   3.890   1.779   2.446  1.6484 -1.5365  0.7829
13961TIP3    H263375   3.814   1.679   2.361 -0.3451  0.4005  0.1731
13962TIP3   OH263376   1.252   0.948  44.309  0.0298 -1.2302 -0.0063
13962TIP3    H163377   1.202   0.925  44.231  1.1148 -0.7219 -0.8738
13962TIP3    H263378   1.236   0.875  44.369 -1.1790 -1.4093 -0.5074
13963TIP3   OH263379   0.292   2.373   1.088  0.2804 -0.3352 -0.7321
13963TIP3    H163380   0.315   2.408   1.002 -0.4883 -0.7180 -1.1029
13963TIP3    H263381   0.280   2.279   1.073  2.3428 -0.8170  0.2491
13964TIP3   OH263382   1.662   3.881   7.987  0.2676 -0.5481 -0.7244
13964TIP3    H163383   1.694   3.916   7.904  1.6628 -0.0578 -0.0122
13964TIP3    H263384   1.659   3.786   7.974  0.0084 -0.4415 -1.4813
13965TIP3   OH263385   0.065   2.021  12.019  0.3531  0.1713 -0.1789
13965TIP3    H163386   0.017   2.064  11.949 -1.5424 -0.7366  0.4984
13965TIP3    H263387   0.085   2.092  12.081 -1.3862  0.3677  0.1973
13966TIP3   OH263388   1.897   2.367   3.323 -0.2466 -0.5314  0.1662
13966TIP3    H163389   1.857   2.382   3.238 -0.6724 -0.8123  0.3168
13966TIP3    H263390   1.911   2.454   3.358  0.3930 -0.3952 -0.4016
13967TIP3   OH263391   3.804   2.409   4.447 -0.6519  0.2253 -0.3415
13967TIP3    H163392   3.778   2.441   4.360 -2.0383  1.0769  0.3524
13967TIP3    H263393   3.744   2.337   4.465  0.2972 -0.6176 -0.5021
13968TIP3   OH263394   3.294   0.788  32.803 -0.2769 -0.6730  0.0106
13968TIP3    H163395   3.349   0.736  32.744 -0.0852  0.3370 -0.7355
13968TIP3    H263396   3.354   0.848  32.846 -0.0631 -2.7480  2.8937
13969TIP3   OH263397   2.212   2.927  34.649 -0.1000  0.1256  0.0061
13969TIP3    H163398   2.226   2.833  34.658 -0.6200 -0.1478 -1.5987
13969TIP3    H263399   2.117   2.938  34.648 -0.0452  0.6969  0.4058
13970TIP3   OH263400   0.077   2.356   3.063 -0.0709  0.5417 -0.0126
13970TIP3    H163401   0.085   2.347   2.968 -0.7201  0.6519 -0.0857
13970TIP3    H263402   0.017   2.429   3.076  0.2405  0.7146  0.4886
13971TIP3   OH263403   1.946   3.724  39.025  0.3853 -0.6072 -0.3793
13971TIP3    H163404   1.920   3.670  38.950  1.3030 -0.5797 -0.7200
13971TIP3    H263405   1.884   3.797  39.023  0.7030 -0.3410 -1.4206
13972TIP3   OH263406   3.595   0.555  42.064  0.0329  0.1400 -0.4936
13972TIP3    H163407   3.601   0.469  42.106  2.0474  0.8440  0.8042
13972TIP3    H263408   3.550   0.610  42.128  0.2756  0.4562 -0.5919
13973TIP3   OH263409   3.192   1.150   9.912 -0.4472 -0.1472 -0.2337
13973TIP3    H163410   3.114   1.182   9.866 -0.9337  0.9642  1.2903
13973TIP3    H263411   3.163   1.068   9.953 -0.1971 -0.8017 -1.3259
13974TIP3   OH263412   1.546   2.597  20.181 -0.1691 -0.0533 -0.2843
13974TIP3    H163413   1.623   2.563  20.136  2.3476  1.2822  2.6717
13974TIP3    H263414   1.529   2.533  20.251 -0.4030  0.7307  0.3859
13975TIP3   OH263415   1.279   1.138  40.886 -0.5052  0.4258 -0.1426
13975TIP3    H163416   1.369   1.145  40.853 -0.0390 -0.6927  0.7886
13975TIP3    H263417   1.233   1.212  40.847  0.4614  0.2352 -1.7709
13976TIP3   OH263418   2.846   0.130   5.039  0.8247  0.0845 -0.1811
13976TIP3    H163419   2.789   0.206   5.050  0.5660 -0.1677  0.2071
13976TIP3    H263420   2.933   0.168   5.027  0.4420  0.5088 -1.8165
13977TIP3   OH263421   3.628   3.661  36.093 -0.8160  0.1925  0.1694
13977TIP3    H163422   3.664   3.734  36.042 -1.2398 -0.2937 -0.8592
13977TIP3    H263423   3.677   3.585  36.063 -1.6534 -0.2337 -0.1582
13978TIP3   OH263424   0.372   0.809  36.722  0.5791  0.6430 -0.8323
13978TIP3    H163425   0.403   0.763  36.800 -2.2335 -0.4711 -0.2361
13978TIP3    H263426   0.386   0.747  36.651 -0.3625  0.0864 -0.5462
13979TIP3   OH263427   1.691   0.010  44.742 -0.6302  0.3516  0.4875
13979TIP3    H163428   1.684   0.073  44.814 -0.4587  0.6355  0.2568
13979TIP3    H263429   1.605   0.010  44.701  0.0113  2.1989 -0.9717
13980TIP3   OH263430   1.865   2.261  42.544 -0.0055  0.5631  0.1975
13980TIP3    H163431   1.919   2.241  42.468 -1.3018  0.9054 -0.8594
13980TIP3    H263432   1.889   2.351  42.568  1.3708 -0.0092  1.0682
13981TIP3   OH263433   1.662   1.978  35.104 -0.2974  0.7980 -0.4915
13981TIP3    H163434   1.743   1.931  35.126  0.4074  2.2532  0.2065
13981TIP3    H263435   1.619   1.992  35.188 -0.6751  1.0585 -0.7245
13982TIP3   OH263436   2.043   2.040  10.015  0.2052 -0.8743 -0.2590
13982TIP3    H163437   2.098   2.004  10.084  2.3488 -1.5429 -2.1852
13982TIP3    H263438   2.011   1.964   9.967  1.1919 -0.4317 -1.7213
13983TIP3   OH263439   2.955   3.344   6.225 -0.1141  0.2746  0.2024
13983TIP3    H163440   2.940   3.393   6.144 -2.6216  0.0300  0.4525
13983TIP3    H263441   2.959   3.411   6.293  0.3530  0.3649  0.0919
13984TIP3   OH263442   2.109   3.715  35.050  0.2159  0.1333  0.0942
13984TIP3    H163443   2.027   3.668  35.034  0.3636 -0.2530  0.4451
13984TIP3    H263444   2.144   3.732  34.963 -0.2642  0.3542 -0.0633
13985TIP3   OH263445   3.770   2.765  47.557  0.5649 -0.0564  0.7597
13985TIP3    H163446   3.695   2.709  47.579  1.4062 -0.7735  1.8563
13985TIP3    H263447   3.845   2.723  47.598  2.0449 -0.7479 -2.3847
13986TIP3   OH263448   2.535   3.479  31.792  0.5065 -0.0111  0.5783
13986TIP3    H163449   2.553   3.486  31.886  1.0011 -0.6293  0.5397
13986TIP3    H263450   2.619   3.499  31.750  0.4821 -0.4699  0.3007
13987TIP3   OH263451   0.906   3.435  15.370  0.2133  0.3079  0.5611
13987TIP3    H163452   0.880   3.345  15.352  1.2825 -0.0377  0.7132
13987TIP3    H263453   0.841   3.466  15.433 -0.8693  0.0496 -0.3904
13988TIP3   OH263454   1.254   3.890   7.382  0.0601 -0.1190 -0.0597
13988TIP3    H163455   1.271   3.883   7.289  1.2015  1.9659 -0.0675
13988TIP3    H263456   1.336   3.923   7.420 -0.0733 -1.7333  1.8378
13989TIP3   OH263457   1.587   0.646  13.577  0.1333 -0.4519 -0.3153
13989TIP3    H163458   1.499   0.611  13.578 -0.8594  1.8549  0.0128
13989TIP3    H263459   1.590   0.702  13.500  1.0094  0.1710  0.1446
13990TIP3   OH263460   2.953   1.620  16.014 -0.4298 -0.5638 -0.8228
13990TIP3    H163461   2.893   1.694  16.010 -0.6357 -0.7442 -4.9989
13990TIP3    H263462   2.906   1.553  16.065 -1.5256  1.0386  0.3639
13991TIP3   OH263463   3.640   1.389   9.282 -0.2399  0.6578 -0.2485
13991TIP3    H163464   3.633   1.417   9.191 -3.2691  0.7977 -0.0764
13991TIP3    H263465   3.553   1.355   9.303  0.7105 -0.4537  2.2674
13992TIP3   OH263466   0.335   4.045  11.096 -0.0955  0.4104  0.0423
13992TIP3    H163467   0.371   4.022  11.182 -2.2081 -1.1908  0.5956
13992TIP3    H263468   0.254   4.092  11.116 -0.7211 -0.1639 -1.0657
13993TIP3   OH263469   1.468   3.764   1.625 -0.3781 -0.4565 -0.1418
13993TIP3    H163470   1.414   3.797   1.697 -1.0609 -0.5010 -0.6251
13993TIP3    H263471   1.550   3.738   1.667 -0.3611  0.5127  0.4621
13994TIP3   OH263472   1.525   1.709  40.511 -0.5261 -0.2333 -0.4999
13994TIP3    H163473   1.609   1.755  40.518  0.4464 -2.0909  0.9716
13994TIP3    H263474   1.537   1.647  40.440 -1.0004  0.1415 -0.9101
13995TIP3   OH263475   2.264   1.942   2.347 -0.0020  0.1201 -0.6276
13995TIP3    H163476   2.357   1.966   2.341  0.0552 -0.3759 -2.4623
13995TIP3    H263477   2.246   1.938   2.441  2.0128 -0.4097 -0.2093
13996TIP3   OH263478   1.623   0.032  14.006  0.4982 -0.3326  0.5173
13996TIP3    H163479   1.611  -0.058  14.038  0.5706 -0.1873  0.9509
13996TIP3    H263480   1.709   0.057  14.038 -0.6118  0.8826  2.7785
13997TIP3   OH263481   1.996   1.741   5.807  0.0854  0.4543 -0.5664
13997TIP3    H163482   2.007   1.672   5.742 -0.5746 -0.5686  0.3755
13997TIP3    H263483   2.074   1.735   5.862  0.1184  0.5851 -0.5989
13998TIP3   OH263484   1.468   1.529  44.115 -0.1213 -0.0740  0.1915
13998TIP3    H163485   1.513   1.449  44.140 -1.0900 -0.5066  0.6076
13998TIP3    H263486   1.381   1.500  44.088  0.1163  0.6438 -1.4740
13999TIP3   OH263487   4.033   3.920  47.074  0.5432  0.2799  0.4495
13999TIP3    H163488   4.057   3.967  46.994  0.9660 -1.4882 -0.5094
13999TIP3    H263489   4.112   3.924  47.128  0.7476  0.2516  0.1577
14000TIP3   OH263490   3.280   3.827  14.136  0.6951  0.1252  0.1496
14000TIP3    H163491   3.321   3.833  14.050  0.6807  2.1079  0.2369
14000TIP3    H263492   3.354   3.833  14.197  0.5856  0.0693  0.2876
14001TIP3   OH263493   1.989   0.164  38.047  0.1664  0.0118  0.5186
14001TIP3    H163494   1.974   0.152  37.953 -3.2165 -0.0697  0.9337
14001TIP3    H263495   2.078   0.198  38.054  0.1843  0.9226 -2.7884
14002TIP3   OH263496   2.865   0.700  37.573  0.1290  0.7459 -0.1815
14002TIP3    H163497   2.805   0.625  37.574 -0.8194  1.4820 -0.4318
14002TIP3    H263498   2.821   0.766  37.627  1.1084  1.0167  0.3026
14003TIP3   OH263499   3.330   2.405  34.413  0.3935 -0.4957  0.0426
14003TIP3    H163500   3.293   2.365  34.335  5.7275 -3.1881 -1.6177
14003TIP3    H263501   3.293   2.355  34.486 -0.4995 -1.8004 -1.2567
14004TIP3   OH263502   3.431   1.716  36.847 -0.0658 -0.1274 -0.0208
14004TIP3    H163503   3.367   1.659  36.890 -0.6377  2.0512  2.1945
14004TIP3    H263504   3.433   1.795  36.900  3.5421  0.4486 -0.7581
14005TIP3   OH263505   0.295   3.334  45.461 -0.3373  0.3472 -0.1653
14005TIP3    H163506   0.224   3.346  45.523  0.8374  0.9835  1.1217
14005TIP3    H263507   0.328   3.246  45.479 -1.0035 -0.0755 -0.9910
14006TIP3   OH263508   4.015   1.199  11.822 -0.8210  0.1310 -0.1437
14006TIP3    H163509   4.013   1.143  11.745 -2.0466  1.9626 -1.5114
14006TIP3    H263510   4.074   1.154  11.883  0.4809 -1.1770 -2.2700
14007TIP3   OH263511   0.827   1.292   4.293  0.1931  0.4577  0.3694
14007TIP3    H163512   0.914   1.253   4.287  1.0517  1.5041  3.7094
14007TIP3    H263513   0.779   1.256   4.218  2.3896 -2.9367  0.3718
14008TIP3   OH263514   2.094   3.953  31.145 -0.0281  0.5064 -0.4042
14008TIP3    H163515   2.141   3.909  31.215  0.2128 -0.0924 -0.9385
14008TIP3    H263516   2.161   4.005  31.099 -0.5604  2.7356  1.1769
14009TIP3   OH263517   0.357   2.079  15.356 -0.0883 -0.4662 -0.4768
14009TIP3    H163518   0.360   2.045  15.266 -0.5872  1.2957 -1.1999
14009TIP3    H263519   0.321   2.007  15.407 -0.1930 -1.3652 -1.7671
14010TIP3   OH263520   1.360   4.057  12.275 -0.0428 -0.4363 -0.7452
14010TIP3    H163521   1.372   4.091  12.363  2.3241 -0.1594 -1.1234
14010TIP3    H263522   1.448   4.046  12.240 -0.8346 -2.4316 -2.3853
14011TIP3   OH263523   3.835   2.735  10.722  0.4328  0.2222  0.1843
14011TIP3    H163524   3.794   2.649  10.715  2.7707 -0.8968 -0.7021
14011TIP3    H263525   3.793   2.787  10.654  0.2211 -0.7596 -0.4639
14012TIP3   OH263526   4.025   3.399  42.434 -0.2960 -0.4683 -0.0047
14012TIP3    H163527   4.053   3.391  42.525  1.4825  0.0304 -0.4668
14012TIP3    H263528   4.104   3.423  42.387 -1.4088  0.3653 -1.5317
14013TIP3   OH263529   1.003   1.386  11.756  0.2483 -0.6087 -0.3240
14013TIP3    H163530   1.082   1.439  11.744 -0.7986  1.0975 -0.0258
14013TIP3    H263531   0.945   1.412  11.685 -0.8986 -0.1720  0.7385
14014TIP3   OH263532   0.408   4.101  42.302  0.3548  0.2239  0.9732
14014TIP3    H163533   0.389   4.194  42.287 -1.2831  0.2348  2.6660
14014TIP3    H263534   0.369   4.083  42.388 -2.0672 -2.7446 -0.5531
14015TIP3   OH263535   0.612   1.952  43.437  0.1819  0.1434  0.1474
14015TIP3    H163536   0.589   1.937  43.528  3.3657  2.3370  1.4854
14015TIP3    H263537   0.664   1.876  43.412  2.0596  0.9853  1.3146
14016TIP3   OH263538   2.727   2.110  17.877  0.1608 -0.0426  0.4345
14016TIP3    H163539   2.790   2.116  17.949  1.4415 -1.8544 -0.4492
14016TIP3    H263540   2.718   2.200  17.846 -1.4609  1.0356  3.6190
14017TIP3   OH263541   3.282   4.096   0.379 -0.1850 -0.6064 -0.2837
14017TIP3    H163542   3.239   4.172   0.340 -0.1127 -0.9989 -1.1518
14017TIP3    H263543   3.211   4.048   0.420 -0.1075  0.3741  1.0548
14018TIP3   OH263544   1.548   0.400  45.537 -0.0414 -0.2595  0.4329
14018TIP3    H163545   1.550   0.323  45.595  1.0345  1.2943  2.6109
14018TIP3    H263546   1.640   0.414  45.513 -0.0776  0.9099  0.9126
14019TIP3   OH263547   0.443   0.462  34.646  0.0227 -0.3016  0.3985
14019TIP3    H163548   0.481   0.374  34.644  1.5097  0.3235 -0.9646
14019TIP3    H263549   0.348   0.446  34.646  0.2569 -1.9105  0.1272
14020TIP3   OH263550   4.063   0.915  10.790 -0.5305 -0.0659 -0.0317
14020TIP3    H163551   4.127   0.983  10.808 -0.1311 -0.8696  1.9250
14020TIP3    H263552   3.978   0.957  10.806 -0.7347  1.4112 -3.9988
14021TIP3   OH263553   0.736   2.379  14.636 -0.0546 -0.1328  0.2445
14021TIP3    H163554   0.715   2.350  14.548 -1.4464  1.5953 -0.0409
14021TIP3    H263555   0.822   2.421  14.628 -0.5584  0.7974 -0.5101
14022TIP3   OH263556   1.941   0.504  26.168  0.2840  0.6395 -0.1284
14022TIP3    H163557   2.017   0.523  26.113  0.3129  1.0472  0.0544
14022TIP3    H263558   1.976   0.457  26.243 -0.0019 -1.9041 -1.4682
14023TIP3   OH263559   2.719   4.014  14.951 -0.0271  0.0376 -0.0418
14023TIP3    H163560   2.735   4.102  14.917  1.0584 -0.7191 -1.5762
14023TIP3    H263561   2.804   3.985  14.983 -0.9474  0.6633  3.4010
14024TIP3   OH263562   3.046   1.714  19.615 -0.0923  0.3797 -0.8165
14024TIP3    H163563   3.106   1.640  19.602  1.1533  1.0087  1.0285
14024TIP3    H263564   2.962   1.672  19.634  1.0825 -0.7683  2.6607
14025TIP3   OH263565   1.391   0.009  10.971  0.0801  0.1420  0.0644
14025TIP3    H163566   1.395  -0.043  11.052  0.2401  0.7935  0.4810
14025TIP3    H263567   1.396  -0.056  10.901  1.5950 -0.3426  0.5736
14026TIP3   OH263568   2.688   2.142  44.393  0.0399 -0.3949  0.9702
14026TIP3    H163569   2.675   2.059  44.347 -1.4799 -0.3391  1.2620
14026TIP3    H263570   2.752   2.123  44.462  1.8445 -0.6430 -0.6732
14027TIP3   OH263571   2.343   0.086  44.481  0.1118  0.8030 -0.3794
14027TIP3    H163572   2.275   0.086  44.548 -0.4962  2.5185 -0.9355
14027TIP3    H263573   2.409   0.024  44.513 -1.3066 -0.2866  0.5714
14028TIP3   OH263574   0.315   2.275  10.655 -0.2575 -0.2535 -0.1038
14028TIP3    H163575   0.240   2.220  10.677  0.1157 -0.2534  1.2645
14028TIP3    H263576   0.314   2.345  10.721  0.9537 -0.2703 -0.0464
14029TIP3   OH263577   1.349   2.920   0.014  0.0624  0.1603 -0.3527
14029TIP3    H163578   1.420   2.884  -0.038 -0.5099 -0.9671 -0.3889
14029TIP3    H263579   1.389   2.946   0.097  0.6748  0.4096 -0.7248
14030TIP3   OH263580   2.276   3.247  33.885  0.8051  0.3406 -0.5362
14030TIP3    H163581   2.281   3.341  33.869  1.1244  0.5214  0.5175
14030TIP3    H263582   2.183   3.226  33.882  0.8040  0.4587 -1.9363
14031TIP3   OH263583   2.907   0.264   2.522 -0.1432  0.5900  0.3703
14031TIP3    H163584   2.952   0.207   2.585 -0.5957  1.2869  1.3594
14031TIP3    H263585   2.935   0.352   2.546 -0.0162  0.8494 -0.6763
14032TIP3   OH263586   1.846   1.970  35.467  0.3198  0.3440  0.4183
14032TIP3    H163587   1.929   1.956  35.512  0.1167  0.2932  0.7817
14032TIP3    H263588   1.862   2.044  35.409  1.0707 -0.6402 -0.6824
14033TIP3   OH263589   2.409   0.108  47.348 -0.1670  0.8274 -0.1555
14033TIP3    H163590   2.390   0.024  47.306  1.7903 -0.1325  0.7480
14033TIP3    H263591   2.395   0.092  47.442 -2.1223  2.2425 -0.1488
14034TIP3   OH263592   0.377   0.431  45.881  0.0405  0.1239 -0.3534
14034TIP3    H163593   0.344   0.520  45.889  0.0882  0.3541 -2.1398
14034TIP3    H263594   0.341   0.400  45.798  2.5850 -0.3324 -1.3791
14035TIP3   OH263595   0.451   3.276  39.275 -0.1483  0.1318 -0.5770
14035TIP3    H163596   0.508   3.325  39.216 -0.7616  1.5025 -0.0601
14035TIP3    H263597   0.440   3.190  39.232 -0.1401  0.8976 -2.1847
14036TIP3   OH263598   2.822   0.407   5.297 -0.0911 -0.2600  0.4121
14036TIP3    H163599   2.814   0.339   5.364  1.6030 -0.7585  0.1566
14036TIP3    H263600   2.910   0.443   5.310  0.6651 -1.0153 -2.0965
14037TIP3   OH263601   0.101   1.319   0.869  0.6541 -0.5556  0.4121
14037TIP3    H163602   0.149   1.402   0.863 -0.4507  0.0972  0.3493
14037TIP3    H263603   0.093   1.303   0.963 -1.3323  0.7518  0.5085
14038TIP3   OH263604   3.587   1.465  42.189  0.0955  0.4437 -0.0910
14038TIP3    H163605   3.577   1.377  42.226 -0.7420  0.4727 -0.2382
14038TIP3    H263606   3.607   1.520  42.264 -0.3518  0.2885  0.1491
14039TIP3   OH263607   3.944   0.357  11.487  0.4166  0.1565  0.3868
14039TIP3    H163608   4.031   0.395  11.496  1.4380 -0.8365 -3.3689
14039TIP3    H263609   3.959   0.273  11.443 -2.4205  0.2942 -1.0949
14040TIP3   OH263610   2.772   2.964  43.709  0.1557 -0.3180 -0.0892
14040TIP3    H163611   2.724   2.895  43.663 -2.9749 -0.4406  2.9367
14040TIP3    H263612   2.825   2.917  43.774  1.2682  0.0090 -0.7373
14041TIP3   OH263613   2.920   3.413   9.980 -0.0864 -0.1273  0.0107
14041TIP3    H163614   2.918   3.326  10.020 -0.4594 -0.5630 -0.9132
14041TIP3    H263615   2.916   3.395   9.885  0.4586  0.8766 -0.2079
14042TIP3   OH263616   0.550   1.274  13.492  0.6295 -0.3339 -0.8789
14042TIP3    H163617   0.543   1.199  13.551 -1.7906 -1.1965 -2.1258
14042TIP3    H263618   0.528   1.349  13.547 -0.4401 -0.9846 -0.3941
14043TIP3   OH263619   3.980   3.204  10.739  0.0362 -0.6336  0.1353
14043TIP3    H163620   4.051   3.155  10.699 -0.3625 -0.2306 -1.1089
14043TIP3    H263621   3.901   3.156  10.715 -0.2271 -0.3009  0.3199
14044TIP3   OH263622   0.697   2.478  40.266 -0.1225  0.0446 -0.0147
14044TIP3    H163623   0.748   2.549  40.307  0.3207  0.2471 -0.9061
14044TIP3    H263624   0.627   2.460  40.330  1.6815 -1.0165  1.7629
14045TIP3   OH263625   3.894   4.039  33.526 -0.3942  0.0281 -0.3726
14045TIP3    H163626   3.892   3.984  33.448  1.5105  0.8722 -1.0893
14045TIP3    H263627   3.975   4.014  33.571 -1.9338 -1.1760  1.9582
14046TIP3   OH263628   3.203   0.987  45.554  0.1151 -0.6578  0.0090
14046TIP3    H163629   3.211   0.981  45.459 -0.5805  0.4436 -0.1323
14046TIP3    H263630   3.290   0.963  45.586  0.5999 -0.2367 -0.9368
14047TIP3   OH263631   3.301   0.121  10.333  0.5159  0.3151  0.1430
14047TIP3    H163632   3.297   0.102  10.427  1.2521  0.1149  0.1418
14047TIP3    H263633   3.267   0.211  10.326  0.8042  0.4721  0.6490
14048TIP3   OH263634   2.437   1.630  34.045 -0.3224  0.2159 -0.7716
14048TIP3    H163635   2.424   1.723  34.063 -0.8638  0.3918 -1.9306
14048TIP3    H263636   2.359   1.588  34.080  0.9618 -0.1627  1.8916
14049TIP3   OH263637   3.044   2.949  47.546 -0.2020  0.1395  0.2318
14049TIP3    H163638   2.963   2.912  47.581 -0.1842  1.2979  1.5897
14049TIP3    H263639   3.018   3.031  47.505 -0.1569 -0.9997 -2.2527
14050TIP3   OH263640   0.942   3.236  39.008  0.6722  0.3220  0.0000
14050TIP3    H163641   0.987   3.314  39.041  1.0605  0.7290 -1.4299
14050TIP3    H263642   1.013   3.179  38.978  0.3256  0.8885 -2.1041
14051TIP3   OH263643   2.705   3.547  29.733  0.0179 -0.1514 -0.2297
14051TIP3    H163644   2.651   3.565  29.656 -1.0668 -1.0121  0.2991
14051TIP3    H263645   2.663   3.471  29.774  0.9995 -0.1529  0.8128
14052TIP3   OH263646   3.128   2.682  10.975  0.1578  0.3023 -0.3964
14052TIP3    H163647   3.213   2.727  10.977  0.6747 -0.6019 -0.8827
14052TIP3    H263648   3.127   2.639  10.889  0.6208 -2.3121  0.8159
14053TIP3   OH263649   0.588   2.660   4.410 -0.0370  0.0588  0.0473
14053TIP3    H163650   0.602   2.592   4.476  1.1283 -0.0823 -0.3301
14053TIP3    H263651   0.545   2.614   4.337 -0.1101 -0.0706  0.1705
14054TIP3   OH263652   1.751   0.867   9.903 -0.3764 -0.1252 -0.1128
14054TIP3    H163653   1.774   0.959   9.892  2.0461 -0.8441 -1.5987
14054TIP3    H263654   1.819   0.818   9.857 -1.3935 -2.7072  0.8990
14055TIP3   OH263655   1.422   0.520  12.351 -0.2345  0.2890  0.1302
14055TIP3    H163656   1.473   0.446  12.383  1.4316  0.7207 -1.3772
14055TIP3    H263657   1.484   0.573  12.302 -1.8384  1.6102 -0.5820
14056TIP3   OH263658   0.865   0.553  39.890  0.1517  0.2984  0.1030
14056TIP3    H163659   0.935   0.518  39.946  0.3622  0.1788 -0.2360
14056TIP3    H263660   0.880   0.647  39.888 -0.1777  0.3690  0.6906
14057TIP3   OH263661   2.407   1.693  10.247  0.7234 -0.3131 -0.1295
14057TIP3    H163662   2.375   1.697  10.337 -1.7216 -0.3079 -0.9292
14057TIP3    H263663   2.474   1.624  10.249  1.3786  0.3072  1.8319
14058TIP3   OH263664   1.838   3.488  34.544  0.4465  0.3670  0.8934
14058TIP3    H163665   1.825   3.577  34.511  0.8557  0.6411  1.4567
14058TIP3    H263666   1.931   3.484  34.567  0.5742 -0.4067  0.2966
14059TIP3   OH263667   2.397   3.745   0.054 -0.1093 -0.4689  0.5851
14059TIP3    H163668   2.367   3.823   0.101 -0.4462 -0.4262  0.3052
14059TIP3    H263669   2.447   3.779  -0.020  0.4868 -0.5379  0.9499
14060TIP3   OH263670   0.972   2.782  37.417  0.3781 -0.3951  0.7887
14060TIP3    H163671   0.925   2.830  37.485  2.3811  1.0448  1.2559
14060TIP3    H263672   0.945   2.824  37.335  0.4426  0.0767  1.0052
14061TIP3   OH263673   0.991   2.378  32.038  0.4079  0.0577  0.0391
14061TIP3    H163674   1.052   2.407  31.970  0.6473 -1.0487 -0.2477
14061TIP3    H263675   0.909   2.363  31.991 -0.1987  1.8411  0.4787
14062TIP3   OH263676   1.546   0.070   4.450  0.2541  0.2745 -0.1471
14062TIP3    H163677   1.601   0.136   4.410 -0.2051  0.8337  0.1224
14062TIP3    H263678   1.542  -0.001   4.386 -0.4577  1.1425 -1.1034
14063TIP3   OH263679   0.538   2.919   5.580  0.3368 -0.1208 -0.0666
14063TIP3    H163680   0.525   3.006   5.542  0.5405  0.5104  1.2670
14063TIP3    H263681   0.470   2.911   5.647  0.8237 -0.6634  0.3745
14064TIP3   OH263682   2.325   1.833  13.150  0.1309 -0.7799 -0.0444
14064TIP3    H163683   2.392   1.798  13.208  1.5674  0.2590 -1.0192
14064TIP3    H263684   2.350   1.804  13.062 -0.4630 -0.0503 -0.4761
14065TIP3   OH263685   0.444   0.293  39.784  0.3491 -0.4264  0.2672
14065TIP3    H163686   0.428   0.273  39.876  1.5280 -0.0137  0.5712
14065TIP3    H263687   0.502   0.223  39.754  0.4143 -0.2523 -0.0131
14066TIP3   OH263688   1.211   0.499  11.875  0.1571  0.5260 -0.1755
14066TIP3    H163689   1.214   0.483  11.781  0.1463 -0.8238  0.0227
14066TIP3    H263690   1.119   0.517  11.894 -0.5379 -2.5636  0.0009
14067TIP3   OH263691   1.847   0.127  34.748 -0.0345  0.2321 -0.2665
14067TIP3    H163692   1.877   0.065  34.814 -2.4383 -0.8995 -0.1454
14067TIP3    H263693   1.818   0.203  34.798  1.9067  1.1087 -0.3576
14068TIP3   OH263694   3.229   1.902   5.679 -0.0616 -0.3264 -0.2665
14068TIP3    H163695   3.142   1.936   5.699  0.6072  0.7678  0.9676
14068TIP3    H263696   3.281   1.980   5.659  1.2126 -0.6898  1.4116
14069TIP3   OH263697   1.597   1.302   2.540 -0.3038  0.5624 -0.3739
14069TIP3    H163698   1.549   1.231   2.497 -2.1984  1.3295  0.3771
14069TIP3    H263699   1.541   1.379   2.530  0.5003  1.3815  1.0377
14070TIP3   OH263700   3.901   4.040  10.105  0.3552 -0.0725 -0.2450
14070TIP3    H163701   3.977   4.032  10.048  0.8764 -0.1252  0.4566
14070TIP3    H263702   3.925   3.994  10.185 -0.5619 -0.4392 -0.1633
14071TIP3   OH263703   3.408   0.885   5.970 -0.5077 -0.5146  0.5182
14071TIP3    H163704   3.454   0.947   6.026 -0.4669  0.2782 -0.3732
14071TIP3    H263705   3.468   0.867   5.898 -1.0230 -0.5796  0.0918
14072TIP3   OH263706   1.083   1.152  10.965 -0.2385  0.0729  0.3463
14072TIP3    H163707   1.143   1.202  10.910 -0.7139  2.8197  2.1429
14072TIP3    H263708   1.140   1.104  11.025  0.2052 -1.2018 -1.0255
14073TIP3   OH263709   1.599   1.160  42.036  0.1517  0.0304  0.3375
14073TIP3    H163710   1.576   1.067  42.029  0.7174 -0.0734 -0.2195
14073TIP3    H263711   1.590   1.194  41.947 -2.4529  1.1173  0.9142
14074TIP3   OH263712   1.374   2.702   9.202  0.2228  0.0984 -0.4243
14074TIP3    H163713   1.375   2.741   9.115  0.8048  0.0260 -0.4573
14074TIP3    H263714   1.357   2.609   9.186  2.2956 -0.2919 -0.6445
14075TIP3   OH263715   0.842   1.605  11.085 -0.3509 -0.1667 -0.0414
14075TIP3    H163716   0.927   1.564  11.095 -1.3279 -2.4780 -0.5122
14075TIP3    H263717   0.839   1.634  10.994 -0.3518 -0.8629 -0.2717
14076TIP3   OH263718   0.849   0.713  32.595 -0.2625  0.2346 -0.4670
14076TIP3    H163719   0.811   0.753  32.517 -1.4210  0.1047  0.0159
14076TIP3    H263720   0.903   0.641  32.561 -1.5356 -0.4440 -1.1148
14077TIP3   OH263721   3.389   1.845  12.278 -0.3298 -0.0916  0.2381
14077TIP3    H163722   3.448   1.775  12.308 -0.5918 -2.1622 -3.4176
14077TIP3    H263723   3.338   1.804  12.208 -3.2714  2.7861  0.4760
14078TIP3   OH263724   1.865   0.400  41.038  0.4142 -0.4962  0.3989
14078TIP3    H163725   1.957   0.376  41.039  0.3435 -0.8537 -0.8868
14078TIP3    H263726   1.861   0.478  40.983  0.0329 -0.0672  1.0123
14079TIP3   OH263727   3.190   3.824  34.081 -0.1468  0.2137  0.4731
14079TIP3    H163728   3.171   3.745  34.130  0.3701 -0.1355  0.1183
14079TIP3    H263729   3.286   3.829  34.078 -0.1749  0.7352  0.3179
14080TIP3   OH263730   2.728   3.778  44.299 -0.0435 -0.1439  0.0406
14080TIP3    H163731   2.639   3.761  44.270  0.2368 -1.5257 -0.0935
14080TIP3    H263732   2.719   3.814  44.387 -0.8003  1.8612 -0.7847
14081TIP3   OH263733   0.347   3.801  30.608  0.1479 -0.2102  0.2077
14081TIP3    H163734   0.365   3.888  30.643  0.3947  0.7335 -2.0758
14081TIP3    H263735   0.367   3.808  30.514 -0.9342 -2.4008 -0.2617
14082TIP3   OH263736   2.310   3.941  30.691 -0.3603 -0.1257  0.3018
14082TIP3    H163737   2.328   3.850  30.714  0.3904 -0.1007 -0.1243
14082TIP3    H263738   2.357   3.954  30.608  1.3904  1.2525  1.4249
14083TIP3   OH263739   1.423   1.447   6.414 -0.0188  0.1988  0.0408
14083TIP3    H163740   1.363   1.385   6.372  1.1753 -0.1262 -1.2823
14083TIP3    H263741   1.413   1.528   6.363  0.4158  0.2483  0.0358
14084TIP3   OH263742   0.793   4.042  35.292  0.2281  0.2028  0.0976
14084TIP3    H163743   0.732   4.072  35.360 -0.6781 -0.1523 -0.5329
14084TIP3    H263744   0.846   4.118  35.272 -1.4313  1.1842 -0.8465
14085TIP3   OH263745   3.572   2.650   6.456  0.8295  0.3996 -0.0823
14085TIP3    H163746   3.591   2.559   6.434  1.3298  0.6761 -0.8120
14085TIP3    H263747   3.570   2.651   6.552 -0.0474 -0.5422 -0.0686
14086TIP3   OH263748   0.209   0.816  43.409 -0.1410 -0.6075 -0.0159
14086TIP3    H163749   0.266   0.872  43.461 -0.4675 -0.5962  0.3331
14086TIP3    H263750   0.124   0.823  43.451 -0.7439  0.4626 -1.3391
14087TIP3   OH263751   3.148   3.620  44.510 -0.1439  0.0012  0.1478
14087TIP3    H163752   3.200   3.573  44.575 -0.5919  0.7956  1.1103
14087TIP3    H263753   3.057   3.610  44.540 -0.2687  1.2796  0.2871
14088TIP3   OH263754   2.395   3.796  31.825 -0.3799 -0.3210  0.6046
14088TIP3    H163755   2.347   3.771  31.747 -0.9887  0.4787  0.7212
14088TIP3    H263756   2.462   3.857  31.794 -0.3507 -0.3304  0.6492
14089TIP3   OH263757   2.966   3.582   8.183  0.2104 -0.0703  0.5919
14089TIP3    H163758   3.028   3.656   8.181 -2.5211  2.4050 -0.5210
14089TIP3    H263759   2.935   3.579   8.273 -1.0712  1.5400  0.2563
14090TIP3   OH263760   2.097   3.360  42.198  0.3212  0.4734 -0.2574
14090TIP3    H163761   2.124   3.444  42.162 -0.0767  0.3015 -0.9939
14090TIP3    H263762   2.001   3.361  42.193  0.3174 -0.0729 -0.4146
14091TIP3   OH263763   0.177   2.460   8.661  0.2073  0.7122 -0.3788
14091TIP3    H163764   0.204   2.551   8.645  1.7891  0.3098 -0.1404
14091TIP3    H263765   0.251   2.420   8.706 -1.4265 -0.0706  1.7791
14092TIP3   OH263766   3.085   0.006  39.968  0.2060 -0.0391  0.1723
14092TIP3    H163767   3.094  -0.065  39.904  1.0857  0.2709 -0.0720
14092TIP3    H263768   3.038   0.075  39.922 -0.8024 -0.5205  0.4677
14093TIP3   OH263769   1.948   2.547  15.980 -0.4809  0.6630 -0.0524
14093TIP3    H163770   1.895   2.625  15.991 -1.6732 -0.3525  1.9044
14093TIP3    H263771   2.038   2.576  15.998 -0.7479  1.7949 -0.4920
14094TIP3   OH263772   1.786   1.147   9.908  0.4103  0.0132  0.3708
14094TIP3    H163773   1.868   1.147   9.958  0.3832 -1.4461  0.4619
14094TIP3    H263774   1.733   1.216   9.948 -0.2290 -2.0676  3.4764
14095TIP3   OH263775   2.041   2.526  12.854  0.0029 -0.2397 -0.1180
14095TIP3    H163776   2.027   2.552  12.763 -0.2883 -0.3976 -0.1189
14095TIP3    H263777   2.132   2.497  12.857  0.5693  1.4408  0.0405
14096TIP3   OH263778   3.765   3.033  35.623  0.0845  0.3944  0.1331
14096TIP3    H163779   3.828   2.998  35.685  0.3902 -0.9720 -0.8840
14096TIP3    H263780   3.739   3.118  35.659  4.4719  2.3435 -0.6919
14097TIP3   OH263781   3.205   3.120  44.144  0.0369  0.3118 -0.3400
14097TIP3    H163782   3.291   3.140  44.181  0.1933 -0.9817  0.0215
14097TIP3    H263783   3.144   3.131  44.217  0.2659 -1.5929  0.1796
14098TIP3   OH263784   3.454   3.926  33.716 -0.6267  0.2281 -0.1671
14098TIP3    H163785   3.377   3.939  33.661 -0.6973 -1.4888 -0.5267
14098TIP3    H263786   3.511   3.870  33.665  0.9101  1.4947  0.0922
14099TIP3   OH263787   0.699   3.343  33.866 -0.7127  0.3620  0.3228
14099TIP3    H163788   0.715   3.435  33.844  1.9601 -0.3513 -1.1309
14099TIP3    H263789   0.619   3.345  33.918 -0.1023  3.6189  1.3699
14100TIP3   OH263790   3.020   2.458   2.210  0.0964 -0.1746 -0.3064
14100TIP3    H163791   3.072   2.413   2.144  0.3312 -0.5101  0.1041
14100TIP3    H263792   3.077   2.464   2.286 -0.9522 -1.9394  0.6933
14101TIP3   OH263793   1.464   3.591  28.227  0.3044  0.2605  0.0584
14101TIP3    H163794   1.394   3.646  28.263  0.7187  1.0046 -0.2393
14101TIP3    H263795   1.543   3.621  28.273  0.7194  0.7220 -0.9294
14102TIP3   OH263796   3.762   1.766  32.529 -0.3458  0.1908 -0.2904
14102TIP3    H163797   3.834   1.825  32.508 -0.9299  0.3391 -2.0735
14102TIP3    H263798   3.784   1.731  32.615  0.2179  2.6502  0.6307
14103TIP3   OH263799   3.618   0.569  10.926 -0.4035  0.5120 -0.2263
14103TIP3    H163800   3.592   0.585  11.016 -0.4527  0.5205 -0.2422
14103TIP3    H263801   3.546   0.519  10.888  0.6514 -1.6093  0.4076
14104TIP3   OH263802   2.336   0.909  38.843  0.2127  0.3676 -0.3531
14104TIP3    H163803   2.389   0.968  38.897 -0.1018  1.5968 -1.3430
14104TIP3    H263804   2.246   0.940  38.855 -0.4315 -1.9284  1.6082
14105TIP3   OH263805   2.311   3.164  47.250  0.4594  0.0799  0.4359
14105TIP3    H163806   2.254   3.095  47.282  1.2141  0.4409  2.7153
14105TIP3    H263807   2.263   3.203  47.177  0.2986 -3.2210 -1.4270
14106TIP3   OH263808   1.503   1.839  36.042 -0.3485  0.1562  0.0314
14106TIP3    H163809   1.474   1.758  36.084 -0.2530  0.1470  0.0802
14106TIP3    H263810   1.525   1.813  35.952  2.0811 -0.4248  0.6993
14107TIP3   OH263811   2.676   0.439  31.373 -0.2308 -0.5288  0.1620
14107TIP3    H163812   2.733   0.410  31.301  1.0603  1.5644  0.2613
14107TIP3    H263813   2.616   0.501  31.332 -0.1577 -0.1086  0.6830
14108TIP3   OH263814   2.775   2.096   7.651  0.1271  0.8301  0.1255
14108TIP3    H163815   2.779   2.113   7.745 -0.2763 -2.8314  0.9635
14108TIP3    H263816   2.683   2.078   7.634  0.4072  0.0305 -0.6329
14109TIP3   OH263817   3.278   0.196  36.195  0.0404 -0.3561  0.4308
14109TIP3    H163818   3.322   0.139  36.132 -0.5168  1.2552 -1.4846
14109TIP3    H263819   3.343   0.261  36.219 -0.8168  1.3081 -1.4832
14110TIP3   OH263820   2.807   1.579   3.971  0.0344 -0.0447  0.4133
14110TIP3    H163821   2.834   1.491   3.998  0.8787  0.0462 -0.1052
14110TIP3    H263822   2.715   1.585   3.998 -0.7383 -1.9040 -1.5514
14111TIP3   OH263823   0.178   3.652  32.163  0.1074  0.6136 -0.2242
14111TIP3    H163824   0.088   3.620  32.162 -0.0381  1.0143 -0.1373
14111TIP3    H263825   0.211   3.628  32.250 -0.4159  1.8103  0.3299
14112TIP3   OH263826   1.286   3.958  41.032 -0.1479  0.4066  0.6407
14112TIP3    H163827   1.340   3.912  40.968 -2.2666  1.3632 -2.0868
14112TIP3    H263828   1.340   3.963  41.111  3.1853  0.2158 -1.4336
14113TIP3   OH263829   3.703   2.841  30.738  0.2136  0.6201 -0.4970
14113TIP3    H163830   3.643   2.766  30.749  0.7438 -0.1568 -2.4548
14113TIP3    H263831   3.645   2.914  30.716 -0.1795  0.3449 -0.3966
14114TIP3   OH263832   1.301   3.708  42.808  0.2541 -0.0355  0.6278
14114TIP3    H163833   1.291   3.802  42.790  1.7756  0.8624  3.7214
14114TIP3    H263834   1.212   3.675  42.812 -0.2896  0.8255 -2.1841
14115TIP3   OH263835   2.641   0.011  38.938 -0.3942 -0.4135  0.1000
14115TIP3    H163836   2.604  -0.077  38.931 -1.0696 -0.0119 -2.1311
14115TIP3    H263837   2.607   0.058  38.862  0.0839  1.7504  1.1333
14116TIP3   OH263838   1.672   3.250  43.973 -0.2972  0.3210  0.6459
14116TIP3    H163839   1.626   3.279  44.052 -0.8961  0.0292  0.4117
14116TIP3    H263840   1.644   3.311  43.905 -2.0391 -1.0756  0.0096
14117TIP3   OH263841   2.505   0.172  41.291  0.0592 -0.0969  0.1604
14117TIP3    H163842   2.424   0.158  41.339  0.6567 -3.3630  0.4410
14117TIP3    H263843   2.574   0.159  41.356  0.8492  0.7352 -0.4809
14118TIP3   OH263844   2.867   0.216   8.126 -0.6497 -0.0106  0.5616
14118TIP3    H163845   2.840   0.307   8.116 -2.4471 -0.2534  2.5065
14118TIP3    H263846   2.795   0.165   8.088 -1.0557 -0.6288  2.0971
14119TIP3   OH263847   1.311   2.905   8.302  0.0910 -0.0408  0.1127
14119TIP3    H163848   1.230   2.860   8.325 -1.3688  2.1909 -0.4424
14119TIP3    H263849   1.337   2.950   8.382 -0.0595  0.4694 -0.1224
14120TIP3   OH263850   2.204   0.893  34.249  0.2429 -1.0062 -0.2616
14120TIP3    H163851   2.123   0.899  34.299 -0.5057 -0.0948 -1.4937
14120TIP3    H263852   2.175   0.873  34.160  1.2858  0.1999 -0.9030
14121TIP3   OH263853   2.303   0.089   0.376 -0.0397 -0.5742 -0.2717
14121TIP3    H163854   2.347   0.041   0.446  1.2973  1.4336  0.3338
14121TIP3    H263855   2.360   0.077   0.299 -0.2123 -0.7297 -0.3776
14122TIP3   OH263856   0.253   1.241  15.036 -0.1195  0.0262  0.3229
14122TIP3    H163857   0.212   1.293  14.967  2.4458  2.1550  0.2506
14122TIP3    H263858   0.274   1.158  14.993  0.6905  1.0037 -1.2852
14123TIP3   OH263859   0.391   2.396   9.086 -0.3519 -0.7459  0.2483
14123TIP3    H163860   0.476   2.363   9.114 -0.8336 -1.6413  0.6845
14123TIP3    H263861   0.367   2.461   9.152  0.9674  1.1589 -1.0431
14124TIP3   OH263862   0.701   3.237   2.580 -1.2359 -0.2435 -0.4300
14124TIP3    H163863   0.698   3.149   2.616 -1.1683 -0.4942 -1.0324
14124TIP3    H263864   0.612   3.270   2.589 -1.3380 -0.4975 -0.5213
14125TIP3   OH263865   3.610   3.338  30.586  0.4953  0.3244 -0.0424
14125TIP3    H163866   3.549   3.394  30.538 -1.1127  0.8616  2.4115
14125TIP3    H263867   3.625   3.264  30.527 -1.8585  0.6013 -1.1422
14126TIP3   OH263868   3.828   1.173  42.123  0.1825  0.0086 -0.1758
14126TIP3    H163869   3.789   1.197  42.038  3.1329  1.1503 -1.3528
14126TIP3    H263870   3.778   1.224  42.187 -1.9568 -0.6780 -1.1980
14127TIP3   OH263871   3.973   1.637  20.989 -0.2585 -0.1359  0.1937
14127TIP3    H163872   3.896   1.611  21.041 -0.6024  0.5312  0.0255
14127TIP3    H263873   4.041   1.655  21.055 -0.1833 -0.9143  0.3344
14128TIP3   OH263874   1.544   3.520   5.538 -0.5879  0.3990 -0.2093
14128TIP3    H163875   1.624   3.497   5.490 -1.9530 -2.4148 -1.3377
14128TIP3    H263876   1.575   3.545   5.625  1.6240  1.0463 -1.1178
14129TIP3   OH263877   1.608   3.390   9.545  0.5071  0.5163  0.1554
14129TIP3    H163878   1.633   3.482   9.543 -0.7485  0.9808  2.6218
14129TIP3    H263879   1.545   3.383   9.617 -2.0283 -1.6641 -2.0616
14130TIP3   OH263880   3.432   3.373  32.251  0.0491 -0.2779 -0.0743
14130TIP3    H163881   3.486   3.399  32.176  0.1781  1.1275  0.4785
14130TIP3    H263882   3.492   3.324  32.308  1.0110  1.8653  0.8763
14131TIP3   OH263883   1.803   0.598  45.183 -0.4438 -0.2763  0.3119
14131TIP3    H163884   1.804   0.629  45.093  2.2075  0.5724  0.5461
14131TIP3    H263885   1.760   0.513  45.179 -0.5575 -0.1629 -1.7249
14132TIP3   OH263886   3.663   2.900  41.893 -0.0052  0.9261  0.0262
14132TIP3    H163887   3.638   2.934  41.978 -1.3843 -1.9844  0.8952
14132TIP3    H263888   3.757   2.884  41.900 -0.4548 -1.5048  1.9819
14133TIP3   OH263889   4.048   1.181  47.577  0.0691  0.3245  0.1559
14133TIP3    H163890   3.988   1.112  47.548 -0.5295  1.4802 -1.5201
14133TIP3    H263891   3.990   1.248  47.617  0.5215  0.3785  0.7383
14134TIP3   OH263892   2.812   3.936  26.121  0.9348 -0.2611 -0.0641
14134TIP3    H163893   2.735   3.993  26.126 -0.3447 -1.9673  0.3952
14134TIP3    H263894   2.881   3.993  26.085  0.0106  1.8339  1.2769
14135TIP3   OH263895   2.802   3.499  31.744  0.3114 -0.1924 -0.2927
14135TIP3    H163896   2.806   3.529  31.835 -0.2965 -1.3037  0.1280
14135TIP3    H263897   2.852   3.417  31.744  0.6618  0.0174 -1.0608
14136TIP3   OH263898   3.694   3.644  12.812  0.2848 -0.3539 -0.2347
14136TIP3    H163899   3.777   3.692  12.810  0.2376 -0.2764 -0.2829
14136TIP3    H263900   3.682   3.613  12.722 -1.8910  3.2437 -1.3617
14137TIP3   OH263901   2.547   3.221  31.874 -0.1587 -0.2570  0.3310
14137TIP3    H163902   2.550   3.309  31.836  1.2267 -1.3731 -2.4272
14137TIP3    H263903   2.465   3.219  31.923 -1.9663  1.5463 -2.3221
14138TIP3   OH263904   3.714   2.944  44.155 -0.0582  0.5658 -0.0538
14138TIP3    H163905   3.681   3.003  44.088 -1.5652  1.0625  1.0686
14138TIP3    H263906   3.778   2.889  44.110 -0.4370  1.4115 -1.6842
14139TIP3   OH263907   2.191   1.784  43.281 -0.4315  0.5344  0.1823
14139TIP3    H163908   2.124   1.783  43.214  1.5097  0.9991 -1.8987
14139TIP3    H263909   2.265   1.737  43.242  1.0686  1.5696  1.6264
14140TIP3   OH263910   3.284   0.715  11.252  0.5179  1.1639  0.0282
14140TIP3    H163911   3.222   0.664  11.304  1.6434  1.5656  1.8727
14140TIP3    H263912   3.345   0.751  11.317  2.6265  0.8570 -1.6894
14141TIP3   OH263913   0.688   2.471  47.002 -0.1581  0.5059  0.1948
14141TIP3    H163914   0.719   2.438  46.918  0.4810  0.3969  0.4716
14141TIP3    H263915   0.695   2.397  47.062 -1.0965  0.4343  0.2289
14142TIP3   OH263916   3.503   1.810   4.401  0.0566 -0.3337  0.5518
14142TIP3    H163917   3.590   1.773   4.418 -0.1798 -0.6781  1.0078
14142TIP3    H263918   3.442   1.746   4.437 -0.4225 -0.6137 -0.7031
14143TIP3   OH263919   3.704   3.679  34.673 -0.3993 -0.9602  0.6020
14143TIP3    H163920   3.673   3.770  34.673  1.8497 -0.1314  0.4636
14143TIP3    H263921   3.653   3.637  34.603 -2.3793 -0.1920  1.4888
14144TIP3   OH263922   1.974   2.845  42.207  0.1400  0.0451 -0.4950
14144TIP3    H163923   1.886   2.870  42.183 -0.2463 -1.1494 -0.3928
14144TIP3    H263924   2.026   2.925  42.196 -1.4820  1.6768  2.3766
14145TIP3   OH263925   2.133   0.485  11.893 -0.3960  0.2103  0.2947
14145TIP3    H163926   2.059   0.436  11.929 -0.6550  1.0164  0.9118
14145TIP3    H263927   2.180   0.516  11.970  1.1469 -1.0716 -0.0867
14146TIP3   OH263928   2.058   0.486  36.529  0.1467  0.0880  0.0022
14146TIP3    H163929   2.074   0.423  36.460 -0.1799  0.8606 -0.7966
14146TIP3    H263930   2.114   0.458  36.601 -1.3128 -2.1678  0.3554
14147TIP3   OH263931   0.215   0.859   5.897 -0.0203 -0.6642  0.0465
14147TIP3    H163932   0.144   0.922   5.911  0.1808 -0.5457  0.5727
14147TIP3    H263933   0.188   0.781   5.945 -0.0051 -0.7860 -0.1392
14148TIP3   OH263934   2.853   2.235  36.920 -0.2601 -0.4457 -0.4752
14148TIP3    H163935   2.845   2.326  36.890 -0.9839  0.4451  2.1283
14148TIP3    H263936   2.935   2.234  36.970 -1.7201 -0.2965  2.1172
14149TIP3   OH263937   0.746   1.680  39.486  0.0196 -0.8052  0.1450
14149TIP3    H163938   0.657   1.711  39.502  0.6075  0.6728  0.7472
14149TIP3    H263939   0.735   1.589  39.459 -1.5173 -1.3938  2.4584
14150TIP3   OH263940   3.211   2.231  47.259 -0.1675 -0.2716 -0.2608
14150TIP3    H163941   3.268   2.160  47.288  0.7697  0.5189 -0.0733
14150TIP3    H263942   3.241   2.251  47.170 -0.5740 -0.2590 -0.3945
14151TIP3   OH263943   0.230   1.544  22.017 -0.8201 -0.0753 -0.0895
14151TIP3    H163944   0.225   1.633  22.053 -1.4224  0.2209 -0.8798
14151TIP3    H263945   0.150   1.501  22.047 -0.5216 -0.3741  0.3064
14152TIP3   OH263946   3.024   3.837   8.463 -0.7931 -0.4387 -0.7137
14152TIP3    H163947   3.115   3.825   8.436  0.5600  1.8836  2.2310
14152TIP3    H263948   2.992   3.907   8.406  0.4198  1.0469  0.3507
14153TIP3   OH263949   3.257   1.894  31.312  0.0023  0.2086  0.1823
14153TIP3    H163950   3.211   1.931  31.387  0.4580  2.0413 -0.4109
14153TIP3    H263951   3.345   1.875  31.343 -0.4385 -1.1616  0.6863
14154TIP3   OH263952   1.415   1.775  37.786 -0.4081  0.0877  0.3627
14154TIP3    H163953   1.368   1.700  37.749  0.1339 -2.1869  3.7627
14154TIP3    H263954   1.348   1.840  37.803 -0.9925  0.2457 -2.1210
14155TIP3   OH263955   2.521   2.541  39.721 -0.0301  0.4994  0.4271
14155TIP3    H163956   2.435   2.582  39.724 -0.4035 -0.2781  0.8235
14155TIP3    H263957   2.553   2.559  39.633 -1.4140 -0.7687 -0.3919
14156TIP3   OH263958   1.931   0.175  15.710 -0.3632  0.6335  0.2228
14156TIP3    H163959   1.910   0.092  15.754  0.9630  1.0007  1.6312
14156TIP3    H263960   2.027   0.177  15.708 -0.3830  1.8932 -0.2670
14157TIP3   OH263961   2.071   4.006   8.286 -0.4406  0.4362 -0.3974
14157TIP3    H163962   2.153   3.969   8.317 -0.3175 -1.6359 -2.8438
14157TIP3    H263963   2.012   3.930   8.278 -1.9539  1.5790 -0.6180
14158TIP3   OH263964   0.202   2.682  44.146  0.0413 -0.4051 -0.5476
14158TIP3    H163965   0.233   2.679  44.055  0.4928 -1.6165 -0.3646
14158TIP3    H263966   0.106   2.684  44.138  0.0934  1.1195 -1.0637
14159TIP3   OH263967   2.724   2.244  15.076 -0.1422 -0.0454 -0.0072
14159TIP3    H163968   2.713   2.183  15.003  1.8833 -0.7118  0.1694
14159TIP3    H263969   2.650   2.226  15.134 -0.6785 -0.9238 -0.9309
14160TIP3   OH263970   3.588   3.430  11.177  0.5593  0.6517  0.2419
14160TIP3    H163971   3.529   3.427  11.252  1.0911  0.5745  0.6678
14160TIP3    H263972   3.613   3.522  11.170 -0.0276  0.7797 -0.2778
14161TIP3   OH263973   1.907   2.973  16.068  0.1914  0.7176  0.2824
14161TIP3    H163974   1.945   2.992  15.982 -2.4825  0.1047 -1.1444
14161TIP3    H263975   1.864   3.054  16.093  1.0437  0.9229  1.1322
14162TIP3   OH263976   2.172   1.626  42.602  0.1848 -0.5912  0.8075
14162TIP3    H163977   2.134   1.614  42.515  0.2021 -0.5923  0.7988
14162TIP3    H263978   2.122   1.698  42.640 -0.3976 -1.1518  1.1233
14163TIP3   OH263979   1.040   3.999   2.869  0.4085  0.5519 -0.4409
14163TIP3    H163980   0.950   4.013   2.839 -0.2052 -1.6161  0.2126
14163TIP3    H263981   1.037   4.017   2.963  0.2628 -0.9589 -0.1300
14164TIP3   OH263982   2.686   3.822  43.362  0.1298 -0.2448 -0.3322
14164TIP3    H163983   2.733   3.749  43.323 -0.2446 -0.2960 -0.6936
14164TIP3    H263984   2.636   3.861  43.290  0.2710  0.3258 -0.1343
14165TIP3   OH263985   0.362   3.547  37.882 -0.3996  0.1765 -0.6086
14165TIP3    H163986   0.286   3.593  37.918 -0.1155 -0.8087  1.3764
14165TIP3    H263987   0.431   3.560  37.948  0.7517 -0.0865 -1.7217
14166TIP3   OH263988   1.997   2.238  31.964  0.3311 -0.1309  0.5343
14166TIP3    H163989   1.914   2.213  31.924  0.0609  1.4607  0.0422
14166TIP3    H263990   2.036   2.155  31.991  0.2687 -1.2871 -2.5118
14167TIP3   OH263991   2.393   2.805  11.940  0.8008  0.6000  0.4009
14167TIP3    H163992   2.444   2.832  12.017  0.2477 -0.6000  1.2297
14167TIP3    H263993   2.341   2.731  11.971 -0.2196  0.7501 -0.8658
14168TIP3   OH263994   2.977   1.194  31.379 -0.1823 -0.7880 -0.0327
14168TIP3    H163995   3.028   1.138  31.437 -0.6558 -0.7407  0.4386
14168TIP3    H263996   2.912   1.135  31.340 -0.8588 -0.5320  0.6746
14169TIP3   OH263997   0.067   3.156   0.465 -0.3709  0.0373 -0.2128
14169TIP3    H163998   0.057   3.208   0.386 -1.7338 -2.4839 -1.8198
14169TIP3    H263999   0.158   3.127   0.463 -0.0375  1.0242 -0.1185
14170TIP3   OH264000   0.147   1.316  17.573 -0.1130 -0.1913  0.2868
14170TIP3    H164001   0.065   1.276  17.544 -0.2926  0.6874 -0.4333
14170TIP3    H264002   0.134   1.329  17.667 -0.1354 -1.5960  0.5028
14171TIP3   OH264003   1.557   2.013  32.063  0.9460  0.2664  0.0988
14171TIP3    H164004   1.559   2.079  32.132  2.1073  0.0564  0.2885
14171TIP3    H264005   1.467   1.981  32.062  0.6719  1.0009  0.8130
14172TIP3   OH264006   2.872   1.878  44.572  0.1806  0.2875  0.0746
14172TIP3    H164007   2.935   1.807  44.580  0.1467  0.4352  2.3901
14172TIP3    H264008   2.903   1.931  44.499  1.2356 -1.0770 -0.4956
14173TIP3   OH264009   2.153   1.261   3.191  0.3539  0.2810 -0.1138
14173TIP3    H164010   2.175   1.169   3.208 -1.1188 -0.0712  0.0106
14173TIP3    H264011   2.184   1.277   3.102  1.7536  0.0590  0.3011
14174TIP3   OH264012   2.333   1.694  42.950  0.0518  0.8820  0.0518
14174TIP3    H164013   2.344   1.788  42.938  1.7119  1.1054  2.4968
14174TIP3    H264014   2.412   1.655  42.911 -0.3008  0.5710 -0.3554
14175TIP3   OH264015   1.985   2.452  15.727  0.2038  0.3527 -0.6539
14175TIP3    H164016   1.952   2.513  15.661 -1.8445 -0.6481 -0.6225
14175TIP3    H264017   1.931   2.468  15.805 -0.2436 -1.3121 -0.5758
14176TIP3   OH264018   3.527   2.433   0.485  0.0485 -0.4487 -0.2715
14176TIP3    H164019   3.487   2.506   0.533  1.5328 -0.3053  0.8188
14176TIP3    H264020   3.617   2.461   0.469  0.2552 -1.4986 -1.0466
14177TIP3   OH264021   1.920   1.117   1.829  0.4820 -0.7172 -0.3567
14177TIP3    H164022   1.870   1.175   1.772 -0.8257 -0.2078  1.2457
14177TIP3    H264023   1.894   1.141   1.917 -0.2280 -3.8329  0.3936
14178TIP3   OH264024   2.556   0.543  34.984 -0.1959  0.2293  0.4725
14178TIP3    H164025   2.628   0.557  35.045  0.8446 -1.9584 -0.1481
14178TIP3    H264026   2.582   0.590  34.904 -0.2374  0.7712  0.7710
14179TIP3   OH264027   1.353   3.339  31.625 -0.3790  0.3566 -0.0697
14179TIP3    H164028   1.392   3.256  31.651 -0.2553  0.1264 -0.9451
14179TIP3    H264029   1.413   3.405  31.661  0.6985  0.0150 -1.1528
14180TIP3   OH264030   3.428   0.007  39.915  0.2199 -0.2492  0.4291
14180TIP3    H164031   3.373  -0.071  39.913  0.2691 -0.2743 -0.4163
14180TIP3    H264032   3.439   0.027  40.008 -0.5692 -0.6963  0.6216
14181TIP3   OH264033   1.951   2.540   5.254 -0.0097  0.0554  0.3569
14181TIP3    H164034   1.919   2.627   5.229  0.0112 -0.1975 -0.5620
14181TIP3    H264035   1.883   2.506   5.313 -0.5495  0.2658 -0.1273
14182TIP3   OH264036   3.903   2.731  38.916  0.1904 -0.4039  0.2221
14182TIP3    H164037   3.869   2.642  38.923 -2.1467  0.4865  1.2200
14182TIP3    H264038   3.837   2.778  38.865  0.0986  1.3162  1.8216
14183TIP3   OH264039   2.830   1.820  33.212  0.3743  0.0296  0.2178
14183TIP3    H164040   2.895   1.751  33.214 -0.2350 -0.5471  1.2367
14183TIP3    H264041   2.747   1.776  33.232 -0.3477  0.7292 -1.0952
14184TIP3   OH264042   3.710   0.697  37.384  0.0600  0.1600  0.2020
14184TIP3    H164043   3.637   0.693  37.322  1.4435  0.2760 -1.5258
14184TIP3    H264044   3.743   0.787  37.377  0.1674  0.2077  1.2004
14185TIP3   OH264045   0.365   3.732   2.276  0.0195  0.3798  0.4687
14185TIP3    H164046   0.353   3.663   2.341 -0.5904  0.5069  0.4996
14185TIP3    H264047   0.276   3.765   2.259  0.3683  1.7477  1.1081
14186TIP3   OH264048   2.041   0.903   4.942  0.2449 -0.0995  0.2732
14186TIP3    H164049   2.109   0.968   4.960 -1.4218  1.7244  0.1950
14186TIP3    H264050   2.030   0.906   4.847 -0.0097 -0.3298  0.2949
14187TIP3   OH264051   1.784   0.863  36.539  0.1087 -0.4245  0.2366
14187TIP3    H164052   1.691   0.849  36.561  0.0924 -1.0018 -0.1959
14187TIP3    H264053   1.782   0.935  36.476 -0.0206 -0.2415  0.4464
14188TIP3   OH264054   1.604   4.100   5.766  0.0222  0.1938 -0.7613
14188TIP3    H164055   1.622   4.168   5.830  1.8134 -1.0604  0.1603
14188TIP3    H264056   1.509   4.103   5.754 -0.2442  1.1301  1.2064
14189TIP3   OH264057   1.788   0.170  42.693  0.1667  0.9322 -0.0916
14189TIP3    H164058   1.724   0.185  42.623  0.6605  1.3676 -0.4585
14189TIP3    H264059   1.788   0.252  42.742 -0.4910  0.4803  0.6858
14190TIP3   OH264060   2.126   2.471   1.091 -0.4521  0.3017 -0.0666
14190TIP3    H164061   2.211   2.438   1.062 -0.2192  1.9160 -1.4024
14190TIP3    H264062   2.147   2.541   1.153 -0.8818 -0.5524  1.0804
14191TIP3   OH264063   0.216   3.484  37.402  0.2350 -0.4512  0.1326
14191TIP3    H164064   0.278   3.459  37.334  1.4675 -1.1303  1.4473
14191TIP3    H264065   0.239   3.429  37.477 -2.8636 -1.7457  0.2788
14192TIP3   OH264066   1.874   0.415  38.124 -0.5464  0.6971 -0.6259
14192TIP3    H164067   1.907   0.446  38.208 -1.8340 -0.1000  0.1940
14192TIP3    H264068   1.882   0.320  38.128 -3.1648  0.4052 -0.2226
14193TIP3   OH264069   3.928   0.047  42.625  0.0062 -0.0850 -0.4157
14193TIP3    H164070   4.021   0.046  42.648  0.1494  2.1329 -0.6670
14193TIP3    H264071   3.923  -0.004  42.544  1.4571  1.6438 -1.7027
14194TIP3   OH264072   3.405   1.297  16.347 -0.1530  0.4098  0.0815
14194TIP3    H164073   3.431   1.263  16.432 -0.0313  1.5327  0.5063
14194TIP3    H264074   3.345   1.231  16.312  1.2454 -0.9765  0.1994
14195TIP3   OH264075   3.168   1.213  41.443  0.0720 -0.0652 -0.0611
14195TIP3    H164076   3.261   1.192  41.450  0.4167  0.5958 -2.0533
14195TIP3    H264077   3.128   1.134  41.406  0.2971  0.4961 -1.5674
14196TIP3   OH264078   3.271   1.283  34.059  0.2561 -0.2451  0.0878
14196TIP3    H164079   3.187   1.328  34.057  0.9334  1.0595  0.1962
14196TIP3    H264080   3.255   1.205  34.113 -0.8765 -0.0212  0.0894
14197TIP3   OH264081   0.936   2.766  42.498  0.8206  0.1190 -0.1243
14197TIP3    H164082   0.922   2.704  42.426 -0.6462  0.4970 -0.1898
14197TIP3    H264083   0.999   2.723  42.555  0.1125 -1.2769 -0.3658
14198TIP3   OH264084   1.756   3.044  47.573  0.1673  0.2292  0.7531
14198TIP3    H164085   1.807   2.963  47.569 -1.2936 -0.7100  0.1667
14198TIP3    H264086   1.678   3.026  47.520 -0.0976  2.1064  0.4283
14199TIP3   OH264087   3.496   2.951  30.589  0.6392 -0.5911  0.0594
14199TIP3    H164088   3.516   2.966  30.496  0.9482  1.1082  0.3628
14199TIP3    H264089   3.475   3.038  30.622  2.5894 -0.8182  2.0843
14200TIP3   OH264090   1.456   2.827  41.957  0.5276  0.2688  0.0347
14200TIP3    H164091   1.444   2.871  41.873 -1.2325  0.2676  0.2375
14200TIP3    H264092   1.439   2.734  41.938 -0.7126  0.3732  0.5086
14201TIP3   OH264093   3.649   2.308  46.063 -0.2095 -0.0450 -0.1430
14201TIP3    H164094   3.677   2.399  46.074  0.6512  0.2392 -3.5528
14201TIP3    H264095   3.686   2.263  46.138  2.5769  1.7965 -0.2644
14202TIP3   OH264096   3.036   4.078   0.737  0.3336 -0.5383  0.1316
14202TIP3    H164097   2.978   4.113   0.669 -0.6810  0.0763  1.2937
14202TIP3    H264098   3.016   3.984   0.740  1.3360 -0.8392 -1.3047
14203TIP3   OH264099   0.657   3.004   0.803 -0.1194 -0.0196  0.0567
14203TIP3    H164100   0.727   2.947   0.832  1.4182  0.2641 -2.7596
14203TIP3    H264101   0.600   2.948   0.749 -1.0124  0.1814  0.7619
14204TIP3   OH264102   1.640   1.695  42.848  0.0612 -0.5357 -0.6508
14204TIP3    H164103   1.591   1.628  42.895 -0.3698 -0.3066 -0.7664
14204TIP3    H264104   1.612   1.778  42.888 -0.4551 -0.3261 -1.4264
14205TIP3   OH264105   2.668   0.000  12.396 -0.0461  0.0406 -0.2287
14205TIP3    H164106   2.695   0.066  12.461 -0.3704  0.3516 -0.4036
14205TIP3    H264107   2.591   0.039  12.354 -2.2890 -1.7941  1.8861
14206TIP3   OH264108   3.760   0.731  30.991 -0.3052  0.1112 -0.1409
14206TIP3    H164109   3.746   0.775  30.907  0.3946  0.7193  0.0528
14206TIP3    H264110   3.790   0.800  31.050 -1.1249 -0.2413  0.7139
14207TIP3   OH264111   2.867   3.160   0.824 -1.2431  0.3345 -0.6866
14207TIP3    H164112   2.901   3.134   0.909 -1.7558 -1.0156 -0.8798
14207TIP3    H264113   2.908   3.245   0.808  0.0717 -0.0855  0.2119
14208TIP3   OH264114   1.690   2.286  44.355 -0.1662  0.6795 -0.1521
14208TIP3    H164115   1.712   2.304  44.447 -0.7740  0.9283 -0.0449
14208TIP3    H264116   1.726   2.359  44.307  0.5685  0.3115 -0.1765
14209TIP3   OH264117   1.481   1.906   8.719 -0.1497 -0.9991 -0.3105
14209TIP3    H164118   1.471   1.995   8.752 -0.0380 -1.0375 -0.1726
14209TIP3    H264119   1.405   1.892   8.662 -0.5700 -1.0896  0.2695
14210TIP3   OH264120   2.090   2.376  17.611  0.6969 -0.1010  0.1700
14210TIP3    H164121   2.044   2.423  17.681  1.9465  1.6854 -0.1516
14210TIP3    H264122   2.052   2.410  17.530  0.5701 -0.7793 -0.0617
14211TIP3   OH264123   3.867   2.232  41.762 -0.1427 -0.4845 -0.9001
14211TIP3    H164124   3.944   2.217  41.818 -0.8056 -0.2057  0.1251
14211TIP3    H264125   3.902   2.268  41.681  0.6229  2.9445  0.7628
14212TIP3   OH264126   0.325   0.736  34.927 -0.1526 -0.2547  0.1059
14212TIP3    H164127   0.362   0.665  34.980 -0.8023  0.2306  1.2456
14212TIP3    H264128   0.384   0.743  34.852  0.8784 -0.8680  0.8336
14213TIP3   OH264129   1.681   1.395  16.483  0.2101 -0.5466  0.3346
14213TIP3    H164130   1.748   1.339  16.521 -1.7987 -1.1716  3.2842
14213TIP3    H264131   1.609   1.335  16.463 -0.1375  0.3320 -1.2056
14214TIP3   OH264132   0.952   1.940  10.128  0.3950  0.2198 -0.1669
14214TIP3    H164133   1.026   2.000  10.116 -0.7075  1.5341 -0.5784
14214TIP3    H264134   0.989   1.853  10.110  1.4043  1.0228 -2.4314
14215TIP3   OH264135   1.410   0.545   9.390  0.1307  0.3318 -0.0752
14215TIP3    H164136   1.377   0.634   9.375 -1.8194 -0.7565 -3.1898
14215TIP3    H264137   1.502   0.549   9.364  0.5609  1.7457  1.4674
14216TIP3   OH264138   0.311   1.686  31.570  0.1269  0.6984 -0.5062
14216TIP3    H164139   0.283   1.634  31.494  0.0108  1.3527 -0.9206
14216TIP3    H264140   0.237   1.744  31.588  0.1724  0.5713  0.0832
14217TIP3   OH264141   0.585   0.267   4.913  0.6277  0.8175 -0.0209
14217TIP3    H164142   0.626   0.330   4.853  1.2802 -0.8812 -1.4354
14217TIP3    H264143   0.509   0.234   4.864 -0.2561  1.1532  1.0793
14218TIP3   OH264144   1.467   2.829  34.247 -0.5109  0.0648  0.0104
14218TIP3    H164145   1.487   2.751  34.195  1.8760 -0.4124  1.5137
14218TIP3    H264146   1.489   2.902  34.191  1.1808 -0.4370 -0.0418
14219TIP3   OH264147   3.100   0.524  11.321  0.1198 -0.2468 -0.1235
14219TIP3    H164148   3.092   0.434  11.287 -1.2474 -0.0497 -0.3617
14219TIP3    H264149   3.025   0.535  11.378  1.4435  0.0465  1.6381
14220TIP3   OH264150   3.328   1.158  15.409 -0.3255  0.1480  0.0440
14220TIP3    H164151   3.386   1.084  15.432 -1.9541 -2.3079 -2.9636
14220TIP3    H264152   3.288   1.183  15.492  2.2068 -0.5399  1.6132
14221TIP3   OH264153   2.816   0.088  27.455 -0.5286  0.4789 -0.1229
14221TIP3    H164154   2.897   0.066  27.408 -0.5128  2.1583 -0.9414
14221TIP3    H264155   2.762   0.132  27.390 -2.2071 -0.7549  0.3682
14222TIP3   OH264156   4.023   2.103  43.978  0.3729  0.0322 -0.4284
14222TIP3    H164157   3.933   2.080  44.000  0.4329 -0.2016 -0.4291
14222TIP3    H264158   4.076   2.052  44.039  0.4598  1.6788  0.9656
14223TIP3   OH264159   3.844   3.635   6.701  0.0981 -0.2614 -0.5992
14223TIP3    H164160   3.903   3.564   6.674  2.3812  1.1692  0.3351
14223TIP3    H264161   3.900   3.712   6.708 -2.3926  1.8876 -2.2568
14224TIP3   OH264162   2.952   3.852  32.100  0.2868  0.0858  0.2417
14224TIP3    H164163   2.865   3.834  32.063 -0.1085 -0.1562  1.2538
14224TIP3    H264164   2.999   3.896  32.029 -0.0773 -1.3043 -0.9211
14225TIP3   OH264165   0.823   0.139  36.153  0.1181  0.0070  0.0120
14225TIP3    H164166   0.748   0.112  36.101 -0.1923 -2.2920  1.4982
14225TIP3    H264167   0.896   0.089  36.117  0.3680  0.1399  0.3236
14226TIP3   OH264168   0.077   3.191  38.919 -0.0516 -0.1147 -0.0405
14226TIP3    H164169   0.114   3.279  38.915  1.3349 -0.6854 -0.1445
14226TIP3    H264170  -0.011   3.204  38.956 -0.1369  1.3722 -0.7021
14227TIP3   OH264171   1.699   3.101  46.662 -0.7476  0.2279  0.3433
14227TIP3    H164172   1.686   3.196  46.657 -1.3225  0.0975 -1.5054
14227TIP3    H264173   1.733   3.077  46.576 -1.4157 -1.3426  0.4826
14228TIP3   OH264174   3.580   2.640   0.185  0.0183  0.3823  0.8006
14228TIP3    H164175   3.563   2.682   0.101 -2.3867 -1.0492  0.4736
14228TIP3    H264176   3.655   2.582   0.169  0.2520  0.9140 -0.0475
14229TIP3   OH264177   1.165   0.478   3.077 -0.0831  0.1807  0.5979
14229TIP3    H164178   1.083   0.431   3.060  0.5232 -0.5723 -0.4336
14229TIP3    H264179   1.232   0.421   3.040  0.5822  2.5934 -2.3739
14230TIP3   OH264180   3.530   1.838  37.306  0.5814 -0.2021 -0.1578
14230TIP3    H164181   3.555   1.923  37.340  1.1369 -0.4094 -0.0264
14230TIP3    H264182   3.562   1.775  37.371  1.1198 -0.5652 -0.7465
14231TIP3   OH264183   0.541   2.208  14.715 -0.2979  0.7574  0.3042
14231TIP3    H164184   0.593   2.177  14.789 -0.4884  2.6978  1.3410
14231TIP3    H264185   0.603   2.257  14.661 -0.6634  1.5854  0.6136
14232TIP3   OH264186   3.382   1.210   7.126  0.3576  0.1036  0.0402
14232TIP3    H164187   3.465   1.258   7.131  0.0608  0.6577 -0.3296
14232TIP3    H264188   3.358   1.194   7.217  0.9745 -0.2381  0.1465
14233TIP3   OH264189   0.679   0.413  40.577  0.1762  0.3954 -0.2278
14233TIP3    H164190   0.598   0.361  40.578 -0.4337  1.3147 -0.8111
14233TIP3    H264191   0.749   0.348  40.575 -0.4119 -0.5182  3.2079
14234TIP3   OH264192   3.265   0.674  13.855  0.4123 -0.0338 -0.4000
14234TIP3    H164193   3.175   0.688  13.886  0.9131  0.0822  1.1150
14234TIP3    H264194   3.296   0.598  13.906  1.5799  0.7174  0.0642
14235TIP3   OH264195   2.002   3.583  30.602 -0.4885 -0.1224 -0.9558
14235TIP3    H164196   2.040   3.669  30.582 -1.1162 -0.2870 -3.1139
14235TIP3    H264197   1.911   3.590  30.574 -1.1373 -0.8650  0.8162
14236TIP3   OH264198   3.854   1.498  12.053  0.4140 -0.2880  0.8718
14236TIP3    H164199   3.865   1.489  11.958  0.3642  1.1121  0.7211
14236TIP3    H264200   3.854   1.592  12.069 -1.2461 -0.4398  2.0656
14237TIP3   OH264201   0.601   1.174   9.694 -0.9715  0.1294 -0.4386
14237TIP3    H164202   0.527   1.141   9.746  0.4640 -0.7006  1.2119
14237TIP3    H264203   0.657   1.097   9.682 -0.1210  0.8515 -1.2013
14238TIP3   OH264204   1.894   3.033  40.956 -0.8307 -0.1040 -0.1510
14238TIP3    H164205   1.912   3.097  40.886  0.1250  1.8304  1.7477
14238TIP3    H264206   1.801   3.047  40.977 -0.7027  0.5009  0.0519
14239TIP3   OH264207   0.209   0.323   7.709 -0.3342  0.5881  0.3835
14239TIP3    H164208   0.161   0.290   7.785  1.2757  0.2138  1.2965
14239TIP3    H264209   0.268   0.389   7.745  1.1806 -0.3114 -0.3242
14240TIP3   OH264210   3.177   2.844  32.104 -0.2938 -0.2252  0.3990
14240TIP3    H164211   3.174   2.862  32.010  1.6247 -1.4057  0.0556
14240TIP3    H264212   3.232   2.914  32.140  1.0152 -1.1339  0.2258
14241TIP3   OH264213   1.466   2.733  45.548 -0.1259  0.6472  0.3012
14241TIP3    H164214   1.447   2.805  45.608  1.9301  2.0382 -0.5910
14241TIP3    H264215   1.424   2.657  45.588 -1.3740  2.0797  1.9042
14242TIP3   OH264216   3.628   0.285  34.508  0.2097  0.5138 -0.0827
14242TIP3    H164217   3.644   0.347  34.579 -1.9340  1.6008 -0.4792
14242TIP3    H264218   3.581   0.213  34.549  0.9367  0.0671 -0.0095
14243TIP3   OH264219   3.306   1.229  15.692  0.1479 -0.1408 -0.2239
14243TIP3    H164220   3.292   1.165  15.761  0.0594  1.0322  0.8799
14243TIP3    H264221   3.289   1.314  15.733 -3.8754  0.5032 -2.5785
14244TIP3   OH264222   0.167   2.158  14.180  0.3880 -0.0800 -0.2468
14244TIP3    H164223   0.192   2.188  14.267  0.2844 -0.9045  0.0755
14244TIP3    H264224   0.249   2.153  14.131  0.5494 -0.4547  0.0662
14245TIP3   OH264225   1.261   1.822  31.978  0.5561  0.3404 -0.1337
14245TIP3    H164226   1.272   1.870  31.896  1.3319 -1.1380 -0.9159
14245TIP3    H264227   1.167   1.826  31.995  0.2182 -0.2828 -1.6937
14246TIP3   OH264228   3.956   1.248   3.031 -0.7985 -0.3936  0.1796
14246TIP3    H164229   3.928   1.310   2.963  0.5522 -1.5986 -1.5262
14246TIP3    H264230   3.998   1.304   3.097 -0.6084  0.6520 -0.7824
14247TIP3   OH264231   0.858   3.846  10.411 -0.5905 -0.3333  0.0249
14247TIP3    H164232   0.827   3.757  10.426  1.4987 -1.2069 -0.4472
14247TIP3    H264233   0.788   3.888  10.360 -1.1107 -2.0767 -0.7734
14248TIP3   OH264234   0.000   2.455  10.074  0.6601 -0.3353 -0.3360
14248TIP3    H164235  -0.084   2.499  10.080  0.8232  0.0677 -0.9714
14248TIP3    H264236   0.010   2.411  10.159  0.4519  0.7586  0.2728
14249TIP3   OH264237   1.565   2.898  21.524  0.1701 -0.6041  0.6032
14249TIP3    H164238   1.565   2.910  21.429  1.8826  0.7604  0.7322
14249TIP3    H264239   1.515   2.817  21.537  0.9304 -1.5031 -1.5348
14250TIP3   OH264240   3.441   1.175  14.635  0.2598  0.1261  0.1050
14250TIP3    H164241   3.422   1.172  14.729 -0.2887  2.3545  0.1216
14250TIP3    H264242   3.535   1.157  14.629 -0.1575 -2.8740  0.7587
14251TIP3   OH264243   1.219   1.412  44.077 -0.2245  0.0710 -0.3767
14251TIP3    H164244   1.207   1.346  44.145 -1.1960 -0.1505 -0.7492
14251TIP3    H264245   1.159   1.386  44.008 -2.5259  2.7071  0.4684
14252TIP3   OH264246   0.588   3.740  38.596 -0.4250 -0.7087 -0.1544
14252TIP3    H164247   0.530   3.664  38.586 -0.4654 -0.8113  0.7497
14252TIP3    H264248   0.538   3.801  38.650 -1.2290  0.8716 -2.5266
14253TIP3   OH264249   1.451   2.085  10.864 -0.3027 -0.2373  0.4491
14253TIP3    H164250   1.544   2.106  10.868 -0.8239  2.7057 -0.6838
14253TIP3    H264251   1.448   2.002  10.816  1.6675  0.6605 -1.3847
14254TIP3   OH264252   1.144   1.564  34.655  0.2307  0.3980  0.4679
14254TIP3    H164253   1.200   1.641  34.658 -0.8039  1.2582 -0.9647
14254TIP3    H264254   1.089   1.577  34.578  1.9967 -3.1795 -1.6874
14255TIP3   OH264255   2.415   2.109  32.388 -0.3194 -0.4524  0.4725
14255TIP3    H164256   2.332   2.122  32.433 -1.7512  0.1938 -2.1447
14255TIP3    H264257   2.409   2.021  32.350 -0.3443  0.0152 -0.6652
14256TIP3   OH264258   1.381   2.810  38.053 -0.2062  0.2128 -0.0740
14256TIP3    H164259   1.342   2.872  38.115 -0.0348 -0.7068  0.9785
14256TIP3    H264260   1.337   2.727  38.072  0.8585 -0.3982 -0.2192
14257TIP3   OH264261   3.519   3.166   5.496 -0.3135  0.4097  0.2489
14257TIP3    H164262   3.572   3.094   5.531 -0.7955  0.4082  0.9991
14257TIP3    H264263   3.579   3.213   5.438  0.0028 -0.6045 -0.2824
14258TIP3   OH264264   3.109   0.711  35.043 -0.6809 -0.1829  0.1678
14258TIP3    H164265   3.069   0.641  35.094 -2.6516  1.0887  0.4472
14258TIP3    H264266   3.076   0.699  34.954  1.1209 -1.1586 -0.4261
14259TIP3   OH264267   2.429   2.567   3.094  0.7408 -0.0729  0.1881
14259TIP3    H164268   2.417   2.484   3.141  0.0412 -0.9211 -1.4349
14259TIP3    H264269   2.377   2.630   3.145 -0.1838 -1.0110  0.4334
14260TIP3   OH264270   0.372   3.568  31.199  0.1822 -0.1564  0.0348
14260TIP3    H164271   0.328   3.568  31.284 -0.2266  0.5843 -0.1630
14260TIP3    H264272   0.330   3.497  31.150  0.6799 -0.8354  0.5707
14261TIP3   OH264273   2.548   0.219  12.678  0.1660 -0.2826  0.5074
14261TIP3    H164274   2.596   0.175  12.749  5.4910  2.6931 -0.7133
14261TIP3    H264275   2.525   0.305  12.715 -0.1297  0.0087 -0.3375
14262TIP3   OH264276   0.601   0.462  25.007  0.0728  0.4859 -0.5592
14262TIP3    H164277   0.578   0.455  25.099  0.3254  3.5691 -0.1520
14262TIP3    H264278   0.676   0.404  24.996 -0.7998 -0.9727  0.8036
14263TIP3   OH264279   3.018   3.642  30.715  0.2148 -0.4595 -0.6754
14263TIP3    H164280   2.922   3.642  30.709  0.1049  0.1466  0.5932
14263TIP3    H264281   3.045   3.559  30.677 -1.0206 -1.9000  1.3629
14264TIP3   OH264282   0.328   1.611  36.858  0.0304 -0.2158  0.8149
14264TIP3    H164283   0.244   1.593  36.818 -0.4878  1.3022  1.1456
14264TIP3    H264284   0.392   1.571  36.799 -0.8961 -1.1509  0.4201
14265TIP3   OH264285   2.271   3.036  45.160  0.0336 -0.4396 -0.0427
14265TIP3    H164286   2.339   3.103  45.151 -0.0441 -0.3608 -0.0509
14265TIP3    H264287   2.190   3.086  45.166  0.0516 -0.4925  0.7705
14266TIP3   OH264288   0.688   3.548   1.141 -0.2058  0.1198  0.1486
14266TIP3    H164289   0.643   3.467   1.166  0.5069 -1.0249 -2.0666
14266TIP3    H264290   0.644   3.577   1.061 -0.7722  2.2571  1.1497
14267TIP3   OH264291   1.976   4.033  10.698  0.1162  0.1642  0.0085
14267TIP3    H164292   2.030   3.983  10.637 -0.2511 -0.3931  0.1342
14267TIP3    H264293   2.007   4.006  10.785 -0.4606 -0.2695  0.0823
14268TIP3   OH264294   1.209   0.205  25.854  0.0255 -0.2785  0.4722
14268TIP3    H164295   1.305   0.212  25.859  0.0269  0.7250 -0.3504
14268TIP3    H264296   1.180   0.296  25.846 -0.9196 -0.6299 -0.2693
14269TIP3   OH264297   1.321   1.317  12.754 -0.0090 -0.2501 -0.5754
14269TIP3    H164298   1.337   1.406  12.786  1.8615 -0.1290 -1.6817
14269TIP3    H264299   1.242   1.289  12.800  1.7421  0.3377  3.1819
14270TIP3   OH264300   0.835   3.877  31.270  0.8636 -0.6599  0.4856
14270TIP3    H164301   0.863   3.827  31.347  0.9636 -0.7022  0.4217
14270TIP3    H264302   0.806   3.811  31.207 -0.9546 -0.5530  1.1552
14271TIP3   OH264303   2.579   1.805  40.742 -0.1801  0.0464 -0.1113
14271TIP3    H164304   2.504   1.852  40.778 -0.1806 -0.0217 -0.0195
14271TIP3    H264305   2.541   1.724  40.706  0.0544 -0.7554  1.3752
14272TIP3   OH264306   3.726   4.014  34.687  0.4653  0.2832  0.0153
14272TIP3    H164307   3.715   4.093  34.740  1.3920 -0.6249  1.6386
14272TIP3    H264308   3.639   3.974  34.684  0.1710  0.9295 -0.1198
14273TIP3   OH264309   0.017   2.160   5.874 -0.2702  0.0412  0.0567
14273TIP3    H164310   0.061   2.227   5.821 -0.8157 -0.8638 -1.6129
14273TIP3    H264311   0.028   2.190   5.964  0.7890  1.5943 -0.5423
14274TIP3   OH264312   1.554   3.663  10.695 -0.1226  0.8686 -0.0539
14274TIP3    H164313   1.462   3.689  10.686 -0.4218 -0.1556 -0.1102
14274TIP3    H264314   1.555   3.605  10.771 -0.1201 -1.6281 -1.8488
14275TIP3   OH264315   2.449   2.465  33.888 -0.0518 -0.6789  0.4026
14275TIP3    H164316   2.485   2.542  33.933 -1.0588  1.0991 -1.6495
14275TIP3    H264317   2.481   2.473  33.798 -3.1447 -0.5706 -0.7934
14276TIP3   OH264318   3.352   1.266  44.028  0.0425  0.0577 -0.3047
14276TIP3    H164319   3.372   1.330  44.096 -4.9191  0.6121  1.0345
14276TIP3    H264320   3.290   1.312  43.970 -2.2080 -2.7962 -0.3933
14277TIP3   OH264321   1.815   3.883  12.173  0.3999  0.4100 -0.1805
14277TIP3    H164322   1.763   3.810  12.139  0.1600 -0.5383  2.0511
14277TIP3    H264323   1.750   3.945  12.206  0.6428  0.4916  0.1482
14278TIP3   OH264324   0.747   1.032  32.196 -0.1407 -0.0160  0.2253
14278TIP3    H164325   0.749   1.122  32.227  0.7380 -0.2015  0.7570
14278TIP3    H264326   0.695   1.035  32.116 -0.0591  0.9691  0.1983
14279TIP3   OH264327   0.591   2.204   6.154  0.0527  0.3489  0.0431
14279TIP3    H164328   0.613   2.169   6.068 -1.6817 -0.3358 -0.1418
14279TIP3    H264329   0.609   2.298   6.146 -1.6946  0.5884 -1.6358
14280TIP3   OH264330   1.220   1.663   6.641 -0.4737  0.0703  0.1805
14280TIP3    H164331   1.238   1.744   6.688  1.3434  0.1327 -0.5375
14280TIP3    H264332   1.270   1.596   6.689  0.9848  0.0438 -1.2934
14281TIP3   OH264333   1.718   2.366  19.046  0.2546  0.3581  0.0281
14281TIP3    H164334   1.702   2.440  18.988 -0.7847  0.0612 -0.0808
14281TIP3    H264335   1.792   2.320  19.005  0.5793  1.0476 -0.1730
14282TIP3   OH264336   2.646   3.205   7.751 -0.5993 -0.1764  0.4453
14282TIP3    H164337   2.599   3.287   7.766  0.8871  0.7208  0.3710
14282TIP3    H264338   2.729   3.216   7.797 -0.3421 -1.6247  0.3730
14283TIP3   OH264339   2.096   1.804   3.204  0.2605  0.0946 -0.2938
14283TIP3    H164340   2.123   1.844   3.286  0.6628  0.8400 -0.7799
14283TIP3    H264341   2.127   1.713   3.210 -0.6810 -0.1753  0.8224
14284TIP3   OH264342   1.830   0.962  43.225 -0.4786 -0.5005  0.0269
14284TIP3    H164343   1.894   0.935  43.291  0.5112 -2.1252 -1.5353
14284TIP3    H264344   1.822   1.057  43.237  0.9801 -0.4958  1.3084
14285TIP3   OH264345   3.851   0.523  44.361 -0.5666 -0.4166 -0.3672
14285TIP3    H164346   3.918   0.523  44.293 -0.5671 -2.8891 -0.4649
14285TIP3    H264347   3.770   0.498  44.315 -1.0380  0.0959  0.1693
14286TIP3   OH264348   2.007   3.611   9.273  0.4347  0.4578  0.0782
14286TIP3    H164349   2.085   3.666   9.276  1.0525 -0.2855 -1.3483
14286TIP3    H264350   2.006   3.575   9.184 -1.9211  1.0103 -0.2023
14287TIP3   OH264351   2.555   2.229  32.188 -0.8146  0.7170 -0.4721
14287TIP3    H164352   2.646   2.213  32.216 -1.2604 -0.4989  0.4096
14287TIP3    H264353   2.503   2.206  32.265 -1.8218  2.9729 -0.4043
14288TIP3   OH264354   1.108   1.167   3.519  0.2234  0.8458  0.0569
14288TIP3    H164355   1.022   1.145   3.555  0.7205 -0.9518  0.2794
14288TIP3    H264356   1.134   1.246   3.566 -0.2038 -0.0565  1.9171
14289TIP3   OH264357   0.708   1.106  14.336  0.0285 -0.6260 -0.1463
14289TIP3    H164358   0.786   1.146  14.297  0.1579 -0.5459  0.1818
14289TIP3    H264359   0.742   1.055  14.409 -0.3534  0.6619  0.9819
14290TIP3   OH264360   2.305   3.702  37.934  0.2649 -0.0524  0.1823
14290TIP3    H164361   2.270   3.771  37.990 -1.1719  0.7892 -1.6334
14290TIP3    H264362   2.381   3.741  37.891 -0.2072  0.2278 -0.4125
14291TIP3   OH264363   3.079   2.643   1.552  0.6149  0.3287  0.2111
14291TIP3    H164364   3.172   2.663   1.544  0.9046 -0.4351  1.3620
14291TIP3    H264365   3.076   2.558   1.596 -0.6137  0.8038  1.1332
14292TIP3   OH264366   3.574   1.197  10.359 -0.3312  0.4563 -0.1251
14292TIP3    H164367   3.660   1.235  10.340 -0.8890  2.2095  0.5829
14292TIP3    H264368   3.513   1.271  10.350 -1.8737 -0.8878 -1.2701
14293TIP3   OH264369   3.783   1.170  21.749 -0.1933  0.4210  0.1730
14293TIP3    H164370   3.733   1.221  21.686 -0.1958  0.0996 -0.0875
14293TIP3    H264371   3.718   1.110  21.788  0.0372 -0.1864 -0.3619
14294TIP3   OH264372   2.936   1.851   7.205  0.0307 -0.0221 -0.0684
14294TIP3    H164373   2.862   1.792   7.190  0.9565 -1.5363  1.0252
14294TIP3    H264374   2.966   1.830   7.293  1.2607  1.1421 -0.1771
14295TIP3   OH264375   3.300   2.865  13.190  0.3566 -0.4030 -0.5366
14295TIP3    H164376   3.283   2.777  13.224 -2.0270 -0.4599 -1.6203
14295TIP3    H264377   3.217   2.890  13.149  1.1830  2.1160 -0.7930
14296TIP3   OH264378   4.025   2.418  34.514 -0.5447  0.6888  0.4331
14296TIP3    H164379   4.067   2.426  34.428 -1.2477 -1.0212 -0.1161
14296TIP3    H264380   4.098   2.413  34.576 -0.0072  1.0815 -0.1572
14297TIP3   OH264381   3.980   3.185  14.549 -0.4472  0.1173  0.3946
14297TIP3    H164382   3.992   3.213  14.459 -1.6778 -0.2103  0.1045
14297TIP3    H264383   3.886   3.169  14.556 -0.0652 -2.1777  1.0319
14298TIP3   OH264384   0.416   2.358  44.646 -0.1822  0.0360 -0.2627
14298TIP3    H164385   0.362   2.355  44.725 -0.3868  0.1430 -0.3969
14298TIP3    H264386   0.496   2.403  44.673  0.3638 -1.1872  0.2428
14299TIP3   OH264387   2.694   1.962  11.910 -0.2540  0.3345  0.4232
14299TIP3    H164388   2.605   1.993  11.899  0.0665  2.3183  2.7379
14299TIP3    H264389   2.747   2.022  11.858 -0.0903  0.3869  0.6487
14300TIP3   OH264390   2.223   3.196   3.245  0.9509 -0.8440 -0.3819
14300TIP3    H164391   2.313   3.167   3.262  0.9421  0.0650  1.5413
14300TIP3    H264392   2.233   3.285   3.212  0.7825 -0.9936 -0.8357
14301TIP3   OH264393   2.784   0.381  10.359 -0.2037  0.2129 -0.1966
14301TIP3    H164394   2.751   0.470  10.353  1.5344  0.8580 -1.1026
14301TIP3    H264395   2.823   0.364  10.273  0.9984 -0.7740  0.5072
14302TIP3   OH264396   3.140   3.864   0.080 -0.2668  0.1100 -0.1797
14302TIP3    H164397   3.063   3.811   0.101 -0.7176 -0.0695 -2.1033
14302TIP3    H264398   3.204   3.841   0.147 -2.1500  0.9280  2.0267
14303TIP3   OH264399   2.958   3.431   7.348 -0.0596 -0.4850  0.1451
14303TIP3    H164400   2.870   3.421   7.312 -0.6291  3.0147  0.2676
14303TIP3    H264401   3.013   3.448   7.272  0.5973 -2.5541  0.0808
14304TIP3   OH264402   4.058   0.516  12.780 -0.1173 -0.1685  0.3902
14304TIP3    H164403   4.115   0.544  12.709 -0.5142 -1.3223 -0.4136
14304TIP3    H264404   4.105   0.445  12.822  1.0465  1.8051  2.6428
14305TIP3   OH264405   1.499   2.693  31.231  0.4555 -0.1823 -0.0583
14305TIP3    H164406   1.452   2.662  31.154 -0.2301 -0.6763  0.5452
14305TIP3    H264407   1.498   2.789  31.222 -0.2394 -0.2065 -0.3009
14306TIP3   OH264408   3.657   1.575  46.339  0.1877 -0.3777 -0.0491
14306TIP3    H164409   3.700   1.630  46.273  0.0020  0.2163  0.3168
14306TIP3    H264410   3.697   1.488  46.328  0.1334 -0.2971 -0.9635
14307TIP3   OH264411   1.237   0.498   4.925 -0.3022  0.2097  0.0084
14307TIP3    H164412   1.225   0.427   4.862 -1.5422  0.4173  0.0028
14307TIP3    H264413   1.172   0.563   4.901 -0.7690  0.3153  1.4831
14308TIP3   OH264414   3.306   0.811  42.656 -0.0756 -0.3896 -0.7824
14308TIP3    H164415   3.265   0.809  42.569  1.3003 -1.2653 -1.4457
14308TIP3    H264416   3.391   0.769  42.643  0.8228  0.8859  0.6577
14309TIP3   OH264417   0.523   1.085  10.588  0.2663 -0.0872 -0.2216
14309TIP3    H164418   0.569   1.169  10.591 -0.0980  0.1958 -1.5973
14309TIP3    H264419   0.465   1.093  10.512 -0.2804 -1.3353  0.0418
14310TIP3   OH264420   1.033   0.549  13.275 -0.2868 -0.2537 -0.2935
14310TIP3    H164421   0.978   0.606  13.329 -3.1423 -2.0592 -1.1238
14310TIP3    H264422   1.109   0.604  13.253 -1.7647  2.4327  0.8276
14311TIP3   OH264423   0.204   3.246  10.191  0.3559 -0.1064 -0.1746
14311TIP3    H164424   0.166   3.330  10.166  0.9802  0.4245  0.5932
14311TIP3    H264425   0.298   3.264  10.195  0.3786 -0.4494  1.4090
14312TIP3   OH264426   2.636   2.531  11.005  0.2571  0.0790 -0.0462
14312TIP3    H164427   2.698   2.526  11.078  0.5673 -1.2247 -0.3796
14312TIP3    H264428   2.638   2.623  10.978  2.2165  0.0389 -0.1766
14313TIP3   OH264429   3.045   0.349  47.262  0.1536 -0.2953  0.1118
14313TIP3    H164430   3.131   0.367  47.224 -0.5796  1.7409 -0.7199
14313TIP3    H264431   3.058   0.357  47.356  0.8977 -0.1307 -0.0001
14314TIP3   OH264432   2.165   0.378  13.574  0.2250  0.9534  0.0063
14314TIP3    H164433   2.217   0.323  13.515 -3.0256 -1.6566 -0.7284
14314TIP3    H264434   2.162   0.330  13.656 -2.0349  0.2279 -0.4093
14315TIP3   OH264435   3.214   2.612   0.808 -0.1734 -0.0520 -0.0394
14315TIP3    H164436   3.178   2.566   0.884 -0.9482 -2.3073 -1.6684
14315TIP3    H264437   3.177   2.700   0.814 -0.3193 -0.2107  2.1102
14316TIP3   OH264438   1.430   1.829  13.734 -0.0842  0.4772  0.0250
14316TIP3    H164439   1.481   1.826  13.815 -1.6496  0.0965  1.0333
14316TIP3    H264440   1.359   1.891  13.752 -0.6100  0.1887 -0.9550
14317TIP3   OH264441   1.546   2.048   2.379 -0.5041  0.3249  0.3576
14317TIP3    H164442   1.636   2.045   2.346 -0.5695 -1.1873  0.2261
14317TIP3    H264443   1.505   1.970   2.342 -2.0066  1.2257  0.0741
14318TIP3   OH264444   3.208   2.466   3.813  0.4050  0.5392  0.1487
14318TIP3    H164445   3.278   2.405   3.792 -0.7125 -0.2989 -1.3794
14318TIP3    H264446   3.252   2.549   3.830  1.7274  0.2697 -1.6759
14319TIP3   OH264447   1.043   2.140  12.306  0.1535  0.3814  0.3214
14319TIP3    H164448   1.059   2.050  12.333  1.3536  0.7258  0.8152
14319TIP3    H264449   0.948   2.145  12.296  0.1689 -1.3059 -1.1277
14320TIP3   OH264450   0.193   2.472  38.801 -0.1026  0.0080 -0.3971
14320TIP3    H164451   0.132   2.409  38.762  0.1731  0.0759 -0.9361
14320TIP3    H264452   0.275   2.425  38.809 -0.3899 -0.3155  0.9913
14321TIP3   OH264453   1.180   0.229  44.092  0.7328 -0.3353 -0.2726
14321TIP3    H164454   1.205   0.184  44.172  1.3428 -4.3610 -2.4851
14321TIP3    H264455   1.084   0.233  44.095  0.7768  0.2386  0.9149
14322TIP3   OH264456   2.636   0.935  10.731 -0.1669  0.3769  0.6614
14322TIP3    H164457   2.693   0.888  10.671  1.9915  0.7960  2.2673
14322TIP3    H264458   2.548   0.911  10.703  0.6624  0.7676 -2.8125
14323TIP3   OH264459   3.795   0.440  46.497  0.1169 -0.3354  0.0085
14323TIP3    H164460   3.707   0.461  46.530 -1.1396 -3.0374 -1.3450
14323TIP3    H264461   3.796   0.345  46.490  3.4022 -0.4364  0.4630
14324TIP3   OH264462   1.239   4.107  46.110 -0.0865  0.4936  0.2755
14324TIP3    H164463   1.207   4.190  46.074 -0.9816  0.8438  1.7586
14324TIP3    H264464   1.313   4.132  46.165 -1.1805  0.5320  1.7892
14325TIP3   OH264465   1.415   3.917   3.140  0.6539 -0.8802  0.2752
14325TIP3    H164466   1.504   3.896   3.168  1.1854 -0.0501 -0.7020
14325TIP3    H264467   1.390   3.845   3.082  0.2353 -1.6917  1.4387
14326TIP3   OH264468   0.642   2.699  33.178  0.3481  0.0630  0.1222
14326TIP3    H164469   0.577   2.723  33.112 -1.9137 -0.2709  2.0829
14326TIP3    H264470   0.591   2.658  33.248  2.8283 -1.1638  1.3422
14327TIP3   OH264471   0.487   0.757  42.606  0.0611 -0.0793  0.1185
14327TIP3    H164472   0.579   0.737  42.593 -0.6234 -2.2978 -1.9236
14327TIP3    H264473   0.461   0.703  42.681  0.5192  1.0839  1.1557
14328TIP3   OH264474   0.927   2.903  39.665  0.2389  0.0857 -0.1954
14328TIP3    H164475   0.999   2.964  39.651  0.0812  0.2283 -0.3962
14328TIP3    H264476   0.849   2.952  39.640  0.1089 -0.1932 -0.3413
14329TIP3   OH264477   3.139   3.507   6.911  0.1748 -0.5602 -0.4535
14329TIP3    H164478   3.199   3.463   6.851  0.6740 -0.6273  0.0868
14329TIP3    H264479   3.128   3.594   6.874 -1.0922 -1.2122 -1.7293
14330TIP3   OH264480   3.066   3.431  31.197 -0.9320  0.6859 -0.6134
14330TIP3    H164481   3.038   3.442  31.106 -0.9927  3.3822 -0.3655
14330TIP3    H264482   3.130   3.361  31.194  0.5865  2.0117 -3.1371
14331TIP3   OH264483   2.538   1.399  39.840 -0.9069  0.0477  0.1274
14331TIP3    H164484   2.540   1.370  39.749 -0.5761 -2.1531  0.7798
14331TIP3    H264485   2.488   1.331  39.886 -1.1229  1.1488  1.5794
14332TIP3   OH264486   2.226   1.238  37.101  0.1048 -0.4416 -0.7083
14332TIP3    H164487   2.147   1.214  37.052 -0.8172 -1.5175  1.2161
14332TIP3    H264488   2.287   1.166  37.084 -0.6783 -1.4859  0.6505
14333TIP3   OH264489   2.734   2.709  41.765 -0.3589 -0.5102 -0.1626
14333TIP3    H164490   2.762   2.780  41.824 -0.5475 -0.0028 -0.6735
14333TIP3    H264491   2.813   2.683  41.719 -0.7208  1.1189 -1.8214
14334TIP3   OH264492   3.660   2.499  10.136  0.2744  0.0987 -0.6494
14334TIP3    H164493   3.594   2.470  10.198  0.6773 -1.0429 -0.7289
14334TIP3    H264494   3.637   2.590  10.116 -2.1809 -0.6998 -1.8605
14335TIP3   OH264495   1.030   2.467  44.576 -0.1861  0.2078  0.0607
14335TIP3    H164496   1.041   2.394  44.515  0.1143  1.0862 -0.9540
14335TIP3    H264497   1.120   2.490  44.602 -0.2499  0.5358 -0.0084
14336TIP3   OH264498   4.086   2.580  31.819 -0.3768  0.6672  0.0700
14336TIP3    H164499   4.164   2.539  31.857 -0.0632  1.4138  0.2423
14336TIP3    H264500   4.019   2.572  31.887 -0.6900 -0.6398 -0.3525
14337TIP3   OH264501   3.752   3.957  37.660 -0.2318 -0.1698  0.1207
14337TIP3    H164502   3.737   3.892  37.729 -0.1566 -0.8104 -0.4603
14337TIP3    H264503   3.834   3.999  37.684 -0.5847  0.1396  0.8248
14338TIP3   OH264504   3.175   1.680  45.892 -0.2048  0.2583 -0.6332
14338TIP3    H164505   3.225   1.757  45.918 -2.6312  1.3721  1.1767
14338TIP3    H264506   3.159   1.692  45.798  1.0200  0.9386 -0.7783
14339TIP3   OH264507   1.736   2.255  45.624 -0.4312 -0.3247 -0.3531
14339TIP3    H164508   1.671   2.301  45.571 -0.3193  1.5025  1.0306
14339TIP3    H264509   1.789   2.207  45.559 -0.2084  1.9261 -1.9662
14340TIP3   OH264510   1.293   2.698  40.355  0.0374  0.2487  0.3525
14340TIP3    H164511   1.352   2.687  40.281  0.2287 -0.6290  0.6318
14340TIP3    H264512   1.299   2.792  40.377  0.1516  0.4661 -0.5872
14341TIP3   OH264513   1.681   0.566   9.370 -0.0746 -0.7356  0.2597
14341TIP3    H164514   1.714   0.604   9.288 -1.6915 -0.0526 -0.1050
14341TIP3    H264515   1.729   0.484   9.379  0.8947 -0.3162 -0.8169
14342TIP3   OH264516   0.423   3.968  47.209 -0.1339  0.2843  0.0743
14342TIP3    H164517   0.415   3.902  47.278 -0.7575  0.9694  0.6723
14342TIP3    H264518   0.402   3.920  47.129  0.9730 -0.6112  0.2889
14343TIP3   OH264519   1.926   2.459  36.853 -0.3704 -0.6240 -0.2583
14343TIP3    H164520   2.014   2.424  36.864 -0.4181 -1.0696 -1.1983
14343TIP3    H264521   1.934   2.552  36.874  0.2424 -0.7305 -0.0077
14344TIP3   OH264522   1.123   1.726   2.916  0.3836  0.2914  0.0902
14344TIP3    H164523   1.180   1.799   2.894  0.8133 -0.2527 -0.6645
14344TIP3    H264524   1.172   1.648   2.887 -0.4017 -0.2311  0.1436
14345TIP3   OH264525   2.265   2.259   5.099 -0.2651 -0.1259 -0.3059
14345TIP3    H164526   2.204   2.210   5.045 -0.7231  1.5048 -1.3294
14345TIP3    H264527   2.276   2.342   5.054  2.0517 -0.0239  0.3058
14346TIP3   OH264528   0.244   0.432  42.185  0.3170 -0.5078 -0.2463
14346TIP3    H164529   0.186   0.453  42.258 -2.3110 -1.8883 -1.7911
14346TIP3    H264530   0.257   0.515  42.140 -0.7782 -0.2111 -0.0429
14347TIP3   OH264531   3.257   1.828  37.709  0.4936 -0.0599  0.8183
14347TIP3    H164532   3.166   1.859  37.710  0.4321 -0.0291 -1.4443
14347TIP3    H264533   3.299   1.876  37.780 -1.1575  0.2117  1.6568
14348TIP3   OH264534   2.571   1.667   9.125 -0.7984  0.0523 -0.8963
14348TIP3    H164535   2.583   1.746   9.073 -1.8956  0.9248  0.1155
14348TIP3    H264536   2.478   1.647   9.118 -1.0724  0.4547  1.0428
14349TIP3   OH264537   2.395   2.049  14.628  0.1434  0.0418  0.6361
14349TIP3    H164538   2.436   1.964  14.644 -1.0321 -0.9529 -1.2495
14349TIP3    H264539   2.423   2.072  14.540 -0.1869  1.2352  0.8343
14350TIP3   OH264540   0.553   0.525  44.421  0.2303  0.0429  0.0765
14350TIP3    H164541   0.479   0.465  44.429 -0.2112  0.4897 -0.5548
14350TIP3    H264542   0.600   0.516  44.504 -0.4748 -0.3235  0.4498
14351TIP3   OH264543   0.894   3.983   7.316  0.1049  0.4702  0.4231
14351TIP3    H164544   0.913   3.941   7.232 -1.8509 -0.6157  0.4678
14351TIP3    H264545   0.953   3.941   7.378 -0.7452 -1.1631  0.1735
14352TIP3   OH264546   1.461   2.007  37.003 -0.4711 -0.3050 -0.3835
14352TIP3    H164547   1.414   2.002  36.920 -2.1785  1.9533  0.3678
14352TIP3    H264548   1.394   1.998  37.070  0.8138 -1.5404  0.8290
14353TIP3   OH264549   3.439   0.025  41.000  0.3908  0.4282 -0.2904
14353TIP3    H164550   3.509   0.076  40.960 -0.2764 -0.1247 -2.2822
14353TIP3    H264551   3.358   0.068  40.970 -0.1521 -0.2567  0.1526
14354TIP3   OH264552   1.363   0.300  44.592 -0.3642 -0.2075 -0.7276
14354TIP3    H164553   1.304   0.324  44.520  0.1591  0.6492 -0.8886
14354TIP3    H264554   1.379   0.207  44.579 -1.8477 -0.5106 -0.5478
14355TIP3   OH264555   2.512   1.944  10.330 -0.0605  0.5316  0.0671
14355TIP3    H164556   2.483   1.893  10.255  0.7787 -0.0836  0.1425
14355TIP3    H264557   2.504   1.885  10.405 -0.1345  0.8774  0.3379
14356TIP3   OH264558   2.509   2.890  30.810  0.3545  0.1800  0.1168
14356TIP3    H164559   2.522   2.971  30.762  2.9118 -0.2623 -0.0965
14356TIP3    H264560   2.522   2.821  30.745  2.3910 -0.3975  1.0471
14357TIP3   OH264561   2.744   0.428  24.532 -0.1556  0.2537 -0.3987
14357TIP3    H164562   2.775   0.339  24.517 -1.3009 -0.3363  0.4667
14357TIP3    H264563   2.693   0.421  24.613  1.5764  2.1638  0.9493
14358TIP3   OH264564   2.039   3.864  46.420 -0.4756  0.9164  0.3957
14358TIP3    H164565   2.063   3.791  46.477  0.7567  0.6729 -0.3825
14358TIP3    H264566   1.953   3.841  46.386  0.3606 -0.7744 -0.7386
14359TIP3   OH264567   3.444   1.946   7.396 -0.4491 -0.1941  0.2058
14359TIP3    H164568   3.353   1.954   7.365 -0.4403 -0.3674  0.1308
14359TIP3    H264569   3.486   2.028   7.368 -0.4077 -0.4024 -0.3691
14360TIP3   OH264570   1.139   3.492  45.379 -0.6139  0.2279  0.0488
14360TIP3    H164571   1.102   3.535  45.302 -0.3763  0.6280  0.1560
14360TIP3    H264572   1.207   3.435  45.344 -1.8762 -1.1620 -0.2330
14361TIP3   OH264573   0.375   2.645  10.266  0.0946 -0.0710 -0.6049
14361TIP3    H164574   0.442   2.585  10.298 -0.3643 -0.8541 -1.0698
14361TIP3    H264575   0.420   2.699  10.202  0.6678  0.5276  0.2855
14362TIP3   OH264576   1.533   1.736  43.961  0.0019  0.1762 -0.0570
14362TIP3    H164577   1.482   1.718  43.882  2.0636  1.3940 -1.7387
14362TIP3    H264578   1.527   1.654  44.012 -0.2506 -1.1402 -2.0839
14363TIP3   OH264579   1.614   0.062   6.134 -0.1196 -0.3700 -0.6590
14363TIP3    H164580   1.613   0.124   6.208  2.0826 -0.8402 -0.1516
14363TIP3    H264581   1.593   0.116   6.058 -2.4302  0.1380  0.2522
14364TIP3   OH264582   1.131   0.074  39.098  0.3973 -0.5375 -0.1107
14364TIP3    H164583   1.159   0.164  39.113  0.5422 -0.3877 -1.2260
14364TIP3    H264584   1.058   0.081  39.036  0.4551 -1.1975 -0.2651
14365TIP3   OH264585   0.500   1.318  15.299  0.2506 -0.0606  0.0724
14365TIP3    H164586   0.520   1.240  15.350  0.2835 -0.2199 -0.1790
14365TIP3    H264587   0.542   1.302  15.214  0.4458  0.3279  0.0963
14366TIP3   OH264588   2.108   2.288  43.853  0.0025  0.2459 -0.1807
14366TIP3    H164589   2.052   2.260  43.926 -0.4884  0.3620 -0.5154
14366TIP3    H264590   2.102   2.217  43.789 -1.3922  1.1732 -1.1163
14367TIP3   OH264591   1.439   2.513  14.457  0.5029 -0.0887  0.4054
14367TIP3    H164592   1.505   2.450  14.428  0.8791 -0.3658  1.7693
14367TIP3    H264593   1.465   2.596  14.416  0.1849 -0.7191 -1.1546
14368TIP3   OH264594   3.703   2.691  20.234 -0.3371 -0.2251  1.2734
14368TIP3    H164595   3.798   2.702  20.242 -0.4777  1.8420  0.7843
14368TIP3    H264596   3.690   2.649  20.149  0.1748 -2.1177  2.0823
14369TIP3   OH264597   1.340   4.055  38.974 -0.2514 -0.0198 -0.3787
14369TIP3    H164598   1.280   3.992  39.013 -2.1015  1.2806 -0.9947
14369TIP3    H264599   1.310   4.141  39.005  0.7538  0.7339 -1.3821
14370TIP3   OH264600   3.400   1.841  42.566 -0.3541  0.3072 -0.0585
14370TIP3    H164601   3.443   1.842  42.651 -0.4386 -0.1261 -0.0067
14370TIP3    H264602   3.414   1.929  42.531 -1.1182  0.7947  0.8068
14371TIP3   OH264603   3.881   2.783  35.105 -0.0420 -0.4909 -0.4934
14371TIP3    H164604   3.868   2.877  35.109 -1.8782 -0.6657 -1.1814
14371TIP3    H264605   3.874   2.761  35.012 -2.3103 -1.5540 -0.1543
14372TIP3   OH264606   0.081   3.182  40.884 -0.3016  0.1624 -0.2837
14372TIP3    H164607   0.025   3.208  40.811 -0.3567  1.4688  0.2057
14372TIP3    H264608   0.119   3.264  40.915 -0.4661 -0.3412  1.3014
14373TIP3   OH264609   0.414   0.772  38.590  0.0249 -0.3748 -0.2303
14373TIP3    H164610   0.410   0.780  38.495  3.3235  0.7545 -0.4239
14373TIP3    H264611   0.408   0.678  38.607 -2.0245 -0.5014 -1.3643
14374TIP3   OH264612   1.538   2.404   2.291  0.3511 -0.3861  0.1804
14374TIP3    H164613   1.525   2.492   2.327 -1.3962 -0.8873  0.9082
14374TIP3    H264614   1.484   2.347   2.347 -1.4871 -1.3807 -2.4254
14375TIP3   OH264615   3.839   1.072  13.439  0.2610 -0.0594 -0.3567
14375TIP3    H164616   3.814   0.990  13.397  0.3718  0.1409 -0.8291
14375TIP3    H264617   3.920   1.098  13.395  0.5193  0.0277  0.1629
14376TIP3   OH264618   0.991   1.547  18.131 -0.5157 -0.3843 -0.3624
14376TIP3    H164619   0.942   1.541  18.049  0.3069 -1.6964 -0.7890
14376TIP3    H264620   1.054   1.618  18.117 -0.2337 -0.7433 -0.9565
14377TIP3   OH264621   1.541   0.244  10.689  0.8181 -0.2418 -0.2346
14377TIP3    H164622   1.572   0.159  10.720 -0.7847  0.0933  2.5563
14377TIP3    H264623   1.614   0.304  10.703  0.9886 -0.6247  0.5383
14378TIP3   OH264624   2.476   1.480   3.047 -0.0984 -0.0386  0.3709
14378TIP3    H164625   2.473   1.534   2.968 -0.3754 -0.5402  0.0322
14378TIP3    H264626   2.425   1.402   3.025  2.2455 -1.5645 -0.0006
14379TIP3   OH264627   3.685   1.197  41.894  0.1041  0.2250 -0.6750
14379TIP3    H164628   3.697   1.103  41.881 -0.3318 -0.0639  0.8022
14379TIP3    H264629   3.590   1.207  41.906  0.3037  0.6341  0.6447
14380TIP3   OH264630   3.058   1.086  13.385 -0.1156 -0.4169  0.0149
14380TIP3    H164631   3.013   1.022  13.330 -0.0467 -0.8234  0.4256
14380TIP3    H264632   3.051   1.051  13.473 -0.7940  0.5490  0.3684
14381TIP3   OH264633   3.023   2.896  36.474  0.2035 -0.0841  0.0554
14381TIP3    H164634   3.116   2.881  36.456 -0.0834 -1.1736 -0.6304
14381TIP3    H264635   2.983   2.904  36.387  0.0564  3.4695  0.2875
14382TIP3   OH264636   1.261   0.117  32.213 -0.1460  0.0094 -0.1119
14382TIP3    H164637   1.217   0.185  32.264 -0.2500  1.0910 -1.5789
14382TIP3    H264638   1.317   0.072  32.277 -2.2168 -0.4546  1.5060
14383TIP3   OH264639   2.242   1.738   0.554  0.3700 -0.0601  0.6281
14383TIP3    H164640   2.297   1.750   0.478 -0.5026 -2.4845 -0.5019
14383TIP3    H264641   2.184   1.814   0.554  0.3367 -0.0435 -1.1936
14384TIP3   OH264642   1.527   0.526  31.629  0.0007  0.0436  0.2249
14384TIP3    H164643   1.525   0.488  31.542 -0.7833  0.6096 -0.0190
14384TIP3    H264644   1.567   0.459  31.684 -0.9352 -0.9430 -0.2722
14385TIP3   OH264645   1.760   0.766  43.023 -0.6600  0.0011 -0.1727
14385TIP3    H164646   1.769   0.836  43.088 -0.7424  0.0323 -0.1949
14385TIP3    H264647   1.704   0.701  43.065  0.1159 -0.4536  0.1907
14386TIP3   OH264648   1.181   1.834  35.381  0.7317  0.8639  0.0613
14386TIP3    H164649   1.173   1.866  35.471  0.8563 -1.9055  1.1837
14386TIP3    H264650   1.274   1.811  35.373  0.5414  0.2268 -0.4049
14387TIP3   OH264651   2.094   2.876   1.846 -0.1089 -0.3509  0.2602
14387TIP3    H164652   2.068   2.786   1.864  0.1458 -0.9412 -2.1105
14387TIP3    H264653   2.181   2.884   1.886  0.0763 -1.2950  0.0701
14388TIP3   OH264654   2.891   3.387  41.113 -0.4256  0.2975 -0.0657
14388TIP3    H164655   2.958   3.453  41.094 -0.8311  0.6802 -0.1558
14388TIP3    H264656   2.918   3.311  41.061  0.2120  0.2782  0.2790
14389TIP3   OH264657   3.849   1.898  39.153  0.2873  0.0141  0.1413
14389TIP3    H164658   3.888   1.929  39.235  1.3196  1.0221 -0.6931
14389TIP3    H264659   3.763   1.865  39.179  1.0094 -0.7053  1.7885
14390TIP3   OH264660   0.072   3.522   1.562 -0.5559 -0.6713 -0.0090
14390TIP3    H164661   0.089   3.469   1.640  1.2064 -0.4794 -0.2143
14390TIP3    H264662   0.120   3.478   1.492  1.3119  1.3100 -0.1022
14391TIP3   OH264663   4.106   3.327  13.057 -0.2081  0.4919 -0.0461
14391TIP3    H164664   4.110   3.422  13.064 -0.3878  0.4415  1.0385
14391TIP3    H264665   4.033   3.310  12.998 -1.1728  1.0295  0.9452
14392TIP3   OH264666   3.997   1.789  44.234  0.7000 -0.1709  0.0406
14392TIP3    H164667   3.950   1.786  44.317  2.6198  0.2407  1.2001
14392TIP3    H264668   3.938   1.836  44.175 -1.1702 -1.3949  0.8124
14393TIP3   OH264669   3.352   3.136  39.071 -0.1027  0.3086  0.2920
14393TIP3    H164670   3.369   3.204  39.136  3.0718 -0.9064  0.9392
14393TIP3    H264671   3.278   3.087  39.106 -0.3121  1.4170  1.4862
14394TIP3   OH264672   2.597   1.131  41.586  0.3552  0.1976  0.2834
14394TIP3    H164673   2.684   1.090  41.577  1.0139  1.2080  1.6051
14394TIP3    H264674   2.559   1.127  41.499  0.0477 -3.8804  0.3980
14395TIP3   OH264675   1.504   1.561  10.758 -0.1695  0.0679  0.8387
14395TIP3    H164676   1.566   1.630  10.780 -0.5928  0.4754  0.7896
14395TIP3    H264677   1.556   1.495  10.713 -0.0572  1.1964 -0.8128
14396TIP3   OH264678   2.289   2.778  33.399 -0.1647 -0.3491  0.0516
14396TIP3    H164679   2.276   2.760  33.492  0.4224  0.8724  0.3910
14396TIP3    H264680   2.371   2.735  33.377 -0.8930 -1.6589 -0.2243
14397TIP3   OH264681   1.819   3.166  39.960  0.5770 -0.1566  0.1363
14397TIP3    H164682   1.780   3.144  39.876 -1.3102  0.7228  0.7361
14397TIP3    H264683   1.900   3.115  39.963  1.6358  1.1196 -2.9577
14398TIP3   OH264684   0.019   3.351   8.043 -0.4484  0.4105  0.6606
14398TIP3    H164685  -0.033   3.380   8.118  1.1678  0.4638  1.8148
14398TIP3    H264686   0.090   3.415   8.037 -0.4555  0.3103 -0.8387
14399TIP3   OH264687   3.112   2.440  11.824  0.1118  0.2723 -0.0014
14399TIP3    H164688   3.159   2.508  11.873  1.5050 -0.4206 -0.2997
14399TIP3    H264689   3.167   2.362  11.833 -0.1067 -0.1468 -1.7839
14400TIP3   OH264690   2.673   1.456   2.431 -0.4749  0.1374  0.7018
14400TIP3    H164691   2.634   1.521   2.372 -0.1560 -1.5400 -1.4945
14400TIP3    H264692   2.752   1.426   2.385 -1.1283 -2.4915  1.1211
14401TIP3   OH264693   2.402   3.129  37.372 -0.3640  0.3122 -0.6934
14401TIP3    H164694   2.340   3.173  37.314  0.0272 -1.1711 -2.3142
14401TIP3    H264695   2.489   3.153  37.337  0.0516  1.8569  1.1717
14402TIP3   OH264696   3.004   2.280  40.863 -0.2849 -0.0937  0.0204
14402TIP3    H164697   2.923   2.308  40.820  0.0459 -0.9619 -1.2388
14402TIP3    H264698   3.040   2.360  40.900 -1.2120  0.4835 -0.2812
14403TIP3   OH264699   2.589   1.083  45.858 -0.0580  0.5057  0.1977
14403TIP3    H164700   2.637   1.003  45.878 -2.1965 -1.0110 -0.3244
14403TIP3    H264701   2.550   1.110  45.941 -0.5738  0.1064  0.0912
14404TIP3   OH264702   3.010   1.328   3.840 -0.4895  0.5206  0.0592
14404TIP3    H164703   3.020   1.234   3.827  0.0009  0.6469 -0.5337
14404TIP3    H264704   3.094   1.357   3.876  0.2284  1.0789 -1.9365
14405TIP3   OH264705   1.255   0.525   3.854  0.1230  0.2177  0.2298
14405TIP3    H164706   1.273   0.480   3.772  0.7432  0.3342  0.2936
14405TIP3    H264707   1.271   0.618   3.835 -0.4770  0.3378  0.2828
14406TIP3   OH264708   1.907   1.561  34.329  0.0613  0.1462  0.2027
14406TIP3    H164709   1.965   1.627  34.366  2.0842 -0.3016 -1.9931
14406TIP3    H264710   1.821   1.603  34.328  0.6175  1.4487  2.0019
14407TIP3   OH264711   3.923   2.669  38.603 -0.6176 -0.4063 -0.3524
14407TIP3    H164712   3.844   2.686  38.653 -0.3378  0.0842 -0.0695
14407TIP3    H264713   3.910   2.581  38.568 -0.8000 -0.7848  0.6187
14408TIP3   OH264714   2.141   1.648  10.969  0.2295  0.4457  0.8204
14408TIP3    H164715   2.119   1.732  10.931 -1.3199 -0.5982 -0.7348
14408TIP3    H264716   2.118   1.656  11.062 -0.2327  1.6027  0.6154
14409TIP3   OH264717   3.820   1.889   4.889  0.3250  0.4416 -0.0176
14409TIP3    H164718   3.864   1.849   4.964  1.1402 -0.9456 -1.1885
14409TIP3    H264719   3.873   1.864   4.814 -1.0206  0.9572 -1.1853
14410TIP3   OH264720   3.396   3.161  31.708  0.1160 -0.0759 -0.1886
14410TIP3    H164721   3.458   3.233  31.697  0.2347 -0.1950 -0.3042
14410TIP3    H264722   3.409   3.107  31.630  1.3432 -1.2171  0.7522
14411TIP3   OH264723   3.093   1.562  47.655 -0.4090 -0.2715  0.2111
14411TIP3    H164724   3.051   1.648  47.659 -0.1443 -0.1819  1.5930
14411TIP3    H264725   3.026   1.505  47.619 -1.1610  0.2028  0.8189
14412TIP3   OH264726   2.126   1.168   7.933 -0.6213  0.1096 -0.4135
14412TIP3    H164727   2.077   1.104   7.882 -0.8826  1.4456 -1.9117
14412TIP3    H264728   2.210   1.178   7.887 -0.2744  0.2925  0.2333
14413TIP3   OH264729   4.068   2.889   0.948 -0.5166 -0.2728 -0.2173
14413TIP3    H164730   4.066   2.859   1.039 -2.0840  0.0829 -0.1107
14413TIP3    H264731   4.017   2.823   0.900  0.4245 -0.5369 -0.8800
14414TIP3   OH264732   1.529   3.791  13.677  0.6098 -0.1312 -0.4608
14414TIP3    H164733   1.580   3.866  13.648  1.8466 -1.5334 -2.1463
14414TIP3    H264734   1.588   3.716  13.667  0.0714 -1.1726  2.9586
14415TIP3   OH264735   2.982   2.896   0.176  0.5201 -0.4106  0.0747
14415TIP3    H164736   2.940   2.914   0.261  0.8368 -2.6187  0.7640
14415TIP3    H264737   2.910   2.892   0.114  0.0704 -0.6113  0.5974
14416TIP3   OH264738   3.154   0.732   7.611 -0.6372 -0.7060  0.2187
14416TIP3    H164739   3.070   0.764   7.646 -1.1520  1.0876 -2.3754
14416TIP3    H264740   3.208   0.717   7.689 -1.6506  3.0467  1.8710
14417TIP3   OH264741   3.335   1.248   9.678  0.6413 -0.0917 -0.1805
14417TIP3    H164742   3.330   1.177   9.743 -1.2980 -1.0900 -1.3092
14417TIP3    H264743   3.279   1.218   9.607 -0.8345  2.9064 -0.4249
14418TIP3   OH264744   0.054   2.546  33.913 -0.2932  0.0211 -0.0571
14418TIP3    H164745   0.127   2.579  33.966 -0.1981 -0.5550  0.1861
14418TIP3    H264746   0.072   2.452  33.905  0.9004  0.3842 -2.9902
14419TIP3   OH264747   2.365   0.337  45.380 -0.0744  0.0400 -0.2196
14419TIP3    H164748   2.285   0.388  45.386  0.9311  1.5915  0.6516
14419TIP3    H264749   2.385   0.313  45.471  1.0405  0.6369 -0.2923
14420TIP3   OH264750   2.184   1.239  33.398 -0.0872  0.8456 -0.2370
14420TIP3    H164751   2.104   1.289  33.415 -1.3165 -0.7064 -1.2190
14420TIP3    H264752   2.160   1.177  33.329  1.1224 -1.6565  1.4279
14421TIP3   OH264753   2.832   0.068  43.840 -0.1676  0.2044 -0.0921
14421TIP3    H164754   2.823   0.104  43.752  2.6348 -2.2008 -1.5772
14421TIP3    H264755   2.797  -0.021  43.833  0.6731 -0.2442  1.0044
14422TIP3   OH264756   2.075   3.449   9.553  0.2479  0.1042  0.2015
14422TIP3    H164757   2.027   3.531   9.547  0.4598  0.1794 -0.6120
14422TIP3    H264758   2.151   3.461   9.496 -0.0854 -0.8991 -0.4747
14423TIP3   OH264759   2.090   3.942  44.734 -0.2004 -0.6052  0.3381
14423TIP3    H164760   2.153   3.903  44.795  0.8281  0.7163  0.1500
14423TIP3    H264761   2.115   4.034  44.729 -0.9466 -0.4571 -1.2392
14424TIP3   OH264762   0.568   2.057  47.116 -0.5533  0.2207 -0.3255
14424TIP3    H164763   0.630   2.125  47.143 -0.2152  0.0641 -0.7051
14424TIP3    H264764   0.525   2.030  47.197 -1.3470  1.5301 -0.2843
14425TIP3   OH264765   1.371   2.321  34.372 -0.3783  0.1926  0.5414
14425TIP3    H164766   1.394   2.310  34.280 -0.0333 -0.8722  0.7413
14425TIP3    H264767   1.297   2.261  34.385  2.3273 -3.1994  1.9646
14426TIP3   OH264768   2.853   1.448  15.241 -0.0174  0.3570 -0.8230
14426TIP3    H164769   2.940   1.407  15.238 -0.5162 -0.6344 -2.4435
14426TIP3    H264770   2.798   1.384  15.285 -0.0244  0.8694 -0.0565
14427TIP3   OH264771   0.144   0.340   3.445  0.2493  0.0863 -0.3414
14427TIP3    H164772   0.148   0.269   3.381 -0.4361  0.4487 -0.8034
14427TIP3    H264773   0.225   0.331   3.496  0.6332 -0.4351 -1.0189
14428TIP3   OH264774   1.591   1.128  15.257  0.6273 -0.4699  0.1192
14428TIP3    H164775   1.528   1.061  15.230 -0.7500  0.5407  0.6891
14428TIP3    H264776   1.654   1.081  15.312 -0.8869 -1.1569  1.3573
14429TIP3   OH264777   2.894   0.409  31.205  0.0982 -0.0812 -0.8171
14429TIP3    H164778   2.908   0.329  31.155 -1.0509 -0.1576 -1.0510
14429TIP3    H264779   2.948   0.475  31.161  0.8021 -0.6466 -0.8143
14430TIP3   OH264780   0.115   1.753  37.136 -0.4661  0.6934  0.6750
14430TIP3    H164781   0.197   1.748  37.087  0.1461  2.7440  1.3511
14430TIP3    H264782   0.048   1.772  37.070  0.4277  3.9808  0.5163
14431TIP3   OH264783   2.914   1.907   6.909 -0.2252 -0.3294 -0.7149
14431TIP3    H164784   2.916   1.830   6.853 -0.4278 -0.3136 -0.7429
14431TIP3    H264785   2.893   1.873   6.996 -2.2477 -0.1129 -1.0607
14432TIP3   OH264786   1.517   1.948  17.023  0.0255 -0.0675 -0.0726
14432TIP3    H164787   1.427   1.925  17.000 -0.1916 -1.5614  2.0669
14432TIP3    H264788   1.509   2.030  17.072 -0.5765 -1.5631  2.5162
14433TIP3   OH264789   2.603   3.473  13.413 -0.4836  0.0037 -0.6611
14433TIP3    H164790   2.566   3.556  13.382  0.6609  0.8350  0.0857
14433TIP3    H264791   2.683   3.462  13.362 -0.5204 -0.5397 -0.6062
14434TIP3   OH264792   2.516   0.523   8.968 -0.1807 -0.2076 -0.1548
14434TIP3    H164793   2.607   0.515   8.999  0.2219 -0.9163 -1.4287
14434TIP3    H264794   2.502   0.617   8.958  1.1374 -0.1457 -1.8795
14435TIP3   OH264795   0.289   1.768   1.198 -0.7945 -0.9687  0.2199
14435TIP3    H164796   0.296   1.676   1.174 -0.5907 -0.6469 -0.9910
14435TIP3    H264797   0.275   1.814   1.116  1.2448  0.3189  0.5083
14436TIP3   OH264798   2.098   0.370  35.616  0.3502  0.0237  0.4364
14436TIP3    H164799   2.090   0.315  35.694 -2.3570 -0.9513 -0.4229
14436TIP3    H264800   2.059   0.454  35.642  1.4259  0.4483  0.7375
14437TIP3   OH264801   1.849   1.987   0.260 -0.0230 -0.1195  0.1028
14437TIP3    H164802   1.868   1.921   0.194 -1.7364  0.1080 -0.6865
14437TIP3    H264803   1.799   1.941   0.327 -2.4931  0.5371 -1.1336
14438TIP3   OH264804   0.827   2.238  37.786 -0.0815  0.8246  0.4317
14438TIP3    H164805   0.884   2.204  37.855 -0.5976 -0.4436  0.2532
14438TIP3    H264806   0.875   2.313  37.750  0.2311  1.4693  2.1045
14439TIP3   OH264807   0.919   3.564   3.957 -0.5413  0.3140 -0.8707
14439TIP3    H164808   0.831   3.587   3.984  0.0097  1.7356 -0.1716
14439TIP3    H264809   0.911   3.476   3.922 -1.9468 -0.2615  0.7344
14440TIP3   OH264810   0.911   3.902  45.379  0.1774  0.4659  0.4195
14440TIP3    H164811   0.982   3.962  45.402 -0.8667  1.5015  1.0952
14440TIP3    H264812   0.914   3.896  45.284  0.5226  1.3223  0.3694
14441TIP3   OH264813   1.796   1.192  41.047 -0.6094 -0.1842  0.0920
14441TIP3    H164814   1.777   1.282  41.072 -0.1794 -0.0569 -0.0312
14441TIP3    H264815   1.758   1.181  40.960  1.1314  0.5229 -0.8009
14442TIP3   OH264816   3.610   3.215  12.768 -0.0957  0.2061 -0.1202
14442TIP3    H164817   3.535   3.270  12.744 -0.7718 -0.5634  0.1905
14442TIP3    H264818   3.677   3.235  12.702 -0.8827  0.2594 -0.9199
14443TIP3   OH264819   0.371   1.975  40.253  0.3800  0.0661  0.5369
14443TIP3    H164820   0.393   2.056  40.298  1.8598  0.6456 -1.1238
14443TIP3    H264821   0.444   1.916  40.273 -0.9337 -1.0857  2.1622
14444TIP3   OH264822   2.732   3.724  39.297 -0.9545 -0.6995  0.0661
14444TIP3    H164823   2.722   3.711  39.391 -0.6212  0.3380  0.2575
14444TIP3    H264824   2.672   3.795  39.275 -0.9618 -0.8686 -0.4939
14445TIP3   OH264825   2.149   0.380   6.970  0.1605  0.3977  0.0407
14445TIP3    H164826   2.202   0.433   6.910  1.0707  1.8078  1.9666
14445TIP3    H264827   2.213   0.325   7.016  0.0781  2.0978  2.3771
14446TIP3   OH264828   2.604   1.086  33.611 -0.0589 -0.2610 -0.0463
14446TIP3    H164829   2.532   1.071  33.672  0.0129  0.7957  0.3188
14446TIP3    H264830   2.570   1.152  33.551  0.5002  0.0225 -0.0569
14447TIP3   OH264831   2.411   4.057  43.629 -0.4966 -0.2413 -0.5396
14447TIP3    H164832   2.357   4.079  43.705  1.2309 -0.5173  0.8403
14447TIP3    H264833   2.420   3.962  43.632 -0.9360 -0.3332 -1.5057
14448TIP3   OH264834   3.189   2.861  34.353  0.3499  0.5140 -0.2214
14448TIP3    H164835   3.223   2.936  34.401 -0.4537  0.5483  0.3314
14448TIP3    H264836   3.109   2.893  34.311 -0.8212 -0.3790  1.2264
14449TIP3   OH264837   0.099   1.315  14.831 -0.4880  0.3469  0.8516
14449TIP3    H164838   0.084   1.257  14.756  0.9057 -0.4233  1.1331
14449TIP3    H264839   0.062   1.399  14.805 -2.2840 -0.5643  0.2983
14450TIP3   OH264840   2.240   2.458   6.595  0.3567 -0.7435  0.7746
14450TIP3    H164841   2.305   2.392   6.571 -0.3197 -1.6207  1.2822
14450TIP3    H264842   2.284   2.542   6.580  1.3670 -1.3080  0.4853
14451TIP3   OH264843   3.947   0.071  32.462  0.1415  0.5106  0.8518
14451TIP3    H164844   3.869   0.113  32.426 -0.2475 -2.6632 -2.6484
14451TIP3    H264845   3.916   0.028  32.541  0.1086  4.6203  3.3536
14452TIP3   OH264846   0.956   3.866  35.579 -0.5652 -0.1349 -0.2578
14452TIP3    H164847   0.956   3.783  35.533 -1.6697  0.3929 -1.2694
14452TIP3    H264848   1.023   3.918  35.535 -0.8642 -0.0007 -0.5513
14453TIP3   OH264849   1.047   0.786  34.294 -0.1317 -0.0909 -0.6544
14453TIP3    H164850   1.008   0.802  34.379 -0.3480 -2.4447 -0.2391
14453TIP3    H264851   1.131   0.743  34.313 -0.0450 -0.3778 -1.5954
14454TIP3   OH264852   3.730   4.106  14.983 -0.1229 -0.7857 -0.2902
14454TIP3    H164853   3.781   4.126  15.062  1.4641 -1.3602 -1.1328
14454TIP3    H264854   3.677   4.030  15.008  0.2679 -0.8814  0.2610
14455TIP3   OH264855   2.151   3.087  33.608 -0.0385 -0.0069  0.4065
14455TIP3    H164856   2.090   3.120  33.674 -0.0364  0.3887  0.2067
14455TIP3    H264857   2.172   2.998  33.638  1.1485  0.6798  1.7822
14456TIP3   OH264858   2.930   4.040   2.312 -0.0097  0.6923  0.2558
14456TIP3    H164859   2.878   3.993   2.377  0.5608  0.3415  0.4659
14456TIP3    H264860   3.015   4.053   2.354 -0.2737  2.3103  0.3743
14457TIP3   OH264861   1.051   2.716   2.114 -0.4411 -0.0581 -0.6793
14457TIP3    H164862   1.042   2.811   2.122 -0.4430 -0.1031 -0.1197
14457TIP3    H264863   1.025   2.697   2.024  1.5682  0.7123 -1.4562
14458TIP3   OH264864   3.610   1.758  47.189  0.6164  0.8347 -0.0286
14458TIP3    H164865   3.648   1.825  47.246  1.3755  0.5160 -0.1367
14458TIP3    H264866   3.627   1.676  47.235  0.7994  0.6158 -0.4832
14459TIP3   OH264867   3.512   2.181  10.090  0.1932  0.1857 -0.2574
14459TIP3    H164868   3.555   2.106  10.048  0.4582  1.1123 -1.7081
14459TIP3    H264869   3.562   2.195  10.171  0.1890 -1.1292 -0.0044
14460TIP3   OH264870   3.685   1.224  35.619  0.7395  0.0770  0.2606
14460TIP3    H164871   3.679   1.312  35.656  1.4208 -0.4358  1.6575
14460TIP3    H264872   3.751   1.232  35.550  0.9287  0.6156  0.4989
14461TIP3   OH264873   2.052   1.820  14.185  0.5718  0.2860  0.1907
14461TIP3    H164874   2.022   1.839  14.274 -0.2583 -0.6374  0.1288
14461TIP3    H264875   2.140   1.786  14.197  0.3762 -0.0631  0.6946
14462TIP3   OH264876   2.242   3.775  44.229 -0.2515 -0.4117  0.0231
14462TIP3    H164877   2.329   3.812  44.248 -0.1021 -1.1390  0.8138
14462TIP3    H264878   2.232   3.705  44.293 -1.9714  0.5086  0.8336
14463TIP3   OH264879   1.340   1.037   9.812 -0.2296  0.2816 -0.2701
14463TIP3    H164880   1.391   0.975   9.761 -1.5533  0.0994 -1.4341
14463TIP3    H264881   1.317   1.106   9.749 -3.2434 -0.7363 -0.4060
14464TIP3   OH264882   1.275   1.674   0.104  0.5265  0.0729  0.3994
14464TIP3    H164883   1.211   1.605   0.091  1.0914 -0.3650 -0.1515
14464TIP3    H264884   1.354   1.628   0.135  0.7393  0.5347  0.5542
14465TIP3   OH264885   1.857   1.991   1.560 -0.0381  0.7033  0.9722
14465TIP3    H164886   1.876   2.064   1.620 -0.7044  2.4317 -0.8073
14465TIP3    H264887   1.936   1.981   1.508 -1.1397  2.7745 -1.2991
14466TIP3   OH264888   3.992   0.225  45.338 -0.0402 -0.2585  0.3194
14466TIP3    H164889   3.950   0.230  45.424  1.1980 -1.8004  1.0617
14466TIP3    H264890   3.948   0.153  45.294 -0.4568  0.3259 -0.2293
14467TIP3   OH264891   4.025   1.952  47.604 -0.5387  0.2834 -0.4403
14467TIP3    H164892   3.969   1.926  47.531  1.7084 -0.7057 -1.9372
14467TIP3    H264893   4.064   1.870  47.635 -0.4551  0.8439  1.0435
14468TIP3   OH264894   0.905   2.600  33.187  0.1819 -0.2310  0.0015
14468TIP3    H164895   0.817   2.629  33.209  0.8071  0.3499  1.9296
14468TIP3    H264896   0.913   2.514  33.228  0.2011 -0.7175 -0.9982
14469TIP3   OH264897   3.860   0.800  15.136 -0.0055  0.2231  0.1173
14469TIP3    H164898   3.801   0.824  15.065  0.2882 -0.1123 -0.2517
14469TIP3    H264899   3.804   0.762  15.203 -0.3349  0.9347  0.2431
14470TIP3   OH264900   1.252   2.616  39.956 -0.1784  0.5197  0.2600
14470TIP3    H164901   1.169   2.664  39.963  0.1521  1.1399  0.0135
14470TIP3    H264902   1.225   2.526  39.937 -0.8070  0.6149  0.6572
14471TIP3   OH264903   3.900   0.582   3.787 -0.3544 -0.0107  0.5849
14471TIP3    H164904   3.871   0.660   3.739 -1.2029 -0.1763  0.8299
14471TIP3    H264905   3.823   0.527   3.794  0.2425 -0.8982  0.4006
14472TIP3   OH264906   1.351   1.236  34.687 -0.5154  0.6017  0.0715
14472TIP3    H164907   1.386   1.248  34.776 -1.8130  0.7656  0.5954
14472TIP3    H264908   1.358   1.323  34.647  1.3111  0.2304 -0.4924
14473TIP3   OH264909   2.565   3.603  47.038 -0.1236  0.3691  0.0847
14473TIP3    H164910   2.528   3.665  46.976  0.3489  1.7129  1.0887
14473TIP3    H264911   2.659   3.603  47.020 -0.4119 -2.7825 -2.2362
14474TIP3   OH264912   0.609   3.691  42.898 -0.3532  0.4849  0.4297
14474TIP3    H164913   0.656   3.666  42.818  1.2805  1.6930  0.9541
14474TIP3    H264914   0.629   3.621  42.960 -3.3843 -1.6251 -0.7223
14475TIP3   OH264915   1.172   3.411   4.005  0.7147 -0.0452  0.0317
14475TIP3    H164916   1.190   3.446   4.093 -0.0322 -0.2060  0.2514
14475TIP3    H264917   1.110   3.473   3.967  1.2280  0.1614 -0.4849
14476TIP3   OH264918   0.373   3.976  40.490  0.4886 -0.2851 -0.8472
14476TIP3    H164919   0.290   4.023  40.492  1.1512  0.9964 -1.7982
14476TIP3    H264920   0.358   3.898  40.543 -0.7589  0.8321  0.5438
14477TIP3   OH264921   0.964   1.743  40.698 -0.4663 -0.2749 -0.3089
14477TIP3    H164922   1.021   1.753  40.774 -1.1480 -0.6830  0.2723
14477TIP3    H264923   0.944   1.649  40.696 -0.0035 -0.3628 -1.3314
14478TIP3   OH264924   2.098   2.961   7.151 -0.0797 -0.0803  0.4524
14478TIP3    H164925   2.103   3.056   7.153  1.5149 -0.1611  1.8043
14478TIP3    H264926   2.141   2.937   7.069 -0.3698  0.3463  0.1707
14479TIP3   OH264927   3.982   2.750   9.311 -0.0373  0.3200  0.2893
14479TIP3    H164928   3.893   2.719   9.324  0.3575 -0.3929  1.3606
14479TIP3    H264929   3.975   2.845   9.315 -0.9061  0.3161 -0.7473
14480TIP3   OH264930   2.213   2.117  17.527  0.0001 -0.2698  0.1674
14480TIP3    H164931   2.189   2.108  17.435  1.4981  1.4456 -0.4454
14480TIP3    H264932   2.188   2.207  17.550  0.1997 -0.4769  1.2651
14481TIP3   OH264933   2.559   1.834  22.010 -0.3025 -0.7702  1.0455
14481TIP3    H164934   2.501   1.892  21.961  0.7195 -0.5797  0.0240
14481TIP3    H264935   2.630   1.890  22.041  0.7528 -1.4659 -0.0427
14482TIP3   OH264936   3.356   1.244  45.341 -0.2674  0.1595 -0.2652
14482TIP3    H164937   3.422   1.221  45.276 -0.7245 -1.4114 -0.2057
14482TIP3    H264938   3.283   1.278  45.290  0.3013  1.2562 -0.3758
14483TIP3   OH264939   3.006   1.279  45.946  0.2979  0.3159  0.0877
14483TIP3    H164940   2.939   1.233  45.896  0.7446  0.0704 -0.2922
14483TIP3    H264941   2.960   1.311  46.024 -0.1592 -0.2364  0.0532
14484TIP3   OH264942   2.373   2.539  36.324 -0.0698 -0.2359 -0.1133
14484TIP3    H164943   2.454   2.584  36.349 -0.0863  0.0183 -0.5052
14484TIP3    H264944   2.385   2.518  36.231  0.4358 -2.1282  0.3479
14485TIP3   OH264945   0.743   3.817  47.446 -0.6372 -0.0237  0.6123
14485TIP3    H164946   0.783   3.897  47.413  0.0464  0.0287  1.5231
14485TIP3    H264947   0.656   3.843  47.474 -0.8729  0.1286 -0.2416
14486TIP3   OH264948   0.574   0.327  14.322 -0.3060 -0.2987  0.5532
14486TIP3    H164949   0.647   0.265  14.322  0.3029  0.3766  1.9633
14486TIP3    H264950   0.556   0.343  14.230  2.0168  0.2914  0.1361
14487TIP3   OH264951   0.958   2.022  46.055  0.3929 -0.0736 -0.6973
14487TIP3    H164952   1.007   1.941  46.040  0.8984  0.0640  0.1537
14487TIP3    H264953   0.921   2.011  46.143  0.5919  0.6807 -0.5174
14488TIP3   OH264954   1.146   2.440   8.985  0.6319 -0.6033 -1.1867
14488TIP3    H164955   1.180   2.468   8.900  1.2446  1.1614 -0.4154
14488TIP3    H264956   1.223   2.430   9.040  0.2887 -2.3204 -0.9607
14489TIP3   OH264957   1.898   0.932  15.699 -0.2085  0.4138 -0.4443
14489TIP3    H164958   1.893   0.851  15.750  2.0324  0.9010  0.6948
14489TIP3    H264959   1.915   1.000  15.764  0.0546  1.4823 -1.5920
14490TIP3   OH264960   0.741   2.505  35.234  0.1766 -0.0154 -0.8150
14490TIP3    H164961   0.770   2.525  35.145  1.7607  0.6259 -0.2022
14490TIP3    H264962   0.815   2.530  35.289 -0.3167 -1.4798  0.5966
14491TIP3   OH264963   2.543   2.584  46.158  0.5630 -0.6640  0.3047
14491TIP3    H164964   2.515   2.555  46.245  1.0090 -2.3237 -0.0656
14491TIP3    H264965   2.630   2.547  46.148  0.8713  0.2646 -0.5095
14492TIP3   OH264966   3.360   2.276  47.009  0.1460 -0.1596 -0.1304
14492TIP3    H164967   3.389   2.364  47.035  0.1329 -0.3644  0.5705
14492TIP3    H264968   3.435   2.220  47.025  0.5795 -0.0904 -1.7387
14493TIP3   OH264969   2.833   3.574  34.234  0.0731 -0.5511 -0.6712
14493TIP3    H164970   2.761   3.559  34.296  0.1762 -0.9927 -0.6534
14493TIP3    H264971   2.885   3.644  34.274  0.6647 -1.4690  0.2156
14494TIP3   OH264972   2.114   3.454  46.950  0.2808  0.2725 -0.5423
14494TIP3    H164973   2.117   3.434  46.856 -0.4976  2.1578 -1.0287
14494TIP3    H264974   2.205   3.464  46.976  0.5504 -1.2260 -0.8515
14495TIP3   OH264975   2.815   0.709  38.064  0.1121 -0.0684 -0.1673
14495TIP3    H164976   2.829   0.633  38.007 -1.3701 -0.3257 -0.2342
14495TIP3    H264977   2.722   0.705  38.087  0.1444  1.3843  0.3345
14496TIP3   OH264978   2.010   0.902  11.582  0.4203  0.9834 -0.0550
14496TIP3    H164979   1.985   0.867  11.667 -0.5110  0.2449 -0.6159
14496TIP3    H264980   1.944   0.968  11.563  2.0514  3.0304  0.9102
14497TIP3   OH264981   1.681   3.788   5.527  0.2650 -0.3993 -0.2347
14497TIP3    H164982   1.603   3.764   5.577 -0.8652 -1.7625 -2.4897
14497TIP3    H264983   1.743   3.718   5.547  0.1608 -0.4456 -0.0635
14498TIP3   OH264984   2.291   2.101  33.260 -0.0343  0.4381 -0.8961
14498TIP3    H164985   2.330   2.021  33.225  1.7957  1.5001 -1.4091
14498TIP3    H264986   2.205   2.106  33.217  0.4065 -0.5001 -1.9551
14499TIP3   OH264987   0.929   0.301  38.647 -0.4284  0.3968 -0.3382
14499TIP3    H164988   0.877   0.297  38.567 -1.5535 -0.6908  0.4111
14499TIP3    H264989   0.894   0.377  38.694 -1.7383 -0.6004  0.3818
14500TIP3   OH264990   0.448   0.702   9.170 -0.6181 -0.4721 -0.8134
14500TIP3    H164991   0.366   0.748   9.187  0.8475  2.0493  0.0451
14500TIP3    H264992   0.468   0.722   9.078  0.0902  0.8288 -0.4001
14501TIP3   OH264993   3.533   3.535  31.251  0.4682 -0.3182  0.2068
14501TIP3    H164994   3.523   3.462  31.190  0.5669  0.6193 -0.9642
14501TIP3    H264995   3.443   3.557  31.276  0.1440  1.2593 -2.0442
14502TIP3   OH264996   2.449   1.392  10.247  0.2622  0.0902 -0.3799
14502TIP3    H164997   2.377   1.447  10.279  0.0809 -0.9355  1.0843
14502TIP3    H264998   2.408   1.333  10.184  0.1056  0.4683 -0.6336
14503TIP3   OH264999   0.406   1.416   4.670 -0.5241 -0.2513  0.1409
14503TIP3    H165000   0.375   1.473   4.600  0.1002 -0.9689 -0.7445
14503TIP3    H265001   0.476   1.365   4.630 -0.3790 -0.9143  1.2035
14504TIP3   OH265002   0.551   3.020   6.797 -0.0572 -0.2737 -0.2854
14504TIP3    H165003   0.480   3.070   6.756 -0.4838 -0.9768 -0.4090
14504TIP3    H265004   0.578   3.073   6.872 -0.1619  0.3894 -0.7098
14505TIP3   OH265005   2.211   2.000   5.870  0.0393  0.1624  0.1074
14505TIP3    H165006   2.129   2.032   5.907 -0.6648 -0.9621 -0.3997
14505TIP3    H265007   2.218   1.910   5.902 -0.1917 -0.5815 -1.7957
14506TIP3   OH265008   0.222   2.112  31.795 -0.0685 -0.1914  0.0551
14506TIP3    H165009   0.238   2.204  31.811 -0.2586  0.1140 -1.3973
14506TIP3    H265010   0.303   2.068  31.820 -0.3200  0.2121  1.7420
14507TIP3   OH265011   0.717   1.710  17.008  0.1084 -0.1102  0.4144
14507TIP3    H165012   0.718   1.629  17.058  0.4336  0.0764  0.7138
14507TIP3    H265013   0.654   1.766  17.054 -0.8708 -0.5450 -0.3680
14508TIP3   OH265014   1.311   0.470  13.910 -0.1212  0.6576 -0.7023
14508TIP3    H165015   1.348   0.548  13.869  0.2164  1.1339  0.4571
14508TIP3    H265016   1.252   0.504  13.977  0.1566 -0.0839 -0.0738
14509TIP3   OH265017   3.481   2.404  38.808 -0.1553 -0.4050  0.5021
14509TIP3    H165018   3.481   2.451  38.891  1.9540 -1.0462  0.9221
14509TIP3    H265019   3.462   2.313  38.832  1.2955 -0.7523  0.4399
14510TIP3   OH265020   2.934   3.218  15.499  0.2015  0.1052  0.3002
14510TIP3    H165021   3.004   3.155  15.519  1.6723  2.2023  2.3512
14510TIP3    H265022   2.853   3.167  15.505  1.3765 -1.7959  0.8445
14511TIP3   OH265023   2.472   2.589  20.905 -0.1272 -0.4491 -0.0914
14511TIP3    H165024   2.427   2.585  20.821 -0.7652 -0.5058  0.2458
14511TIP3    H265025   2.559   2.552  20.888  0.2092  0.7088 -1.0122
14512TIP3   OH265026   1.920   2.186  34.991  0.1438  0.3868  0.0207
14512TIP3    H165027   1.936   2.123  35.060 -1.3319  2.1349  2.0974
14512TIP3    H265028   1.859   2.142  34.931  0.7011 -0.8159  0.3206
14513TIP3   OH265029   0.075   0.959   3.835 -0.0216  0.1105 -0.1778
14513TIP3    H165030   0.001   0.978   3.779 -1.1931 -1.2732  0.8303
14513TIP3    H265031   0.056   1.005   3.917  1.3661  1.6016 -0.6278
14514TIP3   OH265032   2.226   0.865  12.846 -0.1760 -0.2950  0.2510
14514TIP3    H165033   2.163   0.831  12.781 -0.8029  0.4412  0.4549
14514TIP3    H265034   2.192   0.835  12.930 -0.7712  0.8275  0.4404
14515TIP3   OH265035   2.937   2.088   3.009  0.1111 -0.2946 -0.4882
14515TIP3    H165036   2.901   2.124   2.928 -1.1124  1.0886  0.5952
14515TIP3    H265037   2.976   2.004   2.984  0.7283  0.5844 -2.6724
14516TIP3   OH265038   2.032   2.536  39.492  0.6083  0.1052 -0.2343
14516TIP3    H165039   2.062   2.626  39.498  2.1073 -0.3259 -0.8314
14516TIP3    H265040   1.954   2.533  39.547 -1.5774  2.5831 -2.8537
14517TIP3   OH265041   0.930   3.870   2.239  0.5424 -0.3683 -0.2788
14517TIP3    H165042   1.015   3.892   2.199  1.2769 -1.6601  0.4974
14517TIP3    H265043   0.874   3.945   2.218  1.9875  0.7181 -0.4483
14518TIP3   OH265044   1.014   3.992  36.284 -0.0402  0.6728  0.8153
14518TIP3    H165045   0.920   3.978  36.293 -0.2602  2.5225  2.0157
14518TIP3    H265046   1.026   4.014  36.192 -0.6223 -0.4175  0.4550
14519TIP3   OH265047   0.346   0.376  39.399  0.0587  0.1953 -0.0706
14519TIP3    H165048   0.286   0.389  39.325 -0.7686 -1.4571  0.2735
14519TIP3    H265049   0.385   0.291  39.383  1.2656  0.6224  0.4759
14520TIP3   OH265050   0.531   3.774  34.991 -0.2170  0.3504 -0.2442
14520TIP3    H165051   0.547   3.723  35.070 -2.9270  0.1869  0.3000
14520TIP3    H265052   0.534   3.865  35.020  2.5257  0.5011 -0.7905
14521TIP3   OH265053   3.138   0.031  43.678 -0.0266  0.5963 -0.1813
14521TIP3    H165054   3.133  -0.034  43.749 -1.2003  0.2555 -0.5443
14521TIP3    H265055   3.063   0.010  43.622  2.2815 -0.8161 -2.9777
14522TIP3   OH265056   0.210   1.406  38.964 -0.1393  0.5314  0.5437
14522TIP3    H165057   0.163   1.396  38.881 -0.0966  0.9077  0.4737
14522TIP3    H265058   0.147   1.378  39.031 -0.9049  2.1771  0.5504
14523TIP3   OH265059   0.768   1.370   2.800  0.0115  0.2122 -0.5634
14523TIP3    H165060   0.737   1.357   2.889 -0.6455  1.4180 -0.6057
14523TIP3    H265061   0.863   1.379   2.809  0.2021 -1.6872 -0.2378
14524TIP3   OH265062   1.241   0.503  10.626 -0.0073  0.0370 -0.4729
14524TIP3    H165063   1.246   0.504  10.530  0.2307  0.4115 -0.4565
14524TIP3    H265064   1.275   0.417  10.651 -1.5450 -0.7024 -0.8033
14525TIP3   OH265065   3.199   2.153  40.673 -0.7016  0.1273  0.7323
14525TIP3    H165066   3.117   2.182  40.713 -1.9369 -0.9715 -0.8574
14525TIP3    H265067   3.171   2.096  40.601  1.4089  1.0541 -0.9213
14526TIP3   OH265068   3.293   0.813   9.878  0.9496  0.1814  0.6564
14526TIP3    H165069   3.249   0.791   9.796 -1.0109  0.5625  1.5490
14526TIP3    H265070   3.343   0.734   9.900  1.3913  0.0267 -0.8064
14527TIP3   OH265071   0.663   1.517  31.655  0.1791  0.1708 -0.5416
14527TIP3    H165072   0.757   1.512  31.640  0.2674  0.5116 -0.1256
14527TIP3    H265073   0.654   1.578  31.729 -0.2421 -1.2098  0.5982
14528TIP3   OH265074   3.600   2.589  45.951 -0.4793  0.3053  0.3456
14528TIP3    H165075   3.510   2.555  45.947 -0.5948  0.6247  0.1687
14528TIP3    H265076   3.597   2.656  46.020 -0.3030  0.1036  0.5505
14529TIP3   OH265077   1.932   3.457  32.368  0.3243  0.0528 -0.0554
14529TIP3    H165078   1.983   3.527  32.328  0.0514 -0.2045 -0.8684
14529TIP3    H265079   1.865   3.503  32.418  1.0459  0.3836  0.6279
14530TIP3   OH265080   2.610   0.754  42.895  0.4132  0.0494  0.2417
14530TIP3    H165081   2.591   0.668  42.858 -0.5858  1.1287 -1.9254
14530TIP3    H265082   2.538   0.771  42.955  0.2758 -0.3677  0.2006
14531TIP3   OH265083   1.340   3.845  40.208  0.1008 -0.4575 -0.1908
14531TIP3    H165084   1.302   3.867  40.293  1.3251  1.2318 -0.0370
14531TIP3    H265085   1.409   3.910  40.195 -2.2186  1.6465 -3.9934
14532TIP3   OH265086   1.242   3.878  40.460 -0.0750 -0.5023 -0.1200
14532TIP3    H165087   1.201   3.792  40.456  0.1636 -0.5958 -0.6135
14532TIP3    H265088   1.170   3.940  40.447  0.2126 -0.7058 -3.7214
14533TIP3   OH265089   2.573   1.705  44.520  0.0248 -0.1752  0.5885
14533TIP3    H165090   2.629   1.768  44.475  1.4384  0.0080  2.4964
14533TIP3    H265091   2.624   1.676  44.596 -1.9188 -1.0562  1.6520
14534TIP3   OH265092   3.019   0.420  34.941  0.0982  0.2222 -0.6160
14534TIP3    H165093   3.074   0.343  34.932 -0.6493 -0.3961 -0.0391
14534TIP3    H265094   2.953   0.396  35.007 -0.3069  1.2552 -0.6080
14535TIP3   OH265095   3.410   0.731  43.437 -0.0109 -0.1265 -0.5838
14535TIP3    H165096   3.410   0.650  43.488  0.1196  0.5986  0.5803
14535TIP3    H265097   3.342   0.785  43.477 -0.2629  0.2583 -1.5006
14536TIP3   OH265098   1.338   3.220  39.321 -0.3595 -0.0764 -0.5033
14536TIP3    H165099   1.351   3.299  39.374 -1.7305  0.6125 -1.1439
14536TIP3    H265100   1.417   3.168  39.336  0.5529  1.3954 -0.0295
14537TIP3   OH265101   0.317   3.806  27.623  0.1750 -0.1452 -0.1569
14537TIP3    H165102   0.346   3.839  27.537 -0.1454  1.7560  0.4145
14537TIP3    H265103   0.320   3.883  27.680  0.6330 -1.4226  1.6255
14538TIP3   OH265104   1.712   3.653  15.783  0.6870  0.0732  0.6196
14538TIP3    H165105   1.734   3.693  15.698  0.7400  0.9201  1.0176
14538TIP3    H265106   1.708   3.559  15.765 -0.6623  0.3342 -0.6243
14539TIP3   OH265107   0.772   3.695  29.486 -0.2932 -0.4871 -0.1057
14539TIP3    H165108   0.788   3.775  29.436 -2.1395  0.5570  0.8734
14539TIP3    H265109   0.815   3.711  29.570 -1.0654 -0.3212  0.2602
14540TIP3   OH265110   3.773   3.502  42.375  0.1766  0.3243 -0.5862
14540TIP3    H165111   3.717   3.425  42.374 -0.3806  0.7299 -0.7228
14540TIP3    H265112   3.854   3.472  42.417 -0.3472 -0.1259  0.1240
14541TIP3   OH265113   2.663   0.171  33.081 -0.1377 -0.7241 -0.3576
14541TIP3    H165114   2.709   0.158  32.998  0.0026 -2.3313 -0.0518
14541TIP3    H265115   2.600   0.099  33.085 -0.0004 -0.7845  1.0191
14542TIP3   OH265116   2.142   1.042  37.424  0.1815 -0.0973  0.0792
14542TIP3    H165117   2.108   1.008  37.341  1.7287  0.5582 -0.8681
14542TIP3    H265118   2.095   0.993  37.492 -0.8016 -0.9595 -1.1877
14543TIP3   OH265119   0.283   0.139   0.365  0.0951 -0.1227  0.0245
14543TIP3    H165120   0.290   0.210   0.429 -0.8046 -0.3441  0.3908
14543TIP3    H265121   0.194   0.148   0.330 -0.7342 -2.1344  1.4009
14544TIP3   OH265122   3.658   0.453  42.801 -0.3370 -0.1308  0.0798
14544TIP3    H165123   3.701   0.512  42.863  0.2519  1.2703 -1.5787
14544TIP3    H265124   3.708   0.372  42.807  0.8521  0.5854  0.1707
14545TIP3   OH265125   2.401   2.549   9.425 -0.7549  0.8385 -0.9709
14545TIP3    H165126   2.459   2.593   9.488 -0.5832 -0.4311 -0.2079
14545TIP3    H265127   2.362   2.621   9.375  1.6713  1.7257 -1.7182
14546TIP3   OH265128   0.568   0.864   8.392  0.7135 -0.1024 -0.5931
14546TIP3    H165129   0.638   0.884   8.453  2.0204  0.5686 -2.2192
14546TIP3    H265130   0.609   0.870   8.305 -1.2780  0.0135 -1.6001
14547TIP3   OH265131   0.197   3.948  37.262  0.2183  0.0051  0.5604
14547TIP3    H165132   0.195   3.909  37.174  4.9326 -1.6717  0.8892
14547TIP3    H265133   0.170   3.877  37.320  2.0150 -0.6432  0.6805
14548TIP3   OH265134   3.058   1.103  39.121 -0.5184  0.1657  0.2283
14548TIP3    H165135   3.013   1.034  39.169  0.4235  0.1875  1.1916
14548TIP3    H265136   3.014   1.184  39.147 -0.3975  0.1161  0.5893
14549TIP3   OH265137   0.643   1.996  10.928  0.6858 -0.0632  0.2690
14549TIP3    H165138   0.552   1.999  10.955  0.1518 -0.4031 -1.3882
14549TIP3    H265139   0.665   2.087  10.906 -0.0019 -0.3094 -1.5759
14550TIP3   OH265140   3.455   0.328  34.273  0.1739 -0.0484  0.2282
14550TIP3    H165141   3.535   0.316  34.324 -0.6371 -1.1083  1.3242
14550TIP3    H265142   3.387   0.287  34.326 -0.7155 -1.2880 -1.7422
14551TIP3   OH265143   1.522   2.237  32.230 -1.1695 -0.6699 -0.2953
14551TIP3    H165144   1.501   2.324  32.195 -1.0693 -0.8726 -0.8802
14551TIP3    H265145   1.457   2.223  32.299 -0.0160  0.6426  1.1363
14552TIP3   OH265146   3.092   1.818   9.627  0.2219 -0.2672  0.0561
14552TIP3    H165147   3.151   1.892   9.611  0.6477 -0.5114  0.4870
14552TIP3    H265148   3.143   1.757   9.680 -0.5035 -0.3597  0.6609
14553TIP3   OH265149   3.811   0.873  31.874  0.9191  0.2132 -0.3149
14553TIP3    H165150   3.878   0.939  31.858  0.0225  1.2242 -0.0062
14553TIP3    H265151   3.733   0.908  31.831  0.0616  0.0408  1.0520
14554TIP3   OH265152   0.403   0.816   6.754 -0.6177 -0.4220  0.2787
14554TIP3    H165153   0.466   0.871   6.707 -1.3214 -0.1621 -0.3823
14554TIP3    H265154   0.387   0.862   6.836  1.1411 -1.2183  1.1293
14555TIP3   OH265155   1.259   1.497  45.002  0.2208 -0.0097  0.3136
14555TIP3    H165156   1.323   1.450  44.948  0.8574 -0.6223  1.5392
14555TIP3    H265157   1.286   1.478  45.092 -1.3622  0.1985  0.8644
14556TIP3   OH265158   3.305   1.188  20.957  0.0359 -0.0001 -0.5328
14556TIP3    H165159   3.277   1.241  20.882  0.3947  0.1073 -0.5901
14556TIP3    H265160   3.227   1.184  21.013 -0.5454 -0.8941 -1.3668
14557TIP3   OH265161   0.563   2.603  16.124 -0.1181  0.2287 -0.1326
14557TIP3    H165162   0.524   2.526  16.082 -1.7457  0.4926  0.7950
14557TIP3    H265163   0.498   2.630  16.188  0.4150  2.3811 -0.4311
14558TIP3   OH265164   0.633   1.691   0.678  0.0810  0.0836  0.6422
14558TIP3    H165165   0.552   1.666   0.635  0.4678  0.3303 -0.2352
14558TIP3    H265166   0.641   1.785   0.663  1.0208 -0.1101 -0.1165
14559TIP3   OH265167   0.994   4.070  36.012 -0.1554 -0.0684  0.0180
14559TIP3    H165168   1.076   4.094  35.968  1.9822 -1.9742  2.6350
14559TIP3    H265169   0.960   3.997  35.962  1.6452 -1.4869  0.7411
14560TIP3   OH265170   3.727   2.935   6.284 -0.1493 -0.0851 -0.2813
14560TIP3    H165171   3.669   2.950   6.358  0.7819  0.7034  0.3164
14560TIP3    H265172   3.781   2.860   6.310  0.6781  0.6501  0.1730
14561TIP3   OH265173   1.411   0.171  37.504 -0.1764 -0.3966  0.0556
14561TIP3    H165174   1.504   0.154  37.522 -0.1879  1.2988  2.0891
14561TIP3    H265175   1.411   0.220  37.422  1.0169  1.6267  1.1722
14562TIP3   OH265176   3.723   2.588  32.346 -0.7745  0.1191  0.5586
14562TIP3    H165177   3.782   2.658  32.374 -2.0354  1.5648 -0.2181
14562TIP3    H265178   3.748   2.513  32.400  1.4294  0.7835  0.5940
14563TIP3   OH265179   2.469   1.309  16.234 -0.1860  0.1107  0.2154
14563TIP3    H165180   2.556   1.314  16.194  0.6953 -1.3056  1.7672
14563TIP3    H265181   2.408   1.305  16.161  1.0647  1.0551 -0.9144
14564TIP3   OH265182   2.203   0.632  34.426  0.3556  0.2517  0.5282
14564TIP3    H165183   2.150   0.700  34.384 -2.0374 -0.6112  1.9480
14564TIP3    H265184   2.158   0.614  34.509  2.6186 -0.9510  1.5933
14565TIP3   OH265185   0.936   2.402  32.490 -0.4062 -0.4557 -0.4982
14565TIP3    H165186   0.919   2.421  32.582  0.2634  1.0636 -0.6572
14565TIP3    H265187   0.967   2.312  32.489  1.4437  0.0971  1.0246
14566TIP3   OH265188   0.406   0.595  14.224 -0.3245  0.2216 -0.3763
14566TIP3    H165189   0.471   0.539  14.182 -1.1256  0.0101 -1.3310
14566TIP3    H265190   0.325   0.546  14.221 -0.5638  0.5187  0.7577
14567TIP3   OH265191   3.162   3.818  36.104 -0.3514 -0.3016 -0.0072
14567TIP3    H165192   3.229   3.806  36.172 -0.0667  2.0074  0.2017
14567TIP3    H265193   3.211   3.851  36.029 -1.2131  1.4086  0.1433
14568TIP3   OH265194   1.807   3.855  45.471  0.0940  0.0443  0.6898
14568TIP3    H165195   1.746   3.874  45.542  0.2069 -0.8426  1.0452
14568TIP3    H265196   1.758   3.794  45.414  0.1056  0.5251  0.1564
14569TIP3   OH265197   0.731   2.173  35.671  0.1978  0.0113  0.8588
14569TIP3    H165198   0.643   2.182  35.634  0.2495 -2.4289 -0.0625
14569TIP3    H265199   0.788   2.219  35.609 -0.2951  0.7944  0.9678
14570TIP3   OH265200   2.919   1.402  16.173  0.2928  0.4285  0.6183
14570TIP3    H165201   2.961   1.321  16.143  0.7255  0.4939  1.0502
14570TIP3    H265202   2.882   1.379  16.258  0.5191  0.7191  0.7946
14571TIP3   OH265203   2.217   2.413   7.420 -0.0922 -0.3545  0.3764
14571TIP3    H165204   2.135   2.366   7.406 -1.5605  2.1710 -0.1743
14571TIP3    H265205   2.190   2.502   7.440  2.5231  0.8422 -0.9380
14572TIP3   OH265206   0.462   2.022  10.406  0.0690  0.3494 -0.4242
14572TIP3    H165207   0.465   1.980  10.320 -0.0916 -0.3997 -0.0721
14572TIP3    H265208   0.389   2.083  10.401 -0.4940 -0.3235 -0.5413
14573TIP3   OH265209   1.331   0.167  39.966  0.4646  0.1690  0.3796
14573TIP3    H165210   1.403   0.189  40.025  1.1967 -0.9503 -0.0534
14573TIP3    H265211   1.368   0.101  39.907 -0.5772  0.4430 -0.6183
14574TIP3   OH265212   2.916   1.276   8.918 -0.4915 -0.1885 -0.8528
14574TIP3    H165213   2.928   1.369   8.900  0.2405 -0.3668 -1.3019
14574TIP3    H265214   2.950   1.264   9.006 -1.0437  0.0592 -0.6012
14575TIP3   OH265215   2.031   1.106  45.591  0.0103 -0.2372  0.2015
14575TIP3    H165216   2.069   1.043  45.530  3.0324  1.2622  0.3242
14575TIP3    H265217   2.101   1.122  45.654 -1.8619  0.7372  2.1533
14576TIP3   OH265218   3.662   2.778   8.597  0.4513 -0.2693 -0.6079
14576TIP3    H165219   3.659   2.683   8.605 -0.9247 -0.1181  1.2754
14576TIP3    H265220   3.576   2.802   8.562  0.2213  0.3508  0.3365
14577TIP3   OH265221   0.553   0.059   5.595  0.0530  0.5569  0.4437
14577TIP3    H165222   0.544  -0.017   5.536 -1.4048  1.0365 -0.0109
14577TIP3    H265223   0.519   0.027   5.679  0.6454  0.3349  0.6008
14578TIP3   OH265224   3.842   0.538   2.061  0.3084 -0.0596  0.1467
14578TIP3    H165225   3.925   0.554   2.107  0.0171 -0.5811  0.8711
14578TIP3    H265226   3.786   0.496   2.127 -0.8699  1.1765 -0.0299
14579TIP3   OH265227   0.017   0.437  37.689  0.6426  0.1422  0.0124
14579TIP3    H165228  -0.052   0.491  37.729  0.2299  1.3975 -2.2181
14579TIP3    H265229   0.095   0.455  37.741 -0.1927  0.5173  1.1597
14580TIP3   OH265230   1.670   0.997   4.637 -0.7091 -0.0986  0.4513
14580TIP3    H165231   1.647   1.004   4.730  0.1181 -0.0958  0.6651
14580TIP3    H265232   1.604   1.049   4.592 -0.6445  0.5666  1.1088
14581TIP3   OH265233   0.816   2.940  33.134  0.4157 -0.1712  0.5144
14581TIP3    H165234   0.879   2.878  33.098  0.5193  0.2952 -0.1348
14581TIP3    H265235   0.733   2.918  33.091  0.8470  1.3810 -1.3127
14582TIP3   OH265236   0.190   1.792  44.807  0.3704  0.1462  0.3439
14582TIP3    H165237   0.166   1.795  44.715 -0.8820  0.4008  0.6622
14582TIP3    H265238   0.238   1.873  44.823 -0.5599  0.7334  0.2141
14583TIP3   OH265239   2.862   1.665   4.704  0.1043  0.2476 -0.2831
14583TIP3    H165240   2.876   1.579   4.744  1.5888  1.1265  1.2319
14583TIP3    H265241   2.822   1.718   4.773 -1.3238  0.6684 -1.3744
14584TIP3   OH265242   2.028   3.557   9.010  0.5516 -0.0260  0.1237
14584TIP3    H165243   2.100   3.552   8.946 -0.3421  0.9562 -1.0111
14584TIP3    H265244   1.949   3.547   8.957 -0.2142  0.8201  1.0742
14585TIP3   OH265245   2.224   0.322  40.257  0.2584 -0.3472  0.3264
14585TIP3    H165246   2.244   0.298  40.347 -2.5151 -0.1795  1.0958
14585TIP3    H265247   2.169   0.400  40.265 -1.6114 -1.4019 -1.3419
14586TIP3   OH265248   2.157   3.497  40.152  0.1070 -0.0498  0.0401
14586TIP3    H165249   2.133   3.550  40.228 -1.4892 -0.5471 -0.0737
14586TIP3    H265250   2.252   3.486  40.159  0.2832  1.7090  0.7696
14587TIP3   OH265251   1.454   3.680  33.787  0.2113  0.1976  0.0005
14587TIP3    H165252   1.464   3.588  33.812 -1.0547  0.1627  0.4323
14587TIP3    H265253   1.389   3.715  33.848 -0.2418  1.0609 -0.9485
14588TIP3   OH265254   3.803   0.615   3.131  0.3203  0.2875 -0.9413
14588TIP3    H165255   3.714   0.608   3.096 -0.2771  1.7116  0.1687
14588TIP3    H265256   3.798   0.689   3.192  1.3714 -1.7920  1.8464
14589TIP3   OH265257   4.069   2.193  39.786 -0.4561  0.3508 -0.1573
14589TIP3    H165258   4.117   2.243  39.851 -1.8072 -0.4345  1.5331
14589TIP3    H265259   4.033   2.119  39.835  0.4147 -1.6043 -2.2803
14590TIP3   OH265260   2.789   3.455  41.421  0.0762 -0.3392 -0.4692
14590TIP3    H165261   2.784   3.489  41.510  1.9297  0.9716 -0.7950
14590TIP3    H265262   2.778   3.360  41.431  1.1494 -0.3311  1.2937
14591TIP3   OH265263   1.771   0.560   6.710 -0.4703  0.7722 -0.5067
14591TIP3    H165264   1.814   0.638   6.676  0.2757  0.7137  0.2758
14591TIP3    H265265   1.799   0.554   6.801 -0.2818 -0.5642 -0.6224
14592TIP3   OH265266   1.423   3.255  11.224  0.4584 -0.6003 -0.1852
14592TIP3    H165267   1.512   3.236  11.194  0.9462  0.7472  0.3607
14592TIP3    H265268   1.369   3.244  11.146  0.6005 -4.2827  0.0288
14593TIP3   OH265269   3.687   3.307   6.264 -0.0175  0.1093  0.2874
14593TIP3    H165270   3.756   3.310   6.330 -0.2915 -1.3233  0.6549
14593TIP3    H265271   3.680   3.398   6.233 -0.4936  1.0082  2.8355
14594TIP3   OH265272   3.041   3.824   9.235  0.2355  0.7133 -0.2122
14594TIP3    H165273   3.037   3.893   9.170 -1.3842 -0.2483 -1.1913
14594TIP3    H265274   2.953   3.820   9.273  0.7037  0.1691  0.8865
14595TIP3   OH265275   0.156   1.498  11.526  0.2850  0.6331  0.1771
14595TIP3    H165276   0.109   1.433  11.577 -0.2480 -0.0967 -1.1794
14595TIP3    H265277   0.190   1.560  11.590  0.8679 -1.0056  1.5183
14596TIP3   OH265278   1.458   3.205  38.994  0.1905  0.7667  0.0414
14596TIP3    H165279   1.532   3.156  39.029 -0.2902 -0.4028 -0.5480
14596TIP3    H265280   1.478   3.296  39.015  0.8752  0.2942  1.5775
14597TIP3   OH265281   3.650   0.744   2.907  0.2348 -0.0066 -0.1069
14597TIP3    H165282   3.580   0.783   2.856 -0.3720  0.5714  1.1234
14597TIP3    H265283   3.730   0.769   2.861 -0.3489 -1.1663 -1.8646
14598TIP3   OH265284   1.021   1.406  16.413 -0.1611  0.5289 -0.5967
14598TIP3    H165285   0.939   1.396  16.364 -0.6787  1.0573  0.1456
14598TIP3    H265286   0.997   1.456  16.491  0.8742  0.7021 -0.3717
14599TIP3   OH265287   1.095   0.198  34.735  0.6481 -0.0214  0.3250
14599TIP3    H165288   1.059   0.109  34.735  0.4071  0.0616 -1.0583
14599TIP3    H265289   1.130   0.209  34.824  1.4502 -1.8071  0.2792
14600TIP3   OH265290   0.981   3.606  28.922 -0.1190 -0.2038 -0.1068
14600TIP3    H165291   0.969   3.531  28.980 -0.4406  0.6339  0.9428
14600TIP3    H265292   0.909   3.665  28.944 -0.8490 -0.2807 -2.0675
14601TIP3   OH265293   1.346   1.797  10.525 -0.0770  0.3207 -0.2170
14601TIP3    H165294   1.287   1.830  10.456  0.4001 -1.0981 -1.3528
14601TIP3    H265295   1.292   1.737  10.576 -0.1869  0.6871  0.1045
14602TIP3   OH265296   1.002   0.454  34.899 -0.0984  0.3302  0.2371
14602TIP3    H165297   0.907   0.449  34.906 -0.5941  0.7870 -3.8320
14602TIP3    H265298   1.030   0.362  34.892 -0.3547  0.2394  0.3841
14603TIP3   OH265299   4.103   0.399   5.068 -0.0509  0.1851 -0.4201
14603TIP3    H165300   4.114   0.481   5.115  1.3566 -0.4296  0.3853
14603TIP3    H265301   4.150   0.334   5.121  2.1927 -0.4331 -2.9190
14604TIP3   OH265302   1.026   0.082   3.380 -0.6207 -0.1099  0.1882
14604TIP3    H165303   0.959   0.072   3.312  0.8027 -0.0516 -1.2910
14604TIP3    H265304   1.099   0.126   3.336  0.7582 -0.9799  1.4796
14605TIP3   OH265305   0.675   1.017  32.661 -0.1366  0.1213 -0.0191
14605TIP3    H165306   0.654   0.926  32.640 -3.4387  0.6013  0.6949
14605TIP3    H265307   0.766   1.014  32.690  1.0536 -2.3262 -3.3178
14606TIP3   OH265308   1.218   2.978  47.239 -0.5468  0.7394 -0.0305
14606TIP3    H165309   1.272   2.906  47.209  1.5816  1.6615  1.3421
14606TIP3    H265310   1.207   2.962  47.333 -0.8578  1.6937  0.1080
14607TIP3   OH265311   0.953   0.370  40.458  0.5163 -0.5211 -0.3650
14607TIP3    H165312   0.938   0.305  40.527 -1.1319 -2.0828 -2.0869
14607TIP3    H265313   0.949   0.320  40.376 -2.2255  1.8562 -1.8871
14608TIP3   OH265314   0.392   2.177  34.706 -0.7326  0.1367  0.0897
14608TIP3    H165315   0.323   2.177  34.639 -0.3627 -3.9714 -0.6092
14608TIP3    H265316   0.474   2.171  34.656 -0.3752 -1.7033  0.8014
14609TIP3   OH265317   0.125   1.162  10.023  0.0695  0.0690  0.1193
14609TIP3    H165318   0.127   1.091  10.087  0.2946  0.7842  0.9222
14609TIP3    H265319   0.155   1.239  10.072  0.6048  0.5506 -0.9411
14610TIP3   OH265320   1.950   3.227  41.252  1.1318 -0.0340 -0.5085
14610TIP3    H165321   2.009   3.252  41.180 -0.3556 -0.3846 -1.9235
14610TIP3    H265322   1.891   3.302  41.261  2.6132  0.9722  1.9338
14611TIP3   OH265323   0.123   3.908  38.547 -0.4389 -0.1584 -0.3169
14611TIP3    H165324   0.201   3.853  38.551 -0.0608  0.3815 -0.0298
14611TIP3    H265325   0.110   3.925  38.454  1.2435  1.7288 -0.2873
14612TIP3   OH265326   2.298   1.820  43.585  0.0605  0.1069  0.2366
14612TIP3    H165327   2.348   1.741  43.607  1.8273  0.6732 -1.3632
14612TIP3    H265328   2.267   1.804  43.496 -0.8389  0.6303  0.4459
14613TIP3   OH265329   3.020   2.251  37.694  0.3566  0.4239 -0.3141
14613TIP3    H165330   3.056   2.338  37.704 -1.0118  1.2248 -1.8592
14613TIP3    H265331   3.028   2.211  37.781  0.3562  2.3313  0.5947
14614TIP3   OH265332   0.021   2.216  44.209 -0.0924 -0.6599  0.1283
14614TIP3    H165333  -0.010   2.287  44.264  1.7041  0.1958  0.1057
14614TIP3    H265334  -0.037   2.217  44.133  0.5368  1.5084 -0.3775
14615TIP3   OH265335   1.685   0.360  45.192 -1.2517  0.4068 -0.0050
14615TIP3    H165336   1.724   0.298  45.254 -0.2727  0.2918 -0.7313
14615TIP3    H265337   1.593   0.333  45.187 -1.1375 -0.1446  0.7101
14616TIP3   OH265338   1.703   0.237  11.444 -0.1226  0.3145  0.1286
14616TIP3    H165339   1.724   0.149  11.476 -1.4405 -1.2966 -3.0422
14616TIP3    H265340   1.628   0.225  11.386 -1.2289  3.7922  0.5916
14617TIP3   OH265341   3.946   3.540  34.056  0.4870  0.3625  0.0104
14617TIP3    H165342   3.899   3.470  34.101 -0.6636  1.3340  0.3571
14617TIP3    H265343   3.888   3.567  33.986  0.3578  1.7994  0.6383
14618TIP3   OH265344   3.818   2.369  35.838 -0.2525  0.3729  0.1736
14618TIP3    H165345   3.809   2.442  35.777  0.3564 -0.4805 -0.9772
14618TIP3    H265346   3.910   2.373  35.866 -0.8281  1.5075  2.0533
14619TIP3   OH265347   2.772   0.887  46.830 -0.0438 -0.5382 -0.0051
14619TIP3    H165348   2.684   0.857  46.851 -0.3934  1.1782  1.1890
14619TIP3    H265349   2.787   0.961  46.889  2.2418 -0.8363 -0.1193
14620TIP3   OH265350   2.579   1.207  10.768  0.4198 -0.3095  0.3880
14620TIP3    H165351   2.585   1.113  10.754 -1.4986 -0.5170  0.6177
14620TIP3    H265352   2.628   1.246  10.695  0.9478 -1.4660  0.1030
14621TIP3   OH265353   3.713   1.140  34.101 -0.4335  0.1344 -0.4533
14621TIP3    H165354   3.652   1.199  34.058  0.1278  1.3355  0.3497
14621TIP3    H265355   3.708   1.059  34.050 -1.6504  0.6705 -1.2250
14622TIP3   OH265356   2.378   3.424  35.801 -0.4969 -0.3321  0.5926
14622TIP3    H165357   2.467   3.398  35.780 -0.2062 -0.2166  1.6412
14622TIP3    H265358   2.351   3.480  35.728 -0.5523 -2.1842 -0.8750
14623TIP3   OH265359   2.452   0.210  46.079  0.2910  0.5808  0.4211
14623TIP3    H165360   2.407   0.180  45.999  0.1153 -1.4689  1.2263
14623TIP3    H265361   2.544   0.214  46.055  0.0641  1.8085 -0.3726
14624TIP3   OH265362   3.492   2.737  43.413 -0.4768  0.1119 -0.1233
14624TIP3    H165363   3.461   2.826  43.394 -1.5377 -0.0235  0.8591
14624TIP3    H265364   3.473   2.724  43.506 -2.1009 -1.7972 -0.6490
14625TIP3   OH265365   2.909   0.779  10.333  0.1519 -0.3167 -0.4018
14625TIP3    H165366   2.989   0.831  10.335  0.3024 -0.5385 -0.6490
14625TIP3    H265367   2.935   0.693  10.368 -0.0355 -0.3096 -0.2416
14626TIP3   OH265368   0.281   1.443  43.327 -0.1178 -0.2513 -0.3570
14626TIP3    H165369   0.324   1.421  43.245  0.1574 -0.4445 -0.1632
14626TIP3    H265370   0.242   1.361  43.357 -0.2261 -0.1792 -0.3009
14627TIP3   OH265371   0.099   3.630   7.440 -0.0298 -0.3990  0.2163
14627TIP3    H165372   0.098   3.561   7.506 -1.5149  0.1689  0.8398
14627TIP3    H265373   0.123   3.586   7.359  3.9005 -0.7646  1.4113
14628TIP3   OH265374   1.206   0.481   3.418  0.2126  0.2142 -0.1587
14628TIP3    H165375   1.157   0.414   3.371 -0.8975 -1.4731  3.1114
14628TIP3    H265376   1.158   0.562   3.400 -0.4536 -0.4363 -1.4660
14629TIP3   OH265377   4.017   2.110  12.577 -0.4227 -0.5133  0.2146
14629TIP3    H165378   3.998   2.092  12.485  0.7035 -1.2850  0.1128
14629TIP3    H265379   4.106   2.144  12.578 -1.2834  1.9347  0.7924
14630TIP3   OH265380   1.076   1.173   4.361 -0.2895 -0.1632 -0.3473
14630TIP3    H165381   1.126   1.167   4.443 -0.1535 -2.4894 -0.5291
14630TIP3    H265382   1.141   1.200   4.296  0.3358 -1.3860 -0.2464
14631TIP3   OH265383   0.935   3.457   5.669 -0.0632  0.2312  0.4269
14631TIP3    H165384   1.011   3.432   5.721  0.7569 -1.4600 -1.4933
14631TIP3    H265385   0.966   3.529   5.613  0.6548 -1.4830 -1.4713
14632TIP3   OH265386   3.230   2.622   3.058  0.3605 -0.1288 -0.6427
14632TIP3    H165387   3.316   2.584   3.039  1.5267  0.4660  2.6390
14632TIP3    H265388   3.197   2.569   3.131 -0.8553  1.2301 -0.1655
14633TIP3   OH265389   1.606   3.160  46.104  0.0930 -0.0500 -0.4752
14633TIP3    H165390   1.691   3.194  46.076 -0.3673 -0.5510 -2.6750
14633TIP3    H265391   1.622   3.067  46.120  0.0001 -0.1222 -0.7867
14634TIP3   OH265392   0.570   3.045  38.511  0.3296 -0.0610  0.2193
14634TIP3    H165393   0.655   3.006  38.491  1.4405  2.2124  0.2186
14634TIP3    H265394   0.587   3.102  38.586 -1.2992  0.1572  0.4579
14635TIP3   OH265395   2.661   2.529  34.665  0.8329 -0.0794  0.2249
14635TIP3    H165396   2.718   2.488  34.600  1.1700 -1.1276  1.1362
14635TIP3    H265397   2.706   2.610  34.689  1.1169 -0.0956 -0.2342
14636TIP3   OH265398   0.050   0.755  40.351  0.0105 -0.1139 -0.2496
14636TIP3    H165399   0.135   0.721  40.377  0.4005 -0.0248 -1.3502
14636TIP3    H265400   0.022   0.809  40.425  0.9779 -0.0078  0.0545
14637TIP3   OH265401   3.489   1.688   9.977  0.1313  0.1534  0.3344
14637TIP3    H165402   3.415   1.630   9.958  1.6546 -2.1115  0.9537
14637TIP3    H265403   3.560   1.629  10.001  1.9642  2.2890  0.4391
14638TIP3   OH265404   3.523   0.479   5.133  0.4505  0.3957 -0.3805
14638TIP3    H165405   3.521   0.561   5.083 -1.9847  1.2459  0.9738
14638TIP3    H265406   3.555   0.504   5.220  3.1782 -0.8018 -0.9391
14639TIP3   OH265407   1.149   0.083   2.553 -0.5836  0.1728 -0.2418
14639TIP3    H165408   1.091   0.151   2.518 -1.5892 -1.1301 -1.2372
14639TIP3    H265409   1.092   0.007   2.565  0.6509 -0.7289  0.1247
14640TIP3   OH265410   0.578   1.847  16.637  0.5849 -0.8652  0.2666
14640TIP3    H165411   0.626   1.911  16.690  0.6821  0.7590 -1.6621
14640TIP3    H265412   0.486   1.861  16.661  0.5927  0.1213 -0.2344
14641TIP3   OH265413   3.827   3.192  29.359  0.4953  0.0741  0.7515
14641TIP3    H165414   3.822   3.096  29.353  1.6397  0.0215  0.5440
14641TIP3    H265415   3.864   3.208  29.446  1.3964  0.2806  0.3433
14642TIP3   OH265416   2.446   0.396   0.373  0.3698 -0.0793 -0.7517
14642TIP3    H165417   2.469   0.426   0.285  0.0617 -1.1505 -1.2091
14642TIP3    H265418   2.396   0.316   0.359  1.9973 -1.3770  0.4421
14643TIP3   OH265419   1.155   0.098  45.160  0.2735 -0.1771 -0.5002
14643TIP3    H165420   1.096   0.060  45.095  0.0855  1.6215 -1.4405
14643TIP3    H265421   1.113   0.180  45.186  1.1203 -0.1038  0.7199
14644TIP3   OH265422   3.685   2.195  11.195  0.3115  0.6268  0.4141
14644TIP3    H165423   3.617   2.152  11.246  0.5335  0.8340  0.8939
14644TIP3    H265424   3.638   2.263  11.146 -0.0534 -0.2043 -0.4237
14645TIP3   OH265425   3.465   2.319  42.941  0.4985  0.6364 -0.4600
14645TIP3    H165426   3.532   2.386  42.958 -1.1095  1.7388  2.0619
14645TIP3    H265427   3.386   2.354  42.981 -0.4793 -2.7201  0.8334
14646TIP3   OH265428   3.862   1.556   8.249 -0.2262  0.7783 -0.0532
14646TIP3    H165429   3.845   1.482   8.191 -0.9119  2.7469 -2.5006
14646TIP3    H265430   3.825   1.528   8.333 -0.6175 -1.5584 -0.9187
14647TIP3   OH265431   3.868   3.528   5.964  0.0088  0.3493  0.0156
14647TIP3    H165432   3.940   3.519   5.902  0.0212  1.7591 -0.2199
14647TIP3    H265433   3.832   3.615   5.946 -2.3488 -0.6407 -0.5012
14648TIP3   OH265434   1.578   0.841  42.320  0.3561  0.2266  0.7566
14648TIP3    H165435   1.656   0.850  42.375  1.0472 -0.3499 -0.1029
14648TIP3    H265436   1.581   0.915  42.260  0.9375 -0.4878 -0.1087
14649TIP3   OH265437   2.624   0.179  11.216 -0.1711  0.2997  0.4138
14649TIP3    H165438   2.686   0.246  11.245  1.3469 -1.0927  0.5281
14649TIP3    H265439   2.604   0.129  11.295 -0.6308  0.0948  0.1728
14650TIP3   OH265440   0.103   2.126  42.325  0.6201  0.1519 -0.3413
14650TIP3    H165441   0.034   2.060  42.332 -1.6313  2.4337  0.2905
14650TIP3    H265442   0.162   2.106  42.398  0.6626 -1.8164 -0.8596
14651TIP3   OH265443   0.314   3.063  32.620  0.0817  0.1306 -0.0039
14651TIP3    H165444   0.323   2.968  32.625  2.8490  0.2004 -1.3105
14651TIP3    H265445   0.383   3.097  32.677 -0.1343  1.3344 -0.4119
14652TIP3   OH265446   1.810   3.008  45.486  0.2579 -0.4311  0.0490
14652TIP3    H165447   1.772   2.920  45.492  0.5947 -0.6257 -0.5760
14652TIP3    H265448   1.790   3.048  45.570 -3.5559  0.4183 -1.0788
14653TIP3   OH265449   1.283   1.289  43.448 -1.1086 -0.0053  0.5505
14653TIP3    H165450   1.190   1.270  43.452 -1.2591  0.9327  2.2782
14653TIP3    H265451   1.293   1.371  43.496  0.7201 -0.5123  1.0996
14654TIP3   OH265452   0.682   2.003   5.212  0.0815  0.1580 -0.8201
14654TIP3    H165453   0.664   2.056   5.135 -1.6129  0.1032 -0.5206
14654TIP3    H265454   0.661   1.913   5.184  2.0049 -0.2477 -1.0462
14655TIP3   OH265455   2.836   0.433  39.608 -0.4579  0.5820 -0.3157
14655TIP3    H165456   2.818   0.373  39.536 -1.0388 -0.2761  0.5169
14655TIP3    H265457   2.756   0.485  39.617  0.1795  1.7559 -1.2734
14656TIP3   OH265458   2.722   1.421  47.674 -0.2920 -0.2115  0.1071
14656TIP3    H165459   2.631   1.400  47.655 -0.4114  0.0481  0.3825
14656TIP3    H265460   2.718   1.477  47.752  0.0057  0.8588 -0.6190
14657TIP3   OH265461   2.263   3.144  14.024  0.2629 -0.1164 -0.3718
14657TIP3    H165462   2.168   3.136  14.016  0.0940 -0.5239  1.4620
14657TIP3    H265463   2.286   3.220  13.971 -1.0982  0.0329 -0.7759
14658TIP3   OH265464   3.396   0.236   7.821  0.4960  0.2713  0.4893
14658TIP3    H165465   3.426   0.149   7.845  0.4380  0.3662  0.9042
14658TIP3    H265466   3.431   0.249   7.732 -0.4521 -0.6315 -0.0480
14659TIP3   OH265467   3.950   3.880  29.554 -0.3086  0.0168  0.0579
14659TIP3    H165468   4.002   3.919  29.624  0.6580 -0.2240 -0.5154
14659TIP3    H265469   3.907   3.955  29.512 -0.7468  0.1821  0.7606
14660TIP3   OH265470   3.976   3.899  46.490 -0.2386  0.1284  0.0591
14660TIP3    H165471   3.974   3.983  46.537 -2.0647  0.1458  0.0461
14660TIP3    H265472   3.954   3.834  46.557 -0.8328 -0.0822 -0.3282
14661TIP3   OH265473   3.945   3.991   7.013  0.1261 -0.1171 -0.0541
14661TIP3    H165474   3.961   4.009   7.106 -1.1533 -0.2786  0.2220
14661TIP3    H265475   4.030   3.965   6.979  0.5990 -0.1836  1.1044
14662TIP3   OH265476   2.351   1.760  15.890 -0.4975 -0.0070  0.1850
14662TIP3    H165477   2.431   1.799  15.856 -0.9571 -1.7434 -3.2410
14662TIP3    H265478   2.362   1.762  15.985  3.3926  0.2643 -0.1309
14663TIP3   OH265479   3.021   2.637  41.642  0.2735  0.4918 -0.1570
14663TIP3    H165480   3.083   2.708  41.661  0.4575  0.4360 -0.5406
14663TIP3    H265481   3.006   2.643  41.548  1.8862 -1.2366 -0.6068
14664TIP3   OH265482   3.986   3.537  30.758  0.2223  0.3540  0.1659
14664TIP3    H165483   3.997   3.464  30.819 -0.8629  1.4487  1.7357
14664TIP3    H265484   3.897   3.527  30.725  0.6801 -0.0210 -1.0035
14665TIP3   OH265485   0.717   2.771   0.946  0.1899  0.0633  0.1864
14665TIP3    H165486   0.648   2.718   0.986  1.7419 -1.1243  1.4145
14665TIP3    H265487   0.782   2.707   0.918 -0.2745  0.9356 -3.3261
14666TIP3   OH265488   0.177   3.597   5.018 -0.4143 -0.0665 -0.1688
14666TIP3    H165489   0.122   3.651   5.074 -1.4829  1.5783 -2.6358
14666TIP3    H265490   0.242   3.658   4.982  1.5485 -1.4863  0.8078
14667TIP3   OH265491   0.174   0.768  12.509 -0.0162  0.1659  0.6312
14667TIP3    H165492   0.079   0.766  12.506  0.0102  0.4790 -0.8391
14667TIP3    H265493   0.194   0.813  12.592 -1.1436  0.5345  0.7136
14668TIP3   OH265494   2.954   0.387  33.238 -0.1648  0.0895  0.5602
14668TIP3    H165495   2.988   0.312  33.285  2.4972  1.3446  0.8151
14668TIP3    H265496   2.861   0.391  33.262  0.3346 -1.3023  2.9646
14669TIP3   OH265497   1.777   0.005  11.562 -0.5693 -0.0597 -0.0732
14669TIP3    H165498   1.839  -0.052  11.516 -1.8313 -1.3581 -0.2283
14669TIP3    H265499   1.771  -0.032  11.650 -2.2216 -0.8834 -0.4925
14670TIP3   OH265500   3.690   3.030  38.383 -0.2535 -0.2544  0.6378
14670TIP3    H165501   3.610   3.022  38.435 -1.0791  0.8051 -0.4090
14670TIP3    H265502   3.663   3.008  38.294  0.6299  0.0707  0.2795
14671TIP3   OH265503   3.873   1.577  20.294 -0.6436 -0.0285 -0.6564
14671TIP3    H165504   3.858   1.516  20.221  1.0075  0.0801 -1.1165
14671TIP3    H265505   3.958   1.552  20.330 -0.9372  0.6194  0.5555
14672TIP3   OH265506   2.067   1.150  46.964  0.0238 -0.1284 -0.1724
14672TIP3    H165507   2.111   1.081  47.013  0.3743  0.6649  0.6708
14672TIP3    H265508   1.974   1.135  46.979  0.1050 -0.2994  0.1703
14673TIP3   OH265509   1.756   2.767   4.332 -0.0956 -0.5178 -0.0375
14673TIP3    H165510   1.771   2.739   4.422  0.0995 -0.1113  0.0576
14673TIP3    H265511   1.701   2.844   4.339  0.6938  0.0832 -0.2096
14674TIP3   OH265512   2.481   1.925  39.328 -0.1078 -0.1802 -0.2688
14674TIP3    H165513   2.550   1.991  39.331  0.6144 -0.8809 -0.9368
14674TIP3    H265514   2.414   1.962  39.271  0.0899  0.1565 -0.2804
14675TIP3   OH265515   2.443   2.498   3.892  0.2421  0.1174 -0.1173
14675TIP3    H165516   2.363   2.489   3.840 -0.6548  0.3365  1.1708
14675TIP3    H265517   2.508   2.445   3.846 -0.5504  0.1837 -1.3561
14676TIP3   OH265518   2.172   3.053  40.377  0.3548  0.1082 -0.0929
14676TIP3    H165519   2.134   3.031  40.462  1.8247  1.1968  0.8990
14676TIP3    H265520   2.122   3.129  40.347  0.0010 -0.1232 -0.1034
14677TIP3   OH265521   0.721   0.733  40.462 -0.1725  0.3259 -0.1984
14677TIP3    H165522   0.686   0.812  40.421 -0.1605  1.0380  1.1019
14677TIP3    H265523   0.668   0.662  40.427  0.6377  0.7189 -2.3759
14678TIP3   OH265524   0.307   0.892  31.338 -0.3917 -0.1817 -0.0487
14678TIP3    H165525   0.263   0.821  31.386  0.0251  0.2558  1.0217
14678TIP3    H265526   0.294   0.969  31.393  1.2816  0.0581  0.0460
14679TIP3   OH265527   0.349   0.532   7.856  0.2843  0.5399 -0.8915
14679TIP3    H165528   0.389   0.600   7.802 -1.7527  2.1116 -0.5512
14679TIP3    H265529   0.339   0.573   7.942 -0.3334 -0.4424 -0.4849
14680TIP3   OH265530   1.115   2.295  45.574 -0.5412  0.1284  0.4514
14680TIP3    H165531   1.124   2.382  45.612 -1.9902 -0.1408  1.4537
14680TIP3    H265532   1.190   2.288  45.514 -0.9775  2.4698 -0.4984
14681TIP3   OH265533   2.459   2.186  45.046  0.5537 -0.0201 -0.2714
14681TIP3    H165534   2.472   2.267  44.996 -0.0159  2.3057  3.0100
14681TIP3    H265535   2.538   2.178  45.099  0.2382 -1.1570  0.0388
14682TIP3   OH265536   2.434   2.200  19.522 -0.1087  0.2090  0.3415
14682TIP3    H165537   2.520   2.231  19.552  0.9442 -0.8948 -1.3262
14682TIP3    H265538   2.437   2.105  19.536 -1.0039  0.1381  0.1037
14683TIP3   OH265539   2.559   0.148   5.145 -0.7114  0.8900 -0.1872
14683TIP3    H165540   2.627   0.207   5.111 -0.4164  0.2483 -0.7272
14683TIP3    H265541   2.595   0.113   5.226 -0.3526  0.4681 -0.5282
14684TIP3   OH265542   0.225   2.230  15.782 -0.2563  0.4293 -0.4505
14684TIP3    H165543   0.181   2.158  15.737  1.1989 -0.5786 -0.3275
14684TIP3    H265544   0.160   2.263  15.844 -0.6013 -1.5246  0.2794
14685TIP3   OH265545   2.635   3.426  43.061 -0.2113 -0.0499  0.0015
14685TIP3    H165546   2.552   3.382  43.043  0.4837 -1.2197 -0.3822
14685TIP3    H265547   2.681   3.368  43.122  0.2113  0.7236  0.4347
14686TIP3   OH265548   1.636   3.052   2.981 -0.3778 -0.3633  0.4736
14686TIP3    H165549   1.628   3.032   2.888 -0.8346 -1.2293  0.6937
14686TIP3    H265550   1.659   3.145   2.984  2.0280 -0.8503 -0.5855
14687TIP3   OH265551   4.070   3.279   0.694  0.8007  0.5173  0.9002
14687TIP3    H165552   4.083   3.258   0.602 -0.9949  2.2060  0.1924
14687TIP3    H265553   4.116   3.362   0.707 -0.3928  1.1795  1.0417
14688TIP3   OH265554   0.568   3.600   0.007  0.4163  0.8829  0.4580
14688TIP3    H165555   0.662   3.583  -0.006  0.3959  2.5450 -2.6190
14688TIP3    H265556   0.566   3.680   0.059  0.6605  0.6875  0.7791
14689TIP3   OH265557   1.182   0.982   9.528  0.0061 -0.3876  0.6948
14689TIP3    H165558   1.141   0.938   9.602 -1.7483 -0.2438 -0.1398
14689TIP3    H265559   1.112   0.991   9.463  0.3215  3.2672  0.6486
14690TIP3   OH265560   0.478   2.911  13.763 -0.1544 -0.4003  0.4761
14690TIP3    H165561   0.414   2.982  13.757 -0.6601 -0.5303  3.1390
14690TIP3    H265562   0.431   2.833  13.733 -1.0788 -0.3871  1.8307
14691TIP3   OH265563   2.198   0.069  10.450  0.6957 -0.1569 -0.6449
14691TIP3    H165564   2.275   0.124  10.461 -0.2977  1.0981  0.3087
14691TIP3    H265565   2.130   0.128  10.417 -0.2294 -0.9311 -0.1827
14692TIP3   OH265566   3.071   1.098  47.233  0.3346 -0.0459  0.6197
14692TIP3    H165567   3.062   1.192  47.215 -0.9673 -0.2754 -0.0471
14692TIP3    H265568   3.139   1.068  47.174  0.8966  0.5016  0.9695
14693TIP3   OH265569   1.145   0.158   0.238  0.7083 -0.5328 -0.3201
14693TIP3    H165570   1.068   0.195   0.195  1.5102  0.2956 -1.0805
14693TIP3    H265571   1.116   0.140   0.327 -0.3404 -0.1494 -0.5664
14694TIP3   OH265572   1.357   0.985  14.843  0.0866 -0.1155  0.0767
14694TIP3    H165573   1.286   0.921  14.853  0.0315  0.1758  1.8977
14694TIP3    H265574   1.352   1.012  14.752 -1.9418 -0.3508  0.0722
14695TIP3   OH265575   3.915   3.586  14.936 -0.2616 -0.0684  0.6639
14695TIP3    H165576   3.997   3.563  14.980  0.0696  0.8301  0.5455
14695TIP3    H265577   3.869   3.641  15.000  0.3376  1.4663 -0.1481
14696TIP3   OH265578   3.390   1.343   5.958  0.0259  0.2692 -0.3973
14696TIP3    H165579   3.388   1.434   5.927  1.5844 -0.1289 -1.7807
14696TIP3    H265580   3.319   1.300   5.910 -1.7972  1.0356  1.4413
14697TIP3   OH265581   0.399   1.487  33.610  0.2492  0.0725 -0.0631
14697TIP3    H165582   0.454   1.510  33.685  0.3119 -0.0732 -0.0666
14697TIP3    H265583   0.312   1.474  33.647  0.5387 -1.2900  0.1929
14698TIP3   OH265584   0.439   2.348   3.060  0.1097  0.3824 -0.4654
14698TIP3    H165585   0.511   2.317   3.005 -0.0073  2.8362 -2.1706
14698TIP3    H265586   0.468   2.433   3.092 -1.2799  0.5947  0.3237
14699TIP3   OH265587   2.655   1.379   0.250 -0.1232 -0.1243  0.0561
14699TIP3    H165588   2.606   1.394   0.331  0.4049 -1.9937  0.7664
14699TIP3    H265589   2.671   1.467   0.215 -1.4377  0.6588  1.3176
14700TIP3   OH265590   1.963   4.016  34.915  0.3495 -0.2374 -0.5431
14700TIP3    H165591   2.051   4.007  34.952  0.6686  0.6184 -1.0579
14700TIP3    H265592   1.904   3.992  34.986  0.9801  0.0210  0.0749
14701TIP3   OH265593   3.103   3.157  43.266 -0.1931  0.0344  0.0756
14701TIP3    H165594   3.015   3.177  43.300  0.6306  1.7845  1.3696
14701TIP3    H265595   3.140   3.097  43.331 -0.6491 -1.2780 -0.8408
14702TIP3   OH265596   0.049   1.360  20.195  0.5742 -0.1230  0.2462
14702TIP3    H165597   0.047   1.387  20.286  0.8548 -0.1875  0.2711
14702TIP3    H265598   0.139   1.376  20.166 -0.0138  1.8413 -0.6213
14703TIP3   OH265599   3.477   1.209  37.501 -0.5023  0.7290 -1.0696
14703TIP3    H165600   3.392   1.219  37.544  0.2247  0.8232  0.4145
14703TIP3    H265601   3.514   1.297  37.500  0.1734  0.4562 -0.4171
14704TIP3   OH265602   2.313   1.080  40.801  0.4465  0.0378 -0.4315
14704TIP3    H165603   2.223   1.051  40.814  0.5768  0.0921  0.7639
14704TIP3    H265604   2.305   1.168  40.763 -0.0253  0.3072  0.2708
14705TIP3   OH265605   2.502   2.204  37.021  0.2469 -0.2513 -0.2181
14705TIP3    H165606   2.501   2.180  36.928  0.4627 -0.2653 -0.2167
14705TIP3    H265607   2.423   2.164  37.057  1.2419 -2.0929  0.0597
14706TIP3   OH265608   1.675   0.695   6.015 -0.2912  0.1054  0.1721
14706TIP3    H165609   1.661   0.611   5.971 -0.8841  0.2304  0.1089
14706TIP3    H265610   1.682   0.759   5.943 -0.2434  0.1672  0.2311
14707TIP3   OH265611   2.178   2.976  37.117 -0.4522 -0.1307 -0.1834
14707TIP3    H165612   2.245   3.007  37.177  0.6787  1.5866 -2.1811
14707TIP3    H265613   2.114   2.931  37.172  0.6145  1.1376  2.2122
14708TIP3   OH265614   1.625   0.605  42.557 -0.6900  0.2021 -0.0140
14708TIP3    H165615   1.715   0.615  42.589 -0.2789 -1.9009 -0.3900
14708TIP3    H265616   1.633   0.601  42.462 -1.1371 -0.4250 -0.0312
14709TIP3   OH265617   3.117   3.855  32.483  0.4090  0.0513  0.4941
14709TIP3    H165618   3.126   3.907  32.564  0.4858  1.9221 -0.6489
14709TIP3    H265619   3.040   3.892  32.440  1.5013  0.4680 -1.2091
14710TIP3   OH265620   0.258   2.970  36.436  0.1776  0.3486  0.2607
14710TIP3    H165621   0.309   2.983  36.356  2.3249 -1.3368  1.2516
14710TIP3    H265622   0.242   3.059  36.469  0.2633  1.0214 -1.3928
14711TIP3   OH265623   0.173   1.957  47.181  0.1144  0.3237 -0.3666
14711TIP3    H165624   0.265   1.934  47.199  0.1075  1.3282  1.1301
14711TIP3    H265625   0.178   2.027  47.116  0.4808  1.0671  0.4412
14712TIP3   OH265626   0.059   0.075  46.934 -0.0379 -0.3661 -0.0514
14712TIP3    H165627  -0.014   0.113  46.982 -0.2263 -0.4974 -0.2308
14712TIP3    H265628   0.128   0.065  46.999 -0.5468 -1.2570  0.3659
14713TIP3   OH265629   2.008   2.532   7.938  0.0107  0.3980  0.0514
14713TIP3    H165630   2.058   2.544   8.019 -0.4999  0.6977  0.3353
14713TIP3    H265631   1.977   2.442   7.942 -0.4326  0.5622  0.4436
14714TIP3   OH265632   3.964   1.451  38.412 -0.2271 -0.0439 -0.5487
14714TIP3    H165633   3.908   1.386  38.456 -2.1432  1.0318 -1.2891
14714TIP3    H265634   3.903   1.505  38.363  1.5176  1.1513 -1.4800
14715TIP3   OH265635   3.946   3.043  32.208  0.4490  0.2729  0.3863
14715TIP3    H165636   3.930   2.953  32.182  0.3212  0.7341 -1.2279
14715TIP3    H265637   4.037   3.059  32.185  0.0962  0.9465 -0.6301
14716TIP3   OH265638   1.032   1.998  10.819  0.1156 -0.4464  0.3582
14716TIP3    H165639   1.094   1.925  10.815  2.1639  1.0512  2.3879
14716TIP3    H265640   0.998   1.995  10.908 -0.4561  0.5677  0.1855
14717TIP3   OH265641   1.661   4.016  43.037 -0.0935  0.0652 -0.4865
14717TIP3    H165642   1.740   3.970  43.063  0.3589  0.8705 -0.4173
14717TIP3    H265643   1.678   4.042  42.946 -0.4250 -0.0607 -0.5887
14718TIP3   OH265644   2.286   2.778   6.274  0.0987  0.6313  0.3226
14718TIP3    H165645   2.234   2.698   6.284 -2.0509  1.9483  0.1582
14718TIP3    H265646   2.352   2.772   6.343 -2.3991  0.4564  2.8873
14719TIP3   OH265647   3.819   2.127  18.730  0.1115 -0.6191  0.3379
14719TIP3    H165648   3.846   2.142  18.639 -1.0025  0.9769  0.2296
14719TIP3    H265649   3.762   2.050  18.726 -1.6808  0.6704 -0.7344
14720TIP3   OH265650   0.625   3.387  34.201 -0.1392  0.3108 -0.0882
14720TIP3    H165651   0.717   3.387  34.174  0.1085 -2.3575  0.4771
14720TIP3    H265652   0.576   3.391  34.118  0.5914 -2.2511 -0.7610
14721TIP3   OH265653   1.065   3.621   3.630 -0.3044  0.3513  0.0667
14721TIP3    H165654   1.088   3.539   3.585  0.6226  0.8057 -0.3247
14721TIP3    H265655   0.970   3.618   3.639 -0.4219 -0.1769 -1.1289
14722TIP3   OH265656   3.697   0.060  27.657 -0.1051  0.5394  0.2262
14722TIP3    H165657   3.711  -0.028  27.691 -0.3178  1.0240  1.5974
14722TIP3    H265658   3.662   0.045  27.568 -1.5677 -0.7925  0.9579
14723TIP3   OH265659   2.598   3.999   7.204  0.4862  0.3774  0.3360
14723TIP3    H165660   2.640   4.036   7.282 -3.2354  2.1518  1.7077
14723TIP3    H265661   2.585   3.907   7.225  1.0910  0.4402  1.0404
14724TIP3   OH265662   2.642   1.199  18.068  0.4243  0.0993  0.9283
14724TIP3    H165663   2.605   1.242  18.145  1.3323 -0.7509  1.8705
14724TIP3    H265664   2.727   1.167  18.096  0.8679 -0.0586 -0.5012
14725TIP3   OH265665   2.392   3.064   1.029 -0.5349 -0.1808 -0.2735
14725TIP3    H165666   2.447   3.005   1.080  2.0353  0.0463 -2.5736
14725TIP3    H265667   2.340   3.111   1.094  0.0501 -2.3181  1.8405
14726TIP3   OH265668   1.090   2.682  37.055  0.0270  0.5302 -0.2122
14726TIP3    H165669   1.017   2.743  37.049 -1.1569 -0.8083 -0.0641
14726TIP3    H265670   1.148   2.707  36.984  0.6856  3.1614  1.1462
14727TIP3   OH265671   3.807   2.644   1.835 -0.0116 -0.2075  0.1010
14727TIP3    H165672   3.864   2.614   1.906 -0.1735  1.3469  0.9361
14727TIP3    H265673   3.757   2.567   1.809  0.2876 -0.8782  1.4558
14728TIP3   OH265674   1.173   3.408   8.294  0.5683  0.1261 -0.1303
14728TIP3    H165675   1.231   3.467   8.342  0.6474  0.3917 -0.5520
14728TIP3    H265676   1.114   3.372   8.361  1.0376  0.0686  0.2535
14729TIP3   OH265677   1.690   1.509   0.444 -0.1763  0.0403  0.1517
14729TIP3    H165678   1.668   1.580   0.383 -0.4538 -0.6151 -0.5312
14729TIP3    H265679   1.712   1.435   0.387 -1.1727 -0.8174  0.8425
14730TIP3   OH265680   0.188   1.779  11.244  0.0401 -0.3578 -0.4683
14730TIP3    H165681   0.276   1.750  11.270 -0.2694 -2.5622 -1.6165
14730TIP3    H265682   0.170   1.731  11.163 -2.3625 -0.2211 -0.0911
14731TIP3   OH265683   0.790   3.439   4.285 -0.0600  0.4709  1.0855
14731TIP3    H165684   0.882   3.416   4.269  0.4145  1.2937  2.4012
14731TIP3    H265685   0.776   3.414   4.376 -1.0139  0.7677  1.0234
14732TIP3   OH265686   2.142   0.101  44.656  0.5648  0.0133  0.0372
14732TIP3    H165687   2.057   0.080  44.616 -0.4408 -0.2676  2.1779
14732TIP3    H265688   2.138   0.195  44.674  0.3344 -0.1483  0.8915
14733TIP3   OH265689   3.401   1.704  44.157  0.3670 -0.1152 -0.0584
14733TIP3    H165690   3.308   1.723  44.147 -0.0484 -0.4740  2.4700
14733TIP3    H265691   3.443   1.790  44.160 -0.1333  0.1155  0.6173
14734TIP3   OH265692   2.735   3.588  45.146 -0.2277  0.1860 -0.2584
14734TIP3    H165693   2.736   3.596  45.242  1.1648  0.1486 -0.2481
14734TIP3    H265694   2.648   3.619  45.120 -1.0231 -0.7827  1.0937
14735TIP3   OH265695   4.061   0.001  31.987  0.4289 -0.0688 -0.6192
14735TIP3    H165696   4.141  -0.040  32.020  0.6172  0.2574 -0.6635
14735TIP3    H265697   4.046   0.076  32.045  0.4751  0.2054 -0.9585
14736TIP3   OH265698   3.853   3.314   0.946 -0.3218  0.2113 -0.9835
14736TIP3    H165699   3.878   3.406   0.946  0.0475  0.1442  1.1122
14736TIP3    H265700   3.759   3.314   0.930 -0.6107  1.0660  0.6497
14737TIP3   OH265701   0.197   2.651   2.925  0.2935 -0.2927  0.1492
14737TIP3    H165702   0.196   2.618   3.015 -0.9704 -2.1426 -0.4857
14737TIP3    H265703   0.140   2.591   2.876 -0.8363  1.9260 -1.4639
14738TIP3   OH265704   3.362   1.167  38.527 -0.5652  0.0428 -0.2293
14738TIP3    H165705   3.325   1.242  38.572 -1.2123  0.5717 -1.6016
14738TIP3    H265706   3.295   1.099  38.535 -1.6388  0.8003 -2.1594
14739TIP3   OH265707   1.470   3.171  12.131 -0.0766 -0.3880 -0.4906
14739TIP3    H165708   1.409   3.244  12.141  0.6335  0.1804 -0.2151
14739TIP3    H265709   1.549   3.211  12.095  0.5709 -0.8986  0.3406
14740TIP3   OH265710   3.139   3.013  31.140 -0.1978 -0.4909 -0.2222
14740TIP3    H165711   3.092   2.939  31.178  0.0765 -1.2121 -1.2337
14740TIP3    H265712   3.224   3.012  31.183  0.2362 -1.5152 -1.0556
14741TIP3   OH265713   1.594   3.993  14.411 -0.4944  0.1754 -0.3557
14741TIP3    H165714   1.564   3.916  14.459  2.3018 -0.6084  0.3076
14741TIP3    H265715   1.593   3.966  14.319  0.2336 -0.5970 -0.1468
14742TIP3   OH265716   2.371   2.442   4.682  0.4542 -0.0401  0.0018
14742TIP3    H165717   2.361   2.460   4.588  1.2603  0.9939  0.1054
14742TIP3    H265718   2.460   2.408   4.691 -0.5750 -3.0953  0.0046
14743TIP3   OH265719   2.126   0.814   3.441 -0.4710  0.3111  0.0571
14743TIP3    H165720   2.203   0.835   3.388  0.1535 -1.2027  0.2953
14743TIP3    H265721   2.057   0.798   3.377 -0.2048  0.2698 -0.2243
14744TIP3   OH265722   2.614   1.877  39.047 -0.5665  0.0174 -0.0830
14744TIP3    H165723   2.631   1.783  39.043  0.5853  0.1991  0.2858
14744TIP3    H265724   2.600   1.896  39.139 -1.1450  0.1629 -0.1916
14745TIP3   OH265725   2.521   4.031  45.498 -0.3083  0.1017  0.0573
14745TIP3    H165726   2.539   4.110  45.550  0.8957 -0.4546  0.5320
14745TIP3    H265727   2.454   3.984  45.547 -0.0634  0.1807  0.4716
14746TIP3   OH265728   0.190   0.078  37.167  0.0447  0.0347 -0.0737
14746TIP3    H165729   0.162  -0.004  37.207  1.0785 -0.3462 -0.1162
14746TIP3    H265730   0.282   0.064  37.145  1.9314  2.8810  4.5091
14747TIP3   OH265731   0.500   0.058  40.100  0.8827 -0.2775 -0.8195
14747TIP3    H165732   0.434   0.013  40.153  1.0104 -1.4243 -1.5943
14747TIP3    H265733   0.456   0.136  40.067  0.5497  0.0220  0.2858
14748TIP3   OH265734   3.588   3.841  32.181  0.3209  0.0262 -0.9063
14748TIP3    H165735   3.511   3.840  32.238  0.5539  0.0857 -0.5862
14748TIP3    H265736   3.571   3.911  32.118  1.7972  2.8077  1.5340
14749TIP3   OH265737   1.367   2.362   2.934 -0.4453 -0.5532  0.1350
14749TIP3    H165738   1.292   2.411   2.902 -0.3556  0.0722  0.8544
14749TIP3    H265739   1.433   2.429   2.953  0.6665 -1.1397 -1.3911
14750TIP3   OH265740   0.787   0.355  46.908 -0.4650 -0.0368  0.3889
14750TIP3    H165741   0.874   0.320  46.891 -0.3704 -0.3548  1.4335
14750TIP3    H265742   0.753   0.379  46.822  0.7783  0.3945  0.0057
14751TIP3   OH265743   0.159   0.596   8.963 -0.5089  0.2794  0.2083
14751TIP3    H165744   0.160   0.663   9.032  1.2855 -0.0403  0.5399
14751TIP3    H265745   0.210   0.635   8.892  0.7351 -0.7889  0.4904
14752TIP3   OH265746   2.982   2.930  40.227 -0.0720 -0.6284  0.5819
14752TIP3    H165747   3.059   2.875  40.210  0.7791 -0.0760  2.3496
14752TIP3    H265748   3.019   3.015  40.253 -1.3431  0.4537 -0.9647
14753TIP3   OH265749   3.300   3.101  11.731  0.2854  0.6690  0.0096
14753TIP3    H165750   3.224   3.126  11.784 -1.5726 -0.2011 -2.1075
14753TIP3    H265751   3.303   3.166  11.661  0.9751  0.1898 -0.4154
14754TIP3   OH265752   1.102   2.013  46.360  0.1459  0.7222  0.1681
14754TIP3    H165753   1.038   1.951  46.324 -0.5222  1.4956 -0.0009
14754TIP3    H265754   1.148   1.962  46.428 -1.2729  0.4016  0.9385
14755TIP3   OH265755   0.837   2.185  11.774 -0.7611 -0.5629  0.0393
14755TIP3    H165756   0.809   2.108  11.724 -0.4693 -0.3131 -0.5274
14755TIP3    H265757   0.918   2.159  11.816  0.0246 -0.1789 -1.1849
14756TIP3   OH265758   2.409   1.204  17.930  0.1849 -0.5724 -0.0045
14756TIP3    H165759   2.381   1.112  17.935 -0.9957 -0.2372 -0.2894
14756TIP3    H265760   2.490   1.207  17.982 -0.5693 -1.4612  1.2799
14757TIP3   OH265761   1.808   2.233  14.158  0.3376  0.7910 -0.1000
14757TIP3    H165762   1.823   2.321  14.124  1.4888  0.6683  0.0441
14757TIP3    H265763   1.777   2.183  14.083 -0.5239  1.3559 -0.1367
14758TIP3   OH265764   3.695   3.800  38.963  0.3121 -0.3274  0.0958
14758TIP3    H165765   3.620   3.739  38.962 -0.2025  0.1814 -2.8700
14758TIP3    H265766   3.662   3.877  39.010 -0.5936 -0.6067 -0.0480
14759TIP3   OH265767   0.509   3.046   4.062  0.4085 -0.5012 -0.7266
14759TIP3    H165768   0.537   2.957   4.086  1.4101  0.0238  0.1214
14759TIP3    H265769   0.541   3.101   4.134  0.5987  0.6711 -1.6917
14760TIP3   OH265770   3.682   3.230   7.265 -0.3220  0.1518  0.2005
14760TIP3    H165771   3.715   3.310   7.307 -2.6401  1.6838 -0.6958
14760TIP3    H265772   3.717   3.233   7.177 -0.5130  0.2560  0.1273
14761TIP3   OH265773   2.732   0.426   3.603  0.1457  0.0345 -0.7773
14761TIP3    H165774   2.738   0.341   3.560  1.5403 -0.6222  0.6338
14761TIP3    H265775   2.695   0.407   3.689  0.6790  0.8127 -0.3591
14762TIP3   OH265776   3.004   0.802   4.089  0.2774 -0.4170 -0.1828
14762TIP3    H165777   2.962   0.815   4.004 -0.1716  0.5012  0.1628
14762TIP3    H265778   3.091   0.768   4.067 -0.3480 -1.5992 -0.9395
14763TIP3   OH265779   2.138   3.813   1.802 -0.0862  0.5175  1.0408
14763TIP3    H165780   2.158   3.832   1.711  0.9081  0.9182  1.3265
14763TIP3    H265781   2.184   3.731   1.820 -0.4617  0.3244  1.1201
14764TIP3   OH265782   1.605   0.816  41.379  0.1958 -0.0153  0.4236
14764TIP3    H165783   1.626   0.827  41.287  0.1067 -0.1664  0.3835
14764TIP3    H265784   1.602   0.721  41.392 -0.9712 -0.0087  0.3051
14765TIP3   OH265785   1.484   1.541  12.935 -0.0539  0.6354  0.0558
14765TIP3    H165786   1.527   1.535  12.850  0.8292 -0.3089  0.5364
14765TIP3    H265787   1.459   1.633  12.943  1.1874  1.0620 -0.5912
14766TIP3   OH265788   1.882   3.306   1.618  0.3139 -0.2332 -0.1202
14766TIP3    H165789   1.931   3.224   1.626  1.2436  0.2545 -0.6085
14766TIP3    H265790   1.823   3.307   1.693  0.1155 -1.4661 -0.2479
14767TIP3   OH265791   1.502   3.716  32.802  0.0589  0.0398  0.0193
14767TIP3    H165792   1.447   3.739  32.877  0.3001  0.9164 -0.0622
14767TIP3    H265793   1.565   3.653  32.837 -0.0542  0.1745  0.4703
14768TIP3   OH265794   0.267   1.770  41.455 -0.4781 -0.4087 -0.3464
14768TIP3    H165795   0.265   1.765  41.550 -0.0185 -1.4503 -0.3748
14768TIP3    H265796   0.359   1.777  41.432 -0.6009  0.1269 -0.7121
14769TIP3   OH265797   1.801   1.594  41.418 -0.2605  0.1927  0.0096
14769TIP3    H165798   1.780   1.569  41.508  0.0658 -0.5105 -0.1070
14769TIP3    H265799   1.718   1.628  41.383 -0.9554 -1.5224 -0.0867
14770TIP3   OH265800   2.890   1.651  34.007 -0.0906 -0.0006  0.3988
14770TIP3    H165801   2.856   1.734  34.040  0.4808 -0.0001  0.9964
14770TIP3    H265802   2.813   1.594  34.001 -0.3534  0.3087  0.7911
14771TIP3   OH265803   1.312   1.431  42.740 -0.2483  0.7072 -0.0390
14771TIP3    H165804   1.364   1.469  42.811 -0.5634  0.1941  0.4849
14771TIP3    H265805   1.224   1.467  42.753 -0.3030  0.6249 -0.1831
14772TIP3   OH265806   0.089   0.618  34.868 -0.1740 -0.1317 -0.1918
14772TIP3    H165807   0.164   0.668  34.900  0.5570 -0.9047 -0.6505
14772TIP3    H265808   0.054   0.670  34.796  0.9065 -0.5277 -1.0141
14773TIP3   OH265809   3.877   0.877  44.643  0.1981  0.3956 -0.5018
14773TIP3    H165810   3.930   0.886  44.721 -1.0643 -0.5732  0.5121
14773TIP3    H265811   3.869   0.782  44.630 -1.1324  0.5031 -0.6951
14774TIP3   OH265812   1.459   4.103  27.414 -0.0752 -0.5349  0.2109
14774TIP3    H165813   1.481   4.016  27.380  0.5591 -0.3390  0.1108
14774TIP3    H265814   1.481   4.098  27.507 -0.8158 -0.7345  0.3860
14775TIP3   OH265815   2.990   2.175  11.964  0.6541  0.1915  0.5177
14775TIP3    H165816   3.044   2.247  11.932 -1.4122  1.0728 -1.1962
14775TIP3    H265817   2.966   2.126  11.885 -2.0416  0.5646  1.0136
14776TIP3   OH265818   0.082   2.465  34.263  0.5472  0.0664  0.1064
14776TIP3    H165819   0.143   2.534  34.235  0.5396  0.6151  1.3822
14776TIP3    H265820   0.131   2.384  34.253  0.7636  0.2932 -0.8391
14777TIP3   OH265821   1.471   3.018  34.885  0.1646 -0.3887 -0.0027
14777TIP3    H165822   1.421   2.946  34.923  2.3142 -2.1734 -0.3568
14777TIP3    H265823   1.556   3.013  34.928  0.7742  1.1754 -0.9507
14778TIP3   OH265824   0.383   3.853   4.271  0.3681 -0.3026 -0.0469
14778TIP3    H165825   0.330   3.871   4.349  0.6128 -0.9536  0.2789
14778TIP3    H265826   0.460   3.808   4.305  0.5032 -0.5432 -0.6682
14779TIP3   OH265827   2.493   1.205  43.085  0.0942  0.2869 -0.4118
14779TIP3    H165828   2.407   1.245  43.095 -1.0042 -1.5877 -1.6272
14779TIP3    H265829   2.509   1.208  42.990  1.3678  0.5751 -0.1970
14780TIP3   OH265830   0.929   0.052  35.016 -0.4846 -0.2987  0.4297
14780TIP3    H165831   1.020   0.027  35.003 -1.0261 -2.1772 -0.1158
14780TIP3    H265832   0.883   0.015  34.941 -1.8649 -0.4795  1.3143
14781TIP3   OH265833   3.210   3.945  42.807 -0.2187 -0.7689  0.9844
14781TIP3    H165834   3.159   4.025  42.793  2.1784  0.6085 -0.6286
14781TIP3    H265835   3.215   3.905  42.720 -1.1395 -2.5813  1.7253
14782TIP3   OH265836   0.926   3.803  33.279  0.2428 -0.7797 -0.1244
14782TIP3    H165837   0.918   3.881  33.333  0.8152  0.1404 -1.3131
14782TIP3    H265838   0.959   3.735  33.338  1.9290  0.4818  0.4604
14783TIP3   OH265839   1.001   1.345  17.501  0.3428 -0.4759 -0.4049
14783TIP3    H165840   0.984   1.362  17.408  0.7955 -1.5611 -0.7099
14783TIP3    H265841   1.002   1.431  17.542 -3.4827 -0.0779 -0.7560
14784TIP3   OH265842   0.300   1.116   2.942 -0.4856 -0.3637 -0.1981
14784TIP3    H165843   0.240   1.148   2.874 -0.8294 -0.5277  0.0227
14784TIP3    H265844   0.356   1.054   2.896 -2.4758 -2.5715  0.1897
14785TIP3   OH265845   2.702   3.696  42.658 -0.5476 -0.1670 -0.0780
14785TIP3    H165846   2.785   3.663  42.692 -1.0132 -1.5343 -0.1878
14785TIP3    H265847   2.636   3.641  42.700 -1.5045  1.6736  0.9326
14786TIP3   OH265848   0.155   2.053  46.862 -0.1312 -0.4632 -0.3321
14786TIP3    H165849   0.099   2.011  46.796 -1.9324  0.7134  0.3936
14786TIP3    H265850   0.157   2.145  46.836 -0.1327 -0.1488  0.7646
14787TIP3   OH265851   0.393   0.337  40.349 -0.4894 -0.4316 -0.2579
14787TIP3    H165852   0.415   0.289  40.429  0.8954 -0.5972 -0.7033
14787TIP3    H265853   0.456   0.304  40.285  0.5157  1.9605 -0.5878
14788TIP3   OH265854   1.367   2.158  40.529 -0.6018 -0.1350 -0.3219
14788TIP3    H165855   1.366   2.253  40.514 -1.8983 -0.4473 -2.7021
14788TIP3    H265856   1.457   2.138  40.551 -0.0938  1.5392 -0.7187
14789TIP3   OH265857   1.366   2.065   1.425 -0.3523  0.1174  0.0751
14789TIP3    H165858   1.370   2.156   1.453  1.3299  0.2208 -0.3818
14789TIP3    H265859   1.381   2.014   1.506  3.2262  0.3892 -0.2663
14790TIP3   OH265860   0.113   1.664  20.830 -0.1447  0.5857  0.1752
14790TIP3    H165861   0.074   1.658  20.917  1.8034 -0.7825  1.0377
14790TIP3    H265862   0.087   1.584  20.786 -1.1839  1.3084 -0.5601
14791TIP3   OH265863   1.686   3.898   3.209 -0.0560 -0.2206  0.5722
14791TIP3    H165864   1.712   3.815   3.168  1.9663  0.6932 -0.1154
14791TIP3    H265865   1.746   3.908   3.282 -0.5393  0.4574  0.8784
14792TIP3   OH265866   1.322   1.502   3.436  0.1153 -0.3517 -0.5446
14792TIP3    H165867   1.317   1.488   3.530 -1.0014 -0.8285 -0.6617
14792TIP3    H265868   1.242   1.550   3.415  0.4904 -0.0122 -1.2083
14793TIP3   OH265869   2.078   0.744  14.735 -0.4205  0.1324 -0.4758
14793TIP3    H165870   2.171   0.724  14.719 -0.2144  0.8279 -0.1872
14793TIP3    H265871   2.077   0.837  14.757 -1.2145  0.1672 -0.6386
14794TIP3   OH265872   1.461   3.196   5.285 -0.1838  0.2830 -0.2271
14794TIP3    H165873   1.387   3.244   5.247 -1.6887 -1.0485  0.8803
14794TIP3    H265874   1.536   3.255   5.274 -1.1569  1.2295 -2.3670
14795TIP3   OH265875   0.099   0.739  34.292 -0.6088 -0.2418  0.6079
14795TIP3    H165876   0.143   0.659  34.319 -2.1767 -0.8924  1.3776
14795TIP3    H265877   0.056   0.717  34.210  0.0915  0.2370  0.1090
14796TIP3   OH265878   0.561   1.060   3.145  0.0251  0.2329 -0.5036
14796TIP3    H165879   0.480   1.107   3.124  0.8628  0.7311 -3.0153
14796TIP3    H265880   0.557   0.981   3.091  2.5304  1.7965 -3.2764
14797TIP3   OH265881   1.502   2.939  47.514 -0.3324  0.2824 -0.2545
14797TIP3    H165882   1.555   2.971  47.441  0.2407 -2.9572 -1.4417
14797TIP3    H265883   1.422   2.907  47.474 -1.3596  1.2206  0.9845
14798TIP3   OH265884   3.705   3.903  42.701 -0.3420 -0.1976 -0.0625
14798TIP3    H165885   3.630   3.879  42.647  0.3208  1.5596 -1.8996
14798TIP3    H265886   3.670   3.909  42.790 -2.0880 -0.6385 -0.6892
14799TIP3   OH265887   3.874   0.725  44.978 -0.2005 -0.4525  0.1173
14799TIP3    H165888   3.948   0.769  44.935  0.1044 -0.6481  0.4375
14799TIP3    H265889   3.802   0.788  44.970 -0.4200 -0.8707 -1.5077
14800TIP3   OH265890   2.571   0.650   6.715 -0.4736 -0.6186  0.1243
14800TIP3    H165891   2.558   0.670   6.622 -1.3017 -0.3046  0.3044
14800TIP3    H265892   2.571   0.735   6.759 -0.4603 -0.7911  0.4642
14801TIP3   OH265893   0.208   0.620  47.547  0.0915  0.6844  0.3101
14801TIP3    H165894   0.231   0.529  47.567 -1.7394  0.3928  1.2731
14801TIP3    H265895   0.218   0.627  47.452  0.1848 -0.5369  0.2105
14802TIP3   OH265896   2.644   1.639  42.680 -0.5138 -0.8127  0.3840
14802TIP3    H165897   2.649   1.731  42.706 -0.9780 -0.9076  0.8107
14802TIP3    H265898   2.727   1.623  42.634 -0.9330  0.1438 -0.7645
14803TIP3   OH265899   2.676   1.260  42.106  0.6502  0.1214 -0.4786
14803TIP3    H165900   2.678   1.169  42.136  0.6345 -0.1648 -1.3229
14803TIP3    H265901   2.738   1.262  42.032  1.3479  1.0070  0.1124
14804TIP3   OH265902   1.310   1.463  35.310  0.3272  0.5357 -0.0676
14804TIP3    H165903   1.215   1.453  35.304  0.4546 -1.4910  0.6004
14804TIP3    H265904   1.324   1.558  35.305 -1.6401  0.8316 -1.0526
14805TIP3   OH265905   3.531   2.960  13.877  0.2629 -0.1863  0.0886
14805TIP3    H165906   3.624   2.941  13.891 -0.0685 -1.6543  0.4739
14805TIP3    H265907   3.520   3.049  13.909  1.6843  0.3061 -0.6775
14806TIP3   OH265908   2.779   2.702  44.837 -0.6190 -0.1981  0.2764
14806TIP3    H165909   2.794   2.777  44.895  2.8415 -1.4561  1.2373
14806TIP3    H265910   2.776   2.626  44.896  1.5667 -1.3562 -0.9891
14807TIP3   OH265911   0.091   1.874  35.600 -0.5080  0.4170 -0.5235
14807TIP3    H165912   0.135   1.925  35.533 -0.0359 -0.9128 -1.2622
14807TIP3    H265913   0.003   1.912  35.604 -0.4208  0.7807 -1.6143
14808TIP3   OH265914   2.661   1.632  17.102  0.2001 -0.2367 -0.1881
14808TIP3    H165915   2.640   1.726  17.101  0.6305 -0.0881  1.6610
14808TIP3    H265916   2.601   1.594  17.038 -0.7696  1.1573 -0.1534
14809TIP3   OH265917   0.511   1.293  14.366  0.6932 -0.1626 -0.0189
14809TIP3    H165918   0.579   1.233  14.337  0.3911 -0.2706 -0.5174
14809TIP3    H265919   0.466   1.246  14.436 -0.4467 -1.1247 -1.3438
14810TIP3   OH265920   3.879   2.417   5.493  0.2918  0.5090  0.7941
14810TIP3    H165921   3.957   2.471   5.482  0.0196  0.6739 -0.5180
14810TIP3    H265922   3.866   2.375   5.408 -1.0210  0.4526  0.9897
14811TIP3   OH265923   1.589   3.091  12.829 -0.8025 -0.7770 -0.5046
14811TIP3    H165924   1.506   3.094  12.782 -0.8453 -0.2550 -0.4035
14811TIP3    H265925   1.649   3.048  12.769 -1.1386 -1.1319 -0.5900
14812TIP3   OH265926   1.737   3.382  12.368 -0.7592  0.0547 -0.0107
14812TIP3    H165927   1.830   3.377  12.346 -0.8577  0.9774 -0.6912
14812TIP3    H265928   1.692   3.352  12.290 -1.0562  0.7990 -0.1361
14813TIP3   OH265929   3.303   3.641  47.166 -0.0193  0.2032 -0.4982
14813TIP3    H165930   3.377   3.700  47.178  0.1240  0.2538 -1.4871
14813TIP3    H265931   3.251   3.683  47.097 -0.9309  0.1305  0.1311
14814TIP3   OH265932   0.711   0.904   4.427 -0.6529  0.0874  0.0751
14814TIP3    H165933   0.639   0.942   4.478 -1.1290  0.6178 -0.9697
14814TIP3    H265934   0.693   0.810   4.428 -0.5071  0.0588  1.0948
14815TIP3   OH265935   0.682   0.377   7.156 -0.2708 -0.0291  0.0606
14815TIP3    H165936   0.710   0.288   7.176 -0.6540 -0.0885  0.3420
14815TIP3    H265937   0.733   0.432   7.215  0.1861 -0.0356 -0.3229
14816TIP3   OH265938   2.050   3.156  30.083 -0.0800 -0.1705 -0.3802
14816TIP3    H165939   2.138   3.160  30.121  0.7674 -1.3389 -2.0772
14816TIP3    H265940   2.043   3.235  30.030 -1.3052  1.5176  2.1238
14817TIP3   OH265941   0.245   0.118  25.776 -0.5000 -0.6285  0.0831
14817TIP3    H165942   0.285   0.034  25.754 -2.1429 -1.1935 -0.9055
14817TIP3    H265943   0.191   0.140  25.701  0.6465  1.8576 -0.1266
14818TIP3   OH265944   1.074   2.909   6.872 -0.0095  0.5916  0.2246
14818TIP3    H165945   1.164   2.922   6.844  0.0686  0.5387  0.4467
14818TIP3    H265946   1.059   2.976   6.939  0.4220 -0.4624  1.4258
14819TIP3   OH265947   2.531   2.941  33.301 -0.7448  0.5472  0.5114
14819TIP3    H165948   2.507   2.866  33.247  1.8487  1.0308 -1.5185
14819TIP3    H265949   2.522   2.910  33.391 -0.4488 -1.9589 -0.2627
14820TIP3   OH265950   0.919   3.411  29.844  0.1397 -0.3297  0.0677
14820TIP3    H165951   0.836   3.427  29.889  0.6395 -0.7107  1.1662
14820TIP3    H265952   0.986   3.442  29.905  0.7755  1.3343 -1.4066
14821TIP3   OH265953   2.111   1.931  42.634  0.3142 -0.2758  0.3756
14821TIP3    H165954   2.181   1.982  42.592  0.6117 -1.0966 -0.1427
14821TIP3    H265955   2.043   1.924  42.567  0.7965 -1.6009 -0.0103
14822TIP3   OH265956   1.519   1.176   7.243  0.1045  0.2166 -0.0059
14822TIP3    H165957   1.557   1.114   7.305  0.3583  0.2172 -0.1608
14822TIP3    H265958   1.575   1.254   7.249 -0.4103  0.5570  0.4336
14823TIP3   OH265959   3.080   2.098  45.102  0.0915  0.1189  0.2030
14823TIP3    H165960   3.172   2.089  45.126  0.1124  0.8769  0.4499
14823TIP3    H265961   3.031   2.076  45.181 -0.0270 -1.9229 -0.3755
14824TIP3   OH265962   0.810   0.976   9.690 -0.2102  0.0202 -0.3508
14824TIP3    H165963   0.893   0.971   9.737  0.1011 -0.6452 -0.9617
14824TIP3    H265964   0.832   0.956   9.599 -1.2381 -1.5423 -0.3025
14825TIP3   OH265965   2.141   3.943  32.368 -0.9761 -0.1659  0.1265
14825TIP3    H165966   2.185   3.991  32.298  0.1841 -0.7709  0.4270
14825TIP3    H265967   2.063   3.997  32.388 -0.0585  1.2613  0.0179
14826TIP3   OH265968   1.070   2.348  18.118 -0.0137  0.0346  0.2042
14826TIP3    H165969   0.985   2.305  18.121  0.0985 -0.1238  1.3486
14826TIP3    H265970   1.059   2.418  18.053 -1.1925  0.3902  0.7679
14827TIP3   OH265971   0.502   1.778  46.692  0.5007 -0.0214  0.1151
14827TIP3    H165972   0.573   1.841  46.707 -0.7556  1.6438 -0.6028
14827TIP3    H265973   0.447   1.785  46.770  0.4142 -0.3192  0.0804
14828TIP3   OH265974   3.127   2.294  20.254  0.0242  0.1238  0.2543
14828TIP3    H165975   3.214   2.281  20.291 -0.0624 -0.5350  0.2443
14828TIP3    H265976   3.083   2.353  20.315 -0.2765 -1.3208  1.5128
14829TIP3   OH265977   2.153   1.648   5.564  0.2850  0.1220  0.1901
14829TIP3    H165978   2.186   1.574   5.513  0.1223  1.4158 -1.9258
14829TIP3    H265979   2.202   1.723   5.531 -0.2600  1.1128  1.5623
14830TIP3   OH265980   0.344   2.655  43.425  0.6118  0.2174 -0.4131
14830TIP3    H165981   0.334   2.739  43.381  0.3783 -0.3959 -1.5677
14830TIP3    H265982   0.378   2.596  43.358  0.8002 -0.6104  0.3815
14831TIP3   OH265983   3.093   2.621  31.057 -0.5651 -0.6965  0.2569
14831TIP3    H165984   3.020   2.594  31.002 -1.0660 -0.1698  0.6429
14831TIP3    H265985   3.051   2.661  31.134  0.1216  0.9498 -0.1738
14832TIP3   OH265986   2.087   1.652  37.956 -0.8348 -0.3446  0.1871
14832TIP3    H165987   2.088   1.649  38.052  0.8023 -3.5583  0.2171
14832TIP3    H265988   2.171   1.690  37.932 -0.2735 -1.6178  0.0823
14833TIP3   OH265989   2.055   2.645  11.064  0.2399 -0.4806  0.3418
14833TIP3    H165990   1.984   2.586  11.039 -0.4943  0.8237 -0.7654
14833TIP3    H265991   2.013   2.729  11.082  1.1249 -0.5252  3.0648
14834TIP3   OH265992   2.156   3.736   0.659  0.1112  0.1222 -0.5985
14834TIP3    H165993   2.215   3.735   0.584 -0.1254 -0.2526 -0.7840
14834TIP3    H265994   2.123   3.826   0.661 -1.4062 -0.3351 -2.1728
14835TIP3   OH265995   3.302   3.041  30.355  0.5355  0.7193  0.7242
14835TIP3    H165996   3.289   2.979  30.426 -1.5259  0.0719 -0.1446
14835TIP3    H265997   3.238   3.110  30.371  1.5282  1.6988  0.6438
14836TIP3   OH265998   3.586   3.186  15.492 -0.3688 -0.0195  0.3135
14836TIP3    H165999   3.577   3.267  15.441 -2.2257 -0.4358 -0.1125
14836TIP3    H266000   3.555   3.210  15.579 -1.9211 -0.4601 -0.0741
14837TIP3   OH266001   1.843   1.902  15.583 -0.3457 -0.4064 -0.3307
14837TIP3    H166002   1.879   1.974  15.634  1.4380 -2.2890  1.2467
14837TIP3    H266003   1.750   1.900  15.606 -0.3597  1.1462 -0.1481
14838TIP3   OH266004   1.225   1.481  35.594 -0.0467 -0.4208 -0.3998
14838TIP3    H166005   1.189   1.480  35.506  1.4758  1.0393 -1.0870
14838TIP3    H266006   1.185   1.405  35.637 -1.9594 -0.2881 -1.8445
14839TIP3   OH266007   0.483   0.151  37.221 -0.0315  0.1295 -0.4274
14839TIP3    H166008   0.572   0.180  37.241  0.2526 -0.3990 -0.8887
14839TIP3    H266009   0.439   0.229  37.189  0.3419  0.3385 -0.4345
14840TIP3   OH266010   1.512   0.028  27.681  0.5098  0.0419  0.2282
14840TIP3    H166011   1.602   0.058  27.693  0.0826  1.5597 -0.2393
14840TIP3    H266012   1.469   0.048  27.764 -0.7083  4.3027 -1.1979
14841TIP3   OH266013   0.110   0.308  13.915 -0.3045 -0.1545  0.0575
14841TIP3    H166014   0.158   0.381  13.875 -1.0084  1.0654  1.3740
14841TIP3    H266015   0.176   0.239  13.925  0.7062  0.7746  0.0309
14842TIP3   OH266016   1.603   2.747  16.353  0.1008  0.1999 -0.5777
14842TIP3    H166017   1.530   2.759  16.291 -0.0789 -0.5386 -0.5176
14842TIP3    H266018   1.642   2.834  16.360  0.6537  0.1365 -2.3819
14843TIP3   OH266019   1.914   3.939   6.024 -0.1347  0.5288  0.1964
14843TIP3    H166020   1.979   3.912   5.959  0.0108  0.5610  0.3258
14843TIP3    H266021   1.917   4.034   6.024 -1.0570  0.5699 -0.6667
14844TIP3   OH266022   1.850   3.076   2.373 -0.3522  0.0450  0.4009
14844TIP3    H166023   1.887   3.147   2.426 -0.9919  1.2686 -0.7350
14844TIP3    H266024   1.910   3.067   2.300 -0.3174 -0.5514  0.4977
14845TIP3   OH266025   3.086   1.278  12.438  0.0181 -0.7764  0.5407
14845TIP3    H166026   3.172   1.320  12.440  0.2285 -1.2109  0.7447
14845TIP3    H266027   3.098   1.202  12.380  0.3438 -2.0379  2.1653
14846TIP3   OH266028   1.763   3.170   5.578  0.0243  0.3456  0.2326
14846TIP3    H166029   1.769   3.261   5.549  1.2396  0.5631  1.0711
14846TIP3    H266030   1.670   3.151   5.578 -0.1448  0.9120 -1.9678
14847TIP3   OH266031   1.721   3.002  42.956  0.0129  0.4391  0.0151
14847TIP3    H166032   1.668   2.941  43.009  1.0757 -0.0528  0.5361
14847TIP3    H266033   1.730   2.958  42.871  0.8427 -0.1912  0.4144
14848TIP3   OH266034   3.768   1.690   5.975 -0.2129 -0.3434  0.3718
14848TIP3    H166035   3.826   1.698   5.900  0.0135  0.8673  0.6501
14848TIP3    H266036   3.738   1.780   5.992 -0.1266 -0.5596  1.8245
14849TIP3   OH266037   0.929   3.375  40.377  0.4514  0.1277 -0.0998
14849TIP3    H166038   0.933   3.285  40.343 -0.2851  0.2885 -0.6371
14849TIP3    H266039   0.861   3.417  40.325  0.2256  0.7700  0.7059
14850TIP3   OH266040   2.566   3.045  41.398  0.1710  0.0370  0.2025
14850TIP3    H166041   2.659   3.023  41.405  0.4881  0.8861 -0.9393
14850TIP3    H266042   2.531   3.033  41.486  1.1847 -1.0695  0.4767
14851TIP3   OH266043   3.072   0.381   0.226 -1.0372 -0.2291 -0.5330
14851TIP3    H166044   3.115   0.299   0.202 -0.6238 -0.3342  0.4992
14851TIP3    H266045   3.096   0.442   0.156  3.0029  0.4409  1.1230
14852TIP3   OH266046   0.563   3.255  36.229  0.1979 -0.6472  0.7853
14852TIP3    H166047   0.600   3.231  36.145  0.0257  2.2741 -0.2615
14852TIP3    H266048   0.585   3.183  36.287  1.2269 -2.2844 -1.4925
14853TIP3   OH266049   3.581   2.397  14.338  0.7349  0.3697 -0.4643
14853TIP3    H166050   3.596   2.488  14.361  0.4415  0.1475  0.6754
14853TIP3    H266051   3.662   2.352  14.364 -0.3601 -0.2272  2.2393
14854TIP3   OH266052   0.086   3.712   7.032 -0.8036  0.4324  0.5138
14854TIP3    H166053  -0.005   3.690   7.012 -0.6791  0.7077 -0.4190
14854TIP3    H266054   0.111   3.776   6.965  0.2614 -0.0833  0.3961
14855TIP3   OH266055   2.968   0.936   0.275 -0.4044 -0.5335  0.3526
14855TIP3    H166056   2.954   0.861   0.217 -0.6204  0.6318 -1.2072
14855TIP3    H266057   2.881   0.975   0.285 -0.1698 -0.0213  0.4446
14856TIP3   OH266058   1.098   0.723  32.023 -0.0766  0.4398 -0.2865
14856TIP3    H166059   1.071   0.815  32.030 -0.1821  0.3645  0.4335
14856TIP3    H266060   1.101   0.706  31.929  3.3442  2.1663 -0.6273
14857TIP3   OH266061   3.398   1.253   7.672 -0.1951  0.4339  0.5972
14857TIP3    H166062   3.355   1.203   7.741  2.6681 -2.0598  0.7561
14857TIP3    H266063   3.460   1.310   7.718 -0.0828  0.6522  0.1857
14858TIP3   OH266064   0.521   1.690  41.375 -0.0163  0.0934 -0.3051
14858TIP3    H166065   0.551   1.772  41.416 -1.6354 -0.2409  1.7630
14858TIP3    H266066   0.569   1.622  41.422 -0.4581 -0.2261 -0.3144
14859TIP3   OH266067   0.275   1.383  15.828 -0.0211  0.4617  0.1323
14859TIP3    H166068   0.318   1.467  15.809  0.1661 -0.2281 -3.2376
14859TIP3    H266069   0.333   1.317  15.790 -0.7871 -1.1263  1.5756
14860TIP3   OH266070   3.066   0.675   4.568 -0.0380 -0.0604 -1.0685
14860TIP3    H166071   3.007   0.750   4.572  0.8499  0.6322 -0.0190
14860TIP3    H266072   3.143   0.707   4.520 -0.1909 -0.7182 -1.7728
14861TIP3   OH266073   1.734   0.955  33.209  0.1225  0.6300 -0.2124
14861TIP3    H166074   1.661   0.978  33.152  0.7097 -1.4564 -1.9586
14861TIP3    H266075   1.793   1.031  33.204 -0.1941  0.8117 -1.8250
14862TIP3   OH266076   0.597   0.808  13.709 -0.0942 -0.7440 -0.3179
14862TIP3    H166077   0.599   0.761  13.793 -3.4612 -1.0621 -0.2522
14862TIP3    H266078   0.622   0.742  13.645  0.9703 -0.9407  0.2711
14863TIP3   OH266079   0.074   0.301  41.484  0.3562 -0.3774  0.1593
14863TIP3    H166080   0.162   0.279  41.514  1.1665  0.0404 -1.7332
14863TIP3    H266081   0.056   0.386  41.524 -0.1836 -1.4858  2.4116
14864TIP3   OH266082   2.247   0.025  44.210 -0.2166 -0.3065  0.0243
14864TIP3    H166083   2.187   0.094  44.178 -0.3910 -1.4260 -2.2528
14864TIP3    H266084   2.258   0.045  44.303 -2.4193  1.2117  0.0530
14865TIP3   OH266085   3.394   2.862  31.187  0.2227 -0.3662  0.3972
14865TIP3    H166086   3.392   2.788  31.127 -0.2944 -0.7125  0.8269
14865TIP3    H266087   3.385   2.823  31.274 -0.5138  0.2183  0.6014
14866TIP3   OH266088   2.793   2.485   7.341 -0.0050 -0.4739  0.0396
14866TIP3    H166089   2.872   2.500   7.394 -0.0153 -0.1312 -0.0389
14866TIP3    H266090   2.775   2.392   7.351  1.2048 -0.8542 -1.0368
14867TIP3   OH266091   1.967   2.880   3.977 -0.2482 -0.2185 -0.2102
14867TIP3    H166092   2.016   2.898   4.057 -0.4079 -2.6166  0.5063
14867TIP3    H266093   1.878   2.863   4.007  0.1936 -3.6240 -0.4928
14868TIP3   OH266094   1.436   2.473  40.440  0.2068  0.6116  0.2710
14868TIP3    H166095   1.512   2.497  40.493  0.9473 -1.2239  0.1009
14868TIP3    H266096   1.384   2.553  40.435  2.0635  1.8919  0.4929
14869TIP3   OH266097   0.466   3.631  44.350 -0.1986  0.3133 -0.5795
14869TIP3    H166098   0.513   3.550  44.369 -0.5443 -0.3509 -2.3313
14869TIP3    H266099   0.374   3.610  44.365 -0.0790  1.4524  2.3194
14870TIP3   OH266100   2.714   4.094   2.817 -0.6970 -0.5962  0.1240
14870TIP3    H166101   2.644   4.134   2.765 -2.5462 -0.0437  2.8366
14870TIP3    H266102   2.697   4.000   2.813 -0.5186 -0.5990 -0.6519
14871TIP3   OH266103   0.020   0.836  41.024  0.1663  0.2909  0.4033
14871TIP3    H166104   0.055   0.915  41.064 -1.3902  0.4369  1.5450
14871TIP3    H266105  -0.017   0.865  40.941  1.0629  0.4444  0.0436
14872TIP3   OH266106   1.241   1.559  16.411 -0.4583 -0.3865  0.3843
14872TIP3    H166107   1.303   1.516  16.353  0.0982 -1.3486  1.6293
14872TIP3    H266108   1.157   1.519  16.390  0.0081 -1.9913  1.3533
14873TIP3   OH266109   3.708   1.982  37.010  0.6220  0.0201  0.4340
14873TIP3    H166110   3.749   2.012  36.929  0.8349  1.8660  1.1763
14873TIP3    H266111   3.750   2.034  37.079  0.6529 -1.6929  1.7921
14874TIP3   OH266112   3.282   3.064   7.344  0.1554  0.0616  0.8701
14874TIP3    H166113   3.371   3.032   7.356  0.1177  0.1998  1.5852
14874TIP3    H266114   3.281   3.150   7.385 -0.1366  0.3453  0.2812
14875TIP3   OH266115   1.961   1.427   8.828  0.2117 -0.1980  0.3443
14875TIP3    H166116   1.941   1.518   8.851 -0.6902 -0.5238  0.9628
14875TIP3    H266117   2.030   1.401   8.889  0.0634 -0.0931  0.5585
14876TIP3   OH266118   1.546   3.578  30.033 -0.3389  0.1550  1.0825
14876TIP3    H166119   1.574   3.652  29.978  2.6399  0.8375  3.2453
14876TIP3    H266120   1.556   3.501  29.977  1.5559  0.9255  0.2524
14877TIP3   OH266121   4.017   0.140  33.848 -0.3867  0.1618  0.3910
14877TIP3    H166122   4.028   0.098  33.934  0.5997 -0.6508 -0.1077
14877TIP3    H266123   4.103   0.179  33.830 -0.2020 -0.7498 -0.7694
14878TIP3   OH266124   1.291   1.750  42.145  0.2303  0.2294  0.2213
14878TIP3    H166125   1.379   1.769  42.113 -0.1652  2.0268  0.0621
14878TIP3    H266126   1.254   1.836  42.166 -0.6766 -0.6195  2.5006
14879TIP3   OH266127   2.168   3.533   1.410  0.4031 -0.2789 -0.9006
14879TIP3    H166128   2.097   3.471   1.394  0.4909 -0.1954 -1.6237
14879TIP3    H266129   2.233   3.513   1.343  0.5050  0.4861 -1.0412
14880TIP3   OH266130   0.197   2.083  32.496  0.5766 -0.5052  0.3694
14880TIP3    H166131   0.199   2.046  32.408  1.6887  0.4152 -0.0130
14880TIP3    H266132   0.287   2.077  32.528  0.1011 -1.2615  1.6446
14881TIP3   OH266133   0.435   2.634  40.180  0.0366 -0.0301  0.1144
14881TIP3    H166134   0.350   2.593  40.197 -0.6747  1.1527 -0.4516
14881TIP3    H266135   0.443   2.701  40.248  0.6694 -0.3540  0.3623
14882TIP3   OH266136   1.880   1.244   5.971  0.6873 -0.6268 -0.3869
14882TIP3    H166137   1.843   1.305   6.035 -1.7728 -3.3190  1.0157
14882TIP3    H266138   1.824   1.253   5.894  1.3799  0.0047 -0.8368
14883TIP3   OH266139   0.048   3.371  45.654  0.3302  0.4490  0.4422
14883TIP3    H166140  -0.024   3.404  45.600  0.0264  0.0323  0.5870
14883TIP3    H266141   0.006   3.342  45.735  0.5206 -0.6679  0.1595
14884TIP3   OH266142   3.321   3.003  36.493  0.1014 -0.2110 -0.2033
14884TIP3    H166143   3.369   2.935  36.446  1.8600  0.4911  0.4845
14884TIP3    H266144   3.379   3.028  36.564 -1.9751 -0.3968  1.6652
14885TIP3   OH266145   3.461   2.672   6.686  0.8037  0.1093 -0.3888
14885TIP3    H166146   3.481   2.585   6.720  2.0057 -0.0193 -1.3556
14885TIP3    H266147   3.455   2.727   6.764  0.5300 -0.7305  0.2028
14886TIP3   OH266148   2.936   0.644  24.471  0.1564  0.5053 -0.1595
14886TIP3    H166149   2.858   0.589  24.482 -0.0286  0.4668 -1.5414
14886TIP3    H266150   2.990   0.624  24.548 -0.3365 -0.8902 -0.1486
14887TIP3   OH266151   3.466   1.142  12.667  0.0515  0.4230 -0.4824
14887TIP3    H166152   3.413   1.091  12.728 -0.7413  1.2536 -0.4606
14887TIP3    H266153   3.552   1.148  12.710  1.0061 -3.0091 -1.6154
14888TIP3   OH266154   3.719   0.195  45.827 -0.1109  0.2093  0.6048
14888TIP3    H166155   3.769   0.277  45.826  1.2196 -0.5730 -0.0792
14888TIP3    H266156   3.768   0.139  45.889 -1.8302  0.3869  2.2148
14889TIP3   OH266157   2.109   0.049   9.477 -0.0801  0.2777  0.2482
14889TIP3    H166158   2.066   0.002   9.406 -0.2670 -2.0576  1.7865
14889TIP3    H266159   2.201   0.021   9.472 -0.0788  0.1626  0.8462
14890TIP3   OH266160   4.099   0.563  31.642  0.1167  0.0224 -0.3428
14890TIP3    H166161   4.136   0.521  31.720 -1.5016 -0.0811  0.3908
14890TIP3    H266162   4.168   0.554  31.576  0.2313 -2.9153  0.0541
14891TIP3   OH266163   1.695   2.014  13.099 -0.0255  0.2116  0.0363
14891TIP3    H166164   1.680   1.946  13.034 -2.0129  1.2769 -0.7032
14891TIP3    H266165   1.763   2.069  13.061 -1.9693  1.5022 -1.8211
14892TIP3   OH266166   4.067   3.144  13.296 -0.3403 -0.2184 -0.3082
14892TIP3    H166167   3.984   3.124  13.254  0.2344 -0.4186 -1.3707
14892TIP3    H266168   4.119   3.186  13.228  0.9631 -1.4112 -0.0834
14893TIP3   OH266169   3.024   3.774   1.532 -0.6008  0.0046 -0.5353
14893TIP3    H166170   2.938   3.806   1.504  0.0827  1.6206 -0.9172
14893TIP3    H266171   3.032   3.802   1.623 -1.5525 -2.5494  0.4125
14894TIP3   OH266172   1.479   2.862  37.517  0.2622  0.0625 -0.0697
14894TIP3    H166173   1.545   2.814  37.466 -0.0072 -2.6410  1.8813
14894TIP3    H266174   1.405   2.801  37.522 -1.0632  1.6667  0.6411
14895TIP3   OH266175   3.843   0.382  41.594  0.0974 -0.1209  0.2035
14895TIP3    H166176   3.886   0.308  41.551  2.8645  0.3643  1.8955
14895TIP3    H266177   3.821   0.350  41.681  3.7094  1.5677  1.9526
14896TIP3   OH266178   2.708   2.033  14.853 -0.2721  0.5342  0.3185
14896TIP3    H166179   2.619   2.000  14.857 -0.1557 -0.3567 -2.3408
14896TIP3    H266180   2.714   2.075  14.767  1.8282  0.7001  0.4991
14897TIP3   OH266181   2.274   0.936   4.404 -0.0756  0.8470  0.3000
14897TIP3    H166182   2.309   0.848   4.416  2.7907  0.9191 -4.7024
14897TIP3    H266183   2.209   0.927   4.335 -0.6448  2.4982  0.5747
14898TIP3   OH266184   3.570   0.676  42.671  0.2836  0.4979 -0.0553
14898TIP3    H166185   3.575   0.582  42.690 -0.4999 -0.1658 -2.6731
14898TIP3    H266186   3.571   0.718  42.757  1.9788 -1.7998  1.1669
14899TIP3   OH266187   1.988   1.222   6.967 -0.2333  0.1077 -0.1197
14899TIP3    H166188   2.057   1.278   7.002 -2.5547  1.6104  2.4488
14899TIP3    H266189   1.972   1.256   6.879  0.7377  1.1903  0.0966
14900TIP3   OH266190   4.021   1.310  37.312 -0.2637  0.1927  0.8296
14900TIP3    H166191   3.939   1.315  37.362 -1.5384 -3.0846 -0.6491
14900TIP3    H266192   3.996   1.334  37.223  0.5974  0.0045  0.5301
14901TIP3   OH266193   2.602   2.551   6.878 -0.1281  0.1301  0.1286
14901TIP3    H166194   2.638   2.486   6.939  0.8707  1.7883  1.3928
14901TIP3    H266195   2.532   2.594   6.928 -0.0359  0.7843 -0.2999
14902TIP3   OH266196   1.546   0.758  47.733 -0.6222  0.3900 -0.0110
14902TIP3    H166197   1.503   0.844  47.736  1.0925  1.2594  2.0905
14902TIP3    H266198   1.482   0.698  47.772 -0.6899  1.3147  1.3896
14903TIP3   OH266199   3.375   3.259   6.896 -0.1147  0.2781 -0.4305
14903TIP3    H166200   3.345   3.170   6.876  1.8968 -0.3379 -0.9345
14903TIP3    H266201   3.320   3.287   6.970  0.0648 -1.9025  0.6125
14904TIP3   OH266202   3.706   3.970  32.593  0.3868 -0.5977  0.0993
14904TIP3    H166203   3.751   4.007  32.668  0.1027 -1.2570  0.6075
14904TIP3    H266204   3.701   3.876  32.612 -3.0380 -0.3409  1.1087
14905TIP3   OH266205   0.202   0.592  33.871  0.1809 -0.2412  0.0749
14905TIP3    H166206   0.159   0.656  33.928  0.2684 -0.2695  0.1715
14905TIP3    H266207   0.241   0.529  33.931 -1.1210 -1.1910 -0.0322
14906TIP3   OH266208   2.280   1.851  10.070  0.0430 -0.2441 -0.0407
14906TIP3    H166209   2.335   1.789  10.118  0.1583 -0.9832 -1.0903
14906TIP3    H266210   2.339   1.890  10.005  0.0903  1.3452  0.9083
14907TIP3   OH266211   1.076   3.873  41.946  0.4149 -0.3279 -0.5617
14907TIP3    H166212   1.054   3.793  41.897  2.8997 -1.6971  0.3985
14907TIP3    H266213   1.067   3.847  42.038  3.2166 -0.2026 -0.1812
14908TIP3   OH266214   3.713   0.399   1.635 -0.5815 -0.0291 -0.0812
14908TIP3    H166215   3.676   0.363   1.715 -1.3144 -0.4915 -0.6141
14908TIP3    H266216   3.638   0.430   1.584  0.0390  2.4853  0.4246
14909TIP3   OH266217   1.400   3.193  47.227  0.6459  0.3151 -0.0721
14909TIP3    H166218   1.357   3.275  47.202  3.0622  1.2974 -1.4149
14909TIP3    H266219   1.347   3.125  47.187 -0.0077  1.4033 -1.1296
14910TIP3   OH266220   3.982   0.038   2.588 -0.7545 -0.1525  0.1750
14910TIP3    H166221   4.008   0.013   2.676  2.0927 -0.6071 -0.6748
14910TIP3    H266222   3.988  -0.043   2.537 -0.0521  0.5096 -0.8567
14911TIP3   OH266223   0.207   2.761   6.943 -0.0181  0.1652 -0.0778
14911TIP3    H166224   0.153   2.684   6.928 -1.1568  0.5754  1.6257
14911TIP3    H266225   0.188   2.819   6.869 -0.8050 -0.3015 -0.2538
14912TIP3   OH266226   0.546   0.137  30.729  0.6674 -0.3575 -0.2844
14912TIP3    H166227   0.548   0.225  30.691  1.0640 -0.5390 -0.6904
14912TIP3    H266228   0.620   0.135  30.789 -1.4948  0.8738  2.7104
14913TIP3   OH266229   0.505   0.914  34.103  0.1889  0.1860 -0.6197
14913TIP3    H166230   0.564   0.988  34.116  0.0614  0.2965 -0.6742
14913TIP3    H266231   0.441   0.945  34.039 -0.1341  0.1827 -0.3004
14914TIP3   OH266232   0.376   3.811  41.125  0.2090  0.4196  0.3447
14914TIP3    H166233   0.341   3.865  41.196  0.8993  1.0056  0.2528
14914TIP3    H266234   0.350   3.857  41.045  1.9484  1.4060  0.2792
14915TIP3   OH266235   1.854   1.080  11.791 -0.2844 -0.0982 -0.0668
14915TIP3    H166236   1.780   1.111  11.739 -1.0510 -0.2295  0.9174
14915TIP3    H266237   1.858   1.141  11.865  0.8469  0.1390 -0.3054
14916TIP3   OH266238   0.230   3.541   7.185  0.1600  0.0801 -0.5123
14916TIP3    H166239   0.179   3.595   7.126 -0.2909  2.2463  1.7135
14916TIP3    H266240   0.319   3.578   7.182 -0.3458  1.7058  1.6863
14917TIP3   OH266241   0.025   0.150  15.802 -0.7323 -0.0388 -0.1447
14917TIP3    H166242   0.008   0.237  15.765 -1.2605  0.1692  0.5731
14917TIP3    H266243   0.110   0.159  15.845 -0.7336  0.0916 -0.1678
14918TIP3   OH266244   0.779   1.502  45.005  0.2960 -0.1111  0.5124
14918TIP3    H166245   0.692   1.485  45.042 -0.1327  1.4152  0.2523
14918TIP3    H266246   0.826   1.546  45.075  0.9730 -1.1397  0.7314
14919TIP3   OH266247   3.548   0.680  44.204  0.5294  0.2500  0.1402
14919TIP3    H166248   3.465   0.636  44.217  1.6852 -2.0333  0.3515
14919TIP3    H266249   3.582   0.695  44.292  1.6250 -1.5946  0.0988
14920TIP3   OH266250   2.071   1.238  31.755  1.0366  0.3401 -0.2820
14920TIP3    H166251   2.139   1.246  31.688  0.3933  0.6596 -0.9160
14920TIP3    H266252   2.000   1.293  31.723  0.2870 -0.3690  0.1181
14921TIP3   OH266253   3.324   1.013   4.971 -0.0055  0.3632  0.6432
14921TIP3    H166254   3.331   0.997   4.877  0.3241 -2.7761  1.1033
14921TIP3    H266255   3.239   1.057   4.981 -1.3276 -1.6810 -0.9218
14922TIP3   OH266256   0.886   2.967  12.527  0.0286  0.1546 -0.0242
14922TIP3    H166257   0.917   2.939  12.440 -0.9583  0.8279 -0.6060
14922TIP3    H266258   0.899   2.889  12.582  0.5465 -0.3291 -0.7955
14923TIP3   OH266259   2.217   1.299  35.954  0.0800 -0.3986 -0.4213
14923TIP3    H166260   2.204   1.350  35.874  0.3303 -0.8386 -0.7525
14923TIP3    H266261   2.190   1.210  35.929 -4.1892  0.1995  1.2266
14924TIP3   OH266262   2.203   1.447   6.384  0.0163  0.0205  0.7732
14924TIP3    H166263   2.194   1.458   6.289  2.0943  0.8351  0.6219
14924TIP3    H266264   2.295   1.466   6.402 -0.5420  0.8609  3.0924
14925TIP3   OH266265   0.900   2.967   2.164  0.1511  0.5787 -0.0700
14925TIP3    H166266   0.909   2.951   2.258 -1.4862 -1.2499 -0.1497
14925TIP3    H266267   0.807   2.988   2.153 -0.7785 -3.4496 -1.6902
14926TIP3   OH266268   0.309   0.497  41.862 -0.0915  0.4065 -0.2956
14926TIP3    H166269   0.343   0.416  41.824 -1.1410  0.8217 -2.2712
14926TIP3    H266270   0.214   0.482  41.870 -0.5162  1.8314 -1.9256
14927TIP3   OH266271   1.216   1.930  47.258 -0.3539  0.3483 -0.3432
14927TIP3    H166272   1.229   1.836  47.247  1.0784  0.4846  0.0690
14927TIP3    H266273   1.146   1.951  47.195 -1.6159 -1.1829  0.4718
14928TIP3   OH266274   3.679   0.504  40.628 -0.8484  0.0764 -0.0154
14928TIP3    H166275   3.718   0.590  40.613  0.0273 -0.6023 -1.9051
14928TIP3    H266276   3.738   0.461  40.690  0.1664 -0.0816 -1.0602
14929TIP3   OH266277   2.465   1.526  34.795 -0.0859  0.0852 -0.1599
14929TIP3    H166278   2.412   1.578  34.735  0.2557  2.9972  1.8427
14929TIP3    H266279   2.555   1.537  34.763 -0.2095 -1.0634 -0.9367
14930TIP3   OH266280   1.168   0.446   0.554  0.6670 -0.2585 -0.0720
14930TIP3    H166281   1.164   0.352   0.573 -1.4780  0.4150  3.9924
14930TIP3    H266282   1.237   0.479   0.611  1.0136  0.7521 -1.0381
14931TIP3   OH266283   1.492   2.090  37.446  0.6797 -0.1928 -0.2216
14931TIP3    H166284   1.396   2.087  37.451  0.5145  0.8274 -1.9396
14931TIP3    H266285   1.518   2.000  37.431 -0.0096 -0.4771  0.2332
14932TIP3   OH266286   0.583   2.873  33.495 -0.0457 -0.1199 -0.5522
14932TIP3    H166287   0.541   2.926  33.427  0.5157  1.3841  0.2169
14932TIP3    H266288   0.672   2.858  33.461  1.3953  3.4695  1.1300
14933TIP3   OH266289   2.923   2.899  36.810  0.4718  0.1402 -0.3085
14933TIP3    H166290   2.839   2.938  36.832  0.7178  0.7108 -0.3819
14933TIP3    H266291   2.977   2.909  36.889  0.5913  0.0936 -0.3843
14934TIP3   OH266292   4.006   1.042  43.998  0.4212 -0.5913  0.2938
14934TIP3    H166293   3.954   1.016  44.075  0.1762 -0.4107  0.1915
14934TIP3    H266294   4.069   1.105  44.033 -0.7058  0.6942  0.0816
14935TIP3   OH266295   2.836   3.199   3.702  0.0107 -0.1632  0.1985
14935TIP3    H166296   2.773   3.226   3.770 -0.6303  1.3743 -0.9507
14935TIP3    H266297   2.846   3.277   3.647  2.3347 -0.6385 -0.1219
14936TIP3   OH266298   2.893   0.103  36.212  0.0249 -0.2094 -0.4172
14936TIP3    H166299   2.955   0.040  36.250 -0.0605 -0.0426  0.0051
14936TIP3    H266300   2.920   0.187  36.247 -0.7599 -0.2053  0.1915
14937TIP3   OH266301   4.091   1.124  15.471 -0.0034 -0.2283 -0.1059
14937TIP3    H166302   4.032   1.200  15.473  0.3238  0.0351 -0.4084
14937TIP3    H266303   4.177   1.161  15.450  0.2392 -0.6322  0.1668
14938TIP3   OH266304   3.373   2.719  35.004 -0.2177  0.0170 -0.2156
14938TIP3    H166305   3.444   2.782  35.013  0.8497 -1.4398  3.3732
14938TIP3    H266306   3.413   2.644  34.961 -0.6466  0.5270 -1.5640
14939TIP3   OH266307   2.181   2.638  38.649  1.0105  1.1400 -0.6787
14939TIP3    H166308   2.228   2.636  38.566  1.4104 -0.5602 -0.4309
14939TIP3    H266309   2.214   2.563  38.698 -2.5412 -0.7644 -0.8404
14940TIP3   OH266310   0.920   4.024   0.330 -0.0170 -0.8189 -0.2126
14940TIP3    H166311   0.980   4.086   0.372 -1.1565  0.7480 -0.8081
14940TIP3    H266312   0.966   3.940   0.334  2.3184  0.3479 -0.8517
14941TIP3   OH266313   0.586   0.277   0.774  0.4969 -0.3600  0.0967
14941TIP3    H166314   0.644   0.206   0.803 -1.0974 -1.8851 -0.3189
14941TIP3    H266315   0.519   0.282   0.841  0.2442  0.3395 -0.2006
14942TIP3   OH266316   2.705   3.940   9.519 -0.4665 -0.2964  0.2634
14942TIP3    H166317   2.647   3.866   9.501  0.9764 -1.3495 -0.2683
14942TIP3    H266318   2.793   3.904   9.511  0.2796  1.3142  0.7584
14943TIP3   OH266319   3.063   1.999  17.550 -0.4925 -0.5302  0.3063
14943TIP3    H166320   3.115   2.035  17.479 -1.6791 -0.9866 -0.8291
14943TIP3    H266321   2.976   1.988  17.513 -1.6179  0.8895  2.3677
14944TIP3   OH266322   2.499   1.599  42.376 -0.2514  0.1911 -0.3649
14944TIP3    H166323   2.549   1.679  42.390  1.8538 -0.8287 -1.6720
14944TIP3    H266324   2.504   1.553  42.460  0.5483  0.3602 -0.3120
14945TIP3   OH266325   2.691   1.548   1.007  0.6976 -0.1711  1.0205
14945TIP3    H166326   2.742   1.628   1.019  1.5631 -0.9192  2.4829
14945TIP3    H266327   2.754   1.484   0.974  0.1863 -0.4949  0.6530
14946TIP3   OH266328   3.130   1.740   4.731 -0.2173  0.0780  0.0785
14946TIP3    H166329   3.174   1.675   4.785 -0.4238  1.4271  1.9526
14946TIP3    H266330   3.040   1.707   4.721 -1.0059  1.0931  2.9858
14947TIP3   OH266331   3.442   0.713   2.394 -0.4209 -0.6081  0.2876
14947TIP3    H166332   3.366   0.657   2.409 -1.0253 -0.0672 -0.6251
14947TIP3    H266333   3.489   0.671   2.322 -0.1379 -0.6580  0.4985
14948TIP3   OH266334   3.575   3.450  41.923  0.9036  0.0144  0.1145
14948TIP3    H166335   3.632   3.454  41.846  1.1345  0.5916  0.3106
14948TIP3    H266336   3.631   3.415  41.992  1.8359  3.0192  1.0017
14949TIP3   OH266337   2.443   3.446   3.286 -0.1082 -0.1558  0.3874
14949TIP3    H166338   2.476   3.362   3.254  0.2751  0.4625 -0.9306
14949TIP3    H266339   2.368   3.423   3.341  1.3310 -1.4794  1.8832
14950TIP3   OH266340   3.690   1.529  19.938  0.5060  0.2155 -0.0804
14950TIP3    H166341   3.780   1.504  19.958  0.4763  0.0035 -0.1993
14950TIP3    H266342   3.636   1.471  19.993  0.4524  1.6788  1.4915
14951TIP3   OH266343   2.850   3.910  35.274 -0.0779  0.2015 -0.1644
14951TIP3    H166344   2.803   3.855  35.211  0.7730 -1.3903  0.5316
14951TIP3    H266345   2.908   3.963  35.221  2.1719 -2.5971 -0.7384
14952TIP3   OH266346   0.400   3.332  35.539 -0.1713 -0.3819 -0.0709
14952TIP3    H166347   0.412   3.383  35.459  0.4095  0.3728  0.4748
14952TIP3    H266348   0.394   3.241  35.510 -0.4986 -0.0683 -1.0062
14953TIP3   OH266349   3.141   2.682   9.278 -0.3575  0.5303  0.1387
14953TIP3    H166350   3.209   2.617   9.258 -0.9541 -0.8531  2.2317
14953TIP3    H266351   3.079   2.674   9.205 -1.1462 -2.3907  0.9847
14954TIP3   OH266352   1.350   3.506  34.028 -0.4613 -0.1939  0.0061
14954TIP3    H166353   1.340   3.420  34.069 -1.7793 -0.4981 -0.8927
14954TIP3    H266354   1.260   3.537  34.016 -0.0128  1.0630 -0.2041
14955TIP3   OH266355   1.332   0.136   1.917  0.5170  0.1345 -0.3537
14955TIP3    H166356   1.322   0.129   1.823 -2.4648 -0.7502 -0.0632
14955TIP3    H266357   1.277   0.210   1.942 -1.1163 -1.4228  0.9333
14956TIP3   OH266358   0.460   1.710  34.297 -0.0734 -0.4083 -0.1497
14956TIP3    H166359   0.418   1.724  34.213  1.2793 -1.4192 -1.0468
14956TIP3    H266360   0.553   1.699  34.276  0.0265 -2.7973  1.2232
14957TIP3   OH266361   1.721   1.667  14.606 -0.2017  0.6304  0.2386
14957TIP3    H166362   1.638   1.619  14.604  0.5563 -0.7188 -2.1467
14957TIP3    H266363   1.788   1.600  14.620  0.6406  1.4652  0.3381
14958TIP3   OH266364   0.376   3.186  31.783  0.2320 -0.0221 -0.1078
14958TIP3    H166365   0.310   3.118  31.769 -1.2772  1.4575 -0.4519
14958TIP3    H266366   0.421   3.193  31.699  1.3826 -1.5176  0.3227
14959TIP3   OH266367   2.214   0.308  38.038  0.0991 -0.2701 -0.2843
14959TIP3    H166368   2.177   0.386  38.080  0.4990  0.4313 -1.2094
14959TIP3    H266369   2.296   0.338  37.999 -0.2606 -0.8931 -1.5683
14960TIP3   OH266370   4.087   4.007   6.129 -0.0701 -0.3580  0.0437
14960TIP3    H166371   4.052   4.077   6.074  2.5010  1.6738  0.8418
14960TIP3    H266372   4.150   3.961   6.073  1.9873  1.2365  0.9444
14961TIP3   OH266373   2.165   1.950   4.944 -0.2027  0.5380 -0.1617
14961TIP3    H166374   2.116   2.028   4.921  0.1846  0.2506 -2.2266
14961TIP3    H266375   2.256   1.979   4.947 -0.3227  0.8958  2.8280
14962TIP3   OH266376   1.930   1.179  44.248 -0.1817  0.0036 -0.6957
14962TIP3    H166377   1.925   1.275  44.240 -2.9876  0.1371  1.2038
14962TIP3    H266378   1.841   1.149  44.233  0.4175 -2.2329 -0.1560
14963TIP3   OH266379   0.545   2.649  37.071 -0.9506 -0.4319  0.2426
14963TIP3    H166380   0.617   2.601  37.113  0.7932  1.6672 -0.1648
14963TIP3    H266381   0.514   2.709  37.139  0.2595  1.2763 -0.6267
14964TIP3   OH266382   0.865   0.433   4.799  0.5739  0.3984  0.3996
14964TIP3    H166383   0.859   0.445   4.894  1.2484 -0.1597  0.5277
14964TIP3    H266384   0.933   0.366   4.789 -0.5327 -0.6401 -0.4017
14965TIP3   OH266385   2.926   1.403  47.491  0.5927  0.4527 -0.2158
14965TIP3    H166386   2.890   1.334  47.435  1.4237 -0.5992  0.5231
14965TIP3    H266387   2.853   1.427  47.548  0.8545 -1.3186  0.9393
14966TIP3   OH266388   0.952   1.000  16.869  0.3345  0.2683 -0.7667
14966TIP3    H166389   0.977   0.909  16.886  2.2497  0.5526 -1.7247
14966TIP3    H266390   0.951   1.041  16.955  2.2845 -0.0501 -0.5258
14967TIP3   OH266391   4.039   1.057  35.636  0.1955  0.2249 -0.3963
14967TIP3    H166392   4.040   0.984  35.575  1.9995 -1.3160  1.3320
14967TIP3    H266393   4.089   1.026  35.712  0.2316  2.9282  0.8149
14968TIP3   OH266394   2.839   3.700  38.457  0.1034  0.9122  0.1384
14968TIP3    H166395   2.775   3.644  38.502  0.7834 -0.2023 -0.2439
14968TIP3    H266396   2.805   3.710  38.369  0.5944  0.0483 -0.1621
14969TIP3   OH266397   2.390   0.400  42.542  0.2546  0.7779  0.2316
14969TIP3    H166398   2.429   0.362  42.464 -2.1971  1.3002 -1.3360
14969TIP3    H266399   2.346   0.327  42.586  2.2246  0.3362  1.6078
14970TIP3   OH266400   3.385   3.740  36.252  0.4210 -0.3084  0.4122
14970TIP3    H166401   3.447   3.727  36.180  0.4472 -1.6348  0.6584
14970TIP3    H266402   3.324   3.667  36.245 -1.1433  0.9534  0.1961
14971TIP3   OH266403   1.625   0.272  38.401 -0.2278 -0.1018 -0.0615
14971TIP3    H166404   1.712   0.244  38.429  0.6123 -0.1081 -2.4526
14971TIP3    H266405   1.566   0.237  38.467  1.6657  1.4109  2.6628
14972TIP3   OH266406   1.688   0.835   1.257  0.6323  0.2897 -0.3329
14972TIP3    H166407   1.678   0.742   1.275  0.6062  0.2351 -0.6204
14972TIP3    H266408   1.655   0.845   1.168 -1.3776  0.9276  0.4241
14973TIP3   OH266409   1.294   3.536   3.164  0.3863  0.4982 -0.6054
14973TIP3    H166410   1.331   3.581   3.239  0.0063  1.0532 -0.7423
14973TIP3    H266411   1.306   3.597   3.091  2.4565 -0.7660 -1.4277
14974TIP3   OH266412   2.312   3.516  34.270 -0.6568  0.0431  0.2965
14974TIP3    H166413   2.313   3.561  34.186  1.4883 -4.1238 -2.2485
14974TIP3    H266414   2.402   3.520  34.301 -0.5071 -1.9117  0.2298
14975TIP3   OH266415   1.595   3.203  10.740  0.1807  0.2839  0.1757
14975TIP3    H166416   1.535   3.128  10.734  0.3809  0.0804  0.7095
14975TIP3    H266417   1.538   3.277  10.760  0.1690 -0.0319  1.4116
14976TIP3   OH266418   3.797   1.460  19.097 -0.2447  0.4293 -0.6822
14976TIP3    H166419   3.798   1.396  19.168 -1.1704 -0.3685 -1.3535
14976TIP3    H266420   3.854   1.531  19.127 -1.3206  0.5352  1.2558
14977TIP3   OH266421   0.707   3.378  25.466 -0.1989 -0.1074 -0.1571
14977TIP3    H166422   0.689   3.452  25.409 -3.1215 -2.1482 -2.1641
14977TIP3    H266423   0.659   3.397  25.547 -2.5209 -0.5454 -1.3671
14978TIP3   OH266424   2.647   3.476  30.322 -0.1821  0.3686 -0.1061
14978TIP3    H166425   2.641   3.409  30.390 -2.6861  0.9371  0.3357
14978TIP3    H266426   2.716   3.535  30.353  0.4943 -0.7590  0.6247
14979TIP3   OH266427   1.700   0.548  11.885  0.6313 -0.2784 -0.1530
14979TIP3    H166428   1.652   0.466  11.871 -0.7916  0.4286  0.4349
14979TIP3    H266429   1.699   0.560  11.979 -0.7939  1.3393 -0.3386
14980TIP3   OH266430   0.657   0.018  29.110 -0.5426 -0.3807  0.2111
14980TIP3    H166431   0.739   0.045  29.152 -1.4341  1.3049  0.9256
14980TIP3    H266432   0.673  -0.073  29.085  0.7161 -0.8541  2.4633
14981TIP3   OH266433   2.516   3.393  30.106 -0.0998 -0.3530  0.4046
14981TIP3    H166434   2.455   3.467  30.104 -1.1062 -1.1104  1.4800
14981TIP3    H266435   2.560   3.402  30.191 -1.0860 -1.6046  1.0858
14982TIP3   OH266436   1.956   1.450  44.214  0.0924  0.3687  0.0431
14982TIP3    H166437   1.930   1.538  44.185 -0.0327 -0.1286 -1.4808
14982TIP3    H266438   1.897   1.430  44.286  0.4729  1.7374  0.7644
14983TIP3   OH266439   4.023   2.725  33.777  0.1509  0.3753  0.0861
14983TIP3    H166440   4.064   2.660  33.834 -0.5344 -0.7062 -0.6358
14983TIP3    H266441   4.096   2.761  33.726  0.4509 -0.2606  0.0594
14984TIP3   OH266442   1.200   2.780  13.871 -0.2076  0.3706 -0.0111
14984TIP3    H166443   1.238   2.814  13.952  1.6179 -0.8107 -0.3294
14984TIP3    H266444   1.106   2.779  13.888 -0.0016  1.6805  1.4757
14985TIP3   OH266445   1.859   3.982  38.319  1.0980 -0.4170 -0.4934
14985TIP3    H166446   1.816   4.032  38.250  1.1125 -0.2527 -0.3846
14985TIP3    H266447   1.928   3.933  38.275  1.9846  0.7057 -0.4172
14986TIP3   OH266448   1.444   1.464  47.413  0.4723  0.0093 -0.1373
14986TIP3    H166449   1.427   1.530  47.479 -2.0947 -0.3285 -0.3548
14986TIP3    H266450   1.479   1.513  47.338 -0.3680  0.9806  0.0810
14987TIP3   OH266451   3.039   3.558  40.437  0.5015 -0.1290  0.6550
14987TIP3    H166452   3.008   3.615  40.507 -0.0292  0.0179  0.3049
14987TIP3    H266453   3.069   3.479  40.481 -0.2882 -0.2366  1.0099
14988TIP3   OH266454   3.931   1.864   7.338 -0.1871  0.4951 -0.5218
14988TIP3    H166455   3.934   1.957   7.364 -2.7884  0.7753 -0.9152
14988TIP3    H266456   3.896   1.865   7.249 -1.5006 -0.8942 -0.0609
14989TIP3   OH266457   3.083   3.111   6.222 -0.4401  0.3006  0.2888
14989TIP3    H166458   3.136   3.091   6.144  0.5997 -2.1466  1.4982
14989TIP3    H266459   3.044   3.196   6.203  2.2402  1.2702 -1.5993
14990TIP3   OH266460   3.035   1.948  12.883  0.0670  0.4178  0.1492
14990TIP3    H166461   3.009   1.859  12.908 -0.0080  0.2550 -0.5035
14990TIP3    H266462   3.129   1.952  12.902  0.7665 -0.8107 -2.6082
14991TIP3   OH266463   2.411   2.724   0.950 -0.0160  0.3835 -0.0337
14991TIP3    H166464   2.351   2.675   1.007  0.8267 -0.2819  0.2982
14991TIP3    H266465   2.361   2.801   0.923 -2.0171 -1.4438 -1.9105
14992TIP3   OH266466   3.880   3.698  31.409 -0.5338  0.1830  0.2783
14992TIP3    H166467   3.830   3.637  31.354 -1.0563  2.0976 -1.5231
14992TIP3    H266468   3.970   3.691  31.377 -0.4955 -0.0091  0.4276
14993TIP3   OH266469   0.577   1.174  40.565  0.2969 -0.3140  0.1224
14993TIP3    H166470   0.549   1.265  40.571  1.0088 -0.1683  2.0861
14993TIP3    H266471   0.500   1.123  40.591 -0.0518 -0.2858 -0.8161
14994TIP3   OH266472   4.019   1.093  34.887  0.2702  0.3360  0.2652
14994TIP3    H166473   4.009   1.184  34.858  0.1248  0.2943  0.1867
14994TIP3    H266474   4.105   1.091  34.929  0.6593  0.3110 -0.5101
14995TIP3   OH266475   1.674   1.790  14.976  0.0672 -0.3151 -0.3215
14995TIP3    H166476   1.650   1.711  15.023 -0.0542 -1.4562 -2.1907
14995TIP3    H266477   1.623   1.860  15.019 -0.5187 -1.3835  0.7863
14996TIP3   OH266478   0.749   0.681  38.796 -0.2768  0.2907  0.3768
14996TIP3    H166479   0.724   0.596  38.832  1.9470 -0.8862 -0.5821
14996TIP3    H266480   0.754   0.666  38.701  1.4235  1.0608  0.2963
14997TIP3   OH266481   1.460   0.574  14.220 -0.1560  0.0947  0.9339
14997TIP3    H166482   1.475   0.555  14.313  1.7959  0.0905  0.6500
14997TIP3    H266483   1.465   0.489  14.177  0.1109  0.2389  0.6791
14998TIP3   OH266484   2.025   3.205  44.628 -0.3961  0.0258 -0.0228
14998TIP3    H166485   2.038   3.110  44.619 -1.4973 -0.0359 -1.1675
14998TIP3    H266486   1.939   3.213  44.669 -1.1312  0.5285 -1.5868
14999TIP3   OH266487   2.986   3.906   4.350 -0.2377  0.1187  0.6020
14999TIP3    H166488   2.941   3.919   4.266 -0.6850 -1.2045  0.6163
14999TIP3    H266489   2.931   3.951   4.414 -1.1018 -0.7465  0.4893
15000TIP3   OH266490   1.368   1.690  45.481 -0.5812  0.1410  0.1402
15000TIP3    H166491   1.356   1.679  45.575 -0.2076  1.1585  0.3137
15000TIP3    H266492   1.462   1.702  45.470 -0.4143 -1.5100 -0.5432
15001TIP3   OH266493   2.340   3.521  10.689  0.3829 -0.0847 -0.4388
15001TIP3    H166494   2.329   3.594  10.628 -0.2920  0.5900  0.4610
15001TIP3    H266495   2.335   3.442  10.634  0.3130  0.5180 -1.3105
15002TIP3   OH266496   3.225   2.100  37.945 -0.2007 -0.0018 -0.3451
15002TIP3    H166497   3.297   2.047  37.979  0.2158 -0.1369 -1.3842
15002TIP3    H266498   3.155   2.036  37.928 -0.5699  0.1265  0.6451
15003TIP3   OH266499   2.928   3.343   3.968  0.2355  0.5416  0.1375
15003TIP3    H166500   2.996   3.366   4.032 -0.4082  0.4798  0.8589
15003TIP3    H266501   2.886   3.265   4.006 -0.4165  0.7418 -0.1621
15004TIP3   OH266502   3.983   3.312  46.323  0.7862  0.2340 -0.3285
15004TIP3    H166503   4.007   3.224  46.293 -0.0097 -0.7683  1.7837
15004TIP3    H266504   4.067   3.352  46.348  1.0674 -0.1709 -0.6060
15005TIP3   OH266505   0.361   1.702   6.503  0.0471  0.7454 -0.4637
15005TIP3    H166506   0.415   1.654   6.440  0.3667  1.5574 -0.8160
15005TIP3    H266507   0.275   1.709   6.461 -0.4768 -0.8524  0.2417
15006TIP3   OH266508   1.965   3.546  33.323 -0.0977  0.1875 -0.3027
15006TIP3    H166509   1.934   3.514  33.238  2.7826 -0.6833 -1.1589
15006TIP3    H266510   1.986   3.638  33.308 -2.1903  0.8340  0.3316
15007TIP3   OH266511   3.993   2.715  43.305  0.0140 -0.0541 -0.8771
15007TIP3    H166512   4.025   2.684  43.390 -1.0959  1.7732  0.2897
15007TIP3    H266513   4.064   2.695  43.244  1.3360 -0.3987  0.6931
15008TIP3   OH266514   2.304   3.127  32.381 -0.5931  0.8332  0.0752
15008TIP3    H166515   2.259   3.167  32.307 -0.0110  1.4600  0.0483
15008TIP3    H266516   2.318   3.200  32.442  1.4741  0.9336 -0.4445
15009TIP3   OH266517   3.926   2.263  38.390  0.0146 -0.3130  0.1608
15009TIP3    H166518   3.862   2.291  38.455 -0.8683  0.4277 -1.0032
15009TIP3    H266519   3.881   2.196  38.339  0.0388  0.4133 -0.8496
15010TIP3   OH266520   4.093   3.205  45.884 -0.4594  0.2883  0.2857
15010TIP3    H166521   4.158   3.243  45.943 -1.0925  1.4144  0.2988
15010TIP3    H266522   4.015   3.192  45.938 -1.4686  2.5173 -0.5020
15011TIP3   OH266523   3.091   1.916  37.093 -1.3709  0.0858  0.2819
15011TIP3    H166524   3.053   1.862  37.163 -0.1449 -2.0927 -0.6322
15011TIP3    H266525   3.027   1.910  37.022 -1.1443 -0.3491  0.1116
15012TIP3   OH266526   1.427   0.224  31.987 -0.8099  0.6387 -0.0744
15012TIP3    H166527   1.361   0.205  32.054  1.5017  0.9722  2.4862
15012TIP3    H266528   1.477   0.142  31.979  0.9506  1.5097  1.1623
15013TIP3   OH266529   0.160   1.489  21.378  0.7765  0.5804  0.0023
15013TIP3    H166530   0.184   1.445  21.460 -0.3772  0.2800  0.1865
15013TIP3    H266531   0.208   1.571  21.380  2.4841 -0.3620 -0.0472
15014TIP3   OH266532   2.805   3.443  11.430  0.0557 -0.0256  0.1132
15014TIP3    H166533   2.846   3.524  11.400  1.0000 -0.9909 -1.3549
15014TIP3    H266534   2.858   3.373  11.391 -1.2171 -1.3475  0.6417
15015TIP3   OH266535   1.242   0.045  13.226  0.5031 -0.1386  0.2930
15015TIP3    H166536   1.200   0.128  13.207 -0.1454 -0.2899  0.9935
15015TIP3    H266537   1.222   0.029  13.319  1.0368 -0.8294  0.2956
15016TIP3   OH266538   0.952   2.381   2.951 -0.5383  0.0009  0.3071
15016TIP3    H166539   0.922   2.427   3.030 -0.9205  0.5402 -0.1485
15016TIP3    H266540   0.953   2.289   2.977 -1.0809  0.1266  0.8155
15017TIP3   OH266541   2.981   0.784  45.217  0.1951  0.1045  0.3904
15017TIP3    H166542   2.961   0.874  45.189  1.8408  1.1891  2.4264
15017TIP3    H266543   2.950   0.729  45.145 -1.1667  2.2657 -0.7754
15018TIP3   OH266544   0.712   3.422  11.614 -0.0478  0.3542 -0.1917
15018TIP3    H166545   0.696   3.515  11.602  0.5638  0.5648  0.5176
15018TIP3    H266546   0.704   3.384  11.527  1.9880  1.4317 -0.9048
15019TIP3   OH266547   1.158   2.202   3.236 -0.1731 -0.2989  0.0780
15019TIP3    H166548   1.247   2.202   3.272  0.1600  2.2860 -0.5428
15019TIP3    H266549   1.168   2.170   3.147 -0.0178 -0.8878  0.3037
15020TIP3   OH266550   2.298   0.485  46.888 -0.0734 -0.4675  0.2818
15020TIP3    H166551   2.270   0.422  46.954  2.8722 -1.6180  0.6135
15020TIP3    H266552   2.378   0.447  46.852  0.8454  2.2388 -0.7932
15021TIP3   OH266553   3.409   1.423   4.539 -0.0160  0.5159 -0.1341
15021TIP3    H166554   3.344   1.466   4.594 -0.1315  1.5375 -1.0328
15021TIP3    H266555   3.453   1.495   4.493  2.0262 -0.1030  0.7230
15022TIP3   OH266556   3.940   3.185  41.400  0.1634 -0.1737  0.1285
15022TIP3    H166557   3.879   3.167  41.472  0.3910 -0.6806  0.2053
15022TIP3    H266558   4.001   3.111  41.403 -0.3961 -0.7116 -1.2079
15023TIP3   OH266559   1.157   1.610  44.318 -0.4270  0.1318 -0.4416
15023TIP3    H166560   1.134   1.574  44.232 -0.2024  0.7920 -0.7893
15023TIP3    H266561   1.233   1.665  44.301  0.6452 -1.0249  0.4696
15024TIP3   OH266562   2.822   1.996  41.797 -0.0565  0.6025 -0.6701
15024TIP3    H166563   2.901   2.014  41.849  0.5767  0.4140 -1.5451
15024TIP3    H266564   2.752   2.040  41.845  0.7185  1.5259 -0.3369
15025TIP3   OH266565   0.615   4.047  15.276 -0.8231  0.5700  0.3956
15025TIP3    H166566   0.683   3.981  15.289  0.9654  2.0387 -0.9127
15025TIP3    H266567   0.543   3.999  15.235  0.3403 -0.6273 -0.3479
15026TIP3   OH266568   2.309   0.536  37.893  0.1963  0.1111 -0.0519
15026TIP3    H166569   2.338   0.598  37.827  0.9743 -0.0223  0.1533
15026TIP3    H266570   2.292   0.589  37.970 -0.8892  0.2905 -0.4021
15027TIP3   OH266571   0.002   3.416  42.710  0.2202 -0.5345 -0.0862
15027TIP3    H166572  -0.048   3.497  42.713  0.8274 -0.0882 -1.1684
15027TIP3    H266573  -0.052   3.352  42.757 -1.0504  0.0936 -0.6255
15028TIP3   OH266574   3.248   0.259  35.629  0.2164 -0.5784  0.2277
15028TIP3    H166575   3.154   0.251  35.644  0.2652 -0.0911  0.8896
15028TIP3    H266576   3.273   0.177  35.587 -0.5471 -0.6041 -0.1964
15029TIP3   OH266577   1.222   0.453   8.517  0.0613 -0.3941 -0.5670
15029TIP3    H166578   1.148   0.393   8.506 -0.8061  0.4575  0.4897
15029TIP3    H266579   1.227   0.467   8.611  0.6723  0.6803 -0.7560
15030TIP3   OH266580   1.542   1.348  32.276 -0.2330 -0.4023 -0.4457
15030TIP3    H166581   1.609   1.405  32.313  0.8921  0.1629 -3.0892
15030TIP3    H266582   1.464   1.363  32.329  1.1271  0.5440  1.3849
15031TIP3   OH266583   2.325   1.948  36.479  0.2577 -0.5349  0.4333
15031TIP3    H166584   2.417   1.963  36.461  0.6375  0.7499  3.0965
15031TIP3    H266585   2.324   1.890  36.555 -1.1154  0.1127  0.9376
15032TIP3   OH266586   3.594   0.555   8.607 -0.4620 -0.3065  0.0781
15032TIP3    H166587   3.523   0.617   8.590  0.8132  1.1361 -0.2799
15032TIP3    H266588   3.644   0.595   8.678  0.3790 -0.9485 -0.1380
15033TIP3   OH266589   2.765   1.926   4.502  0.0276 -0.3686  0.1421
15033TIP3    H166590   2.676   1.892   4.496 -0.4275  0.8669 -0.4958
15033TIP3    H266591   2.785   1.922   4.596 -1.2566  0.6400  0.4912
15034TIP3   OH266592   2.315   1.801  31.770  0.4521 -0.9231 -0.4759
15034TIP3    H166593   2.227   1.769  31.791  0.1887 -0.1445 -0.3851
15034TIP3    H266594   2.364   1.794  31.852 -0.5288  1.9686  0.4582
15035TIP3   OH266595   2.688   0.756  38.904  0.7632 -0.4851  0.0510
15035TIP3    H166596   2.657   0.695  38.971 -1.0873 -0.3020 -0.5617
15035TIP3    H266597   2.777   0.777  38.929  0.3270 -0.8998  2.0992
15036TIP3   OH266598   0.951   3.571  28.498 -0.0783 -0.1784 -0.0222
15036TIP3    H166599   1.010   3.527  28.560 -0.0514 -0.2147 -0.0732
15036TIP3    H266600   0.892   3.622  28.553  0.1068 -0.0092  0.0215
15037TIP3   OH266601   1.512   4.054  40.205  0.3589  0.2713 -0.2925
15037TIP3    H166602   1.469   4.124  40.253 -1.0338 -0.5892 -0.2271
15037TIP3    H266603   1.591   4.035  40.255  0.4441  1.3710  0.0155
15038TIP3   OH266604   3.056   0.677  14.078  0.0904  0.3443  0.0115
15038TIP3    H166605   3.110   0.709  14.150  1.1822  1.6201 -1.2848
15038TIP3    H266606   3.054   0.582  14.089  1.0850  0.4285  1.1399
15039TIP3   OH266607   2.814   2.516   4.596  0.1745  0.2148 -0.1410
15039TIP3    H166608   2.814   2.612   4.603  0.0453  0.1166  1.8221
15039TIP3    H266609   2.880   2.488   4.659 -0.1455 -1.0100 -0.3354
15040TIP3   OH266610   3.543   2.071   4.830  0.5541 -0.3228 -0.3370
15040TIP3    H166611   3.460   2.030   4.855  0.0659  0.1990 -1.0598
15040TIP3    H266612   3.608   2.002   4.841  0.2233 -0.4218  1.3601
15041TIP3   OH266613   2.744   0.798  47.320  0.8868 -0.5369  0.0663
15041TIP3    H166614   2.678   0.846  47.370 -0.2835 -0.8493 -1.1420
15041TIP3    H266615   2.828   0.828  47.357  0.1865  1.7710 -0.0568
15042TIP3   OH266616   0.749   0.148  42.627  0.0819 -0.1535  0.2222
15042TIP3    H166617   0.731   0.239  42.648  0.7151  0.4541 -1.6212
15042TIP3    H266618   0.845   0.143  42.624  0.0688 -1.0523  0.9381
15043TIP3   OH266619   2.698   3.346  41.828 -0.1782 -0.2417  0.0336
15043TIP3    H166620   2.633   3.399  41.874 -0.0366  2.5094 -2.5857
15043TIP3    H266621   2.774   3.347  41.886 -1.2919 -0.5503  1.5780
15044TIP3   OH266622   2.894   1.301  14.524  0.2647  0.7951 -0.5591
15044TIP3    H166623   2.891   1.269  14.434  0.0932 -0.9149  0.0122
15044TIP3    H266624   2.807   1.339  14.539 -0.6859 -1.2998 -0.3449
15045TIP3   OH266625   2.699   2.657   1.223  0.3470  0.2251 -0.0510
15045TIP3    H166626   2.772   2.692   1.274  3.1753 -2.0717 -2.1577
15045TIP3    H266627   2.708   2.562   1.232 -3.3251 -0.1875  0.6642
15046TIP3   OH266628   2.681   2.461  11.491  0.8585  0.1876  0.1328
15046TIP3    H166629   2.710   2.508  11.413 -0.4572 -0.2223 -0.6387
15046TIP3    H266630   2.611   2.515  11.528 -1.1273 -1.3613 -1.1295
15047TIP3   OH266631   0.543   2.594  41.808  0.9027  0.5439  0.3695
15047TIP3    H166632   0.512   2.596  41.717  0.1685 -0.2314  0.5786
15047TIP3    H266633   0.563   2.685  41.829  0.6967  0.7867 -0.4466
15048TIP3   OH266634   2.793   0.569  34.499 -0.0416 -0.3935  0.2191
15048TIP3    H166635   2.830   0.494  34.546 -1.3772 -1.2979 -0.0996
15048TIP3    H266636   2.702   0.572  34.528 -0.7163 -0.5297 -1.7269
15049TIP3   OH266637   0.294   3.787  41.555 -1.1625  0.0148  0.2960
15049TIP3    H166638   0.205   3.757  41.575 -1.3201  1.2343  1.5044
15049TIP3    H266639   0.287   3.882  41.549 -0.0303  0.0863 -0.1824
15050TIP3   OH266640   0.182   1.104  36.143  0.3190 -0.2937 -0.2635
15050TIP3    H166641   0.119   1.041  36.109  0.6415 -0.3893 -0.6923
15050TIP3    H266642   0.263   1.086  36.094  0.2708  0.7909 -0.7625
15051TIP3   OH266643   2.332   2.992  46.843 -0.8934 -0.3975  0.2775
15051TIP3    H166644   2.394   2.941  46.895  1.0258 -0.1919 -1.6627
15051TIP3    H266645   2.264   2.929  46.817  0.6456 -1.6583 -0.8411
15052TIP3   OH266646   3.729   3.332  10.912  0.5046 -0.1723 -0.4019
15052TIP3    H166647   3.662   3.333  10.981 -0.6988  0.3767 -1.5305
15052TIP3    H266648   3.802   3.283  10.950  0.6123  1.6156  1.9162
15053TIP3   OH266649   1.903   3.192  30.417  1.1186  0.1975 -0.0746
15053TIP3    H166650   1.826   3.135  30.405  0.9268  0.4040  0.1645
15053TIP3    H266651   1.881   3.271  30.368  0.9623  0.4582  0.4163
15054TIP3   OH266652   1.167   1.620   0.447 -0.2804  0.3682  0.1662
15054TIP3    H166653   1.075   1.595   0.460 -0.0317  0.2202  1.7235
15054TIP3    H266654   1.162   1.702   0.396 -1.2654  0.2730  0.0878
15055TIP3   OH266655   0.329   1.091  40.647  0.1763  0.1627 -0.2064
15055TIP3    H166656   0.325   1.033  40.723  0.8469 -0.4430 -0.6297
15055TIP3    H266657   0.245   1.138  40.649  0.4006  0.5649  1.2269
15056TIP3   OH266658   2.566   2.809  40.447 -0.8466  0.0821 -0.3531
15056TIP3    H166659   2.592   2.757  40.371  1.3355  2.1459 -1.1592
15056TIP3    H266660   2.540   2.894  40.410 -0.9747  0.7071  1.1182
15057TIP3   OH266661   0.956   1.155  35.126 -0.5373 -0.2119  0.2683
15057TIP3    H166662   1.044   1.149  35.091 -1.0606  2.0902 -1.7258
15057TIP3    H266663   0.912   1.075  35.095  0.7245 -1.2730  1.1092
15058TIP3   OH266664   1.255   0.972  33.935 -0.1174  0.1267  0.1071
15058TIP3    H166665   1.236   0.974  34.029  0.6480 -1.2861  0.3271
15058TIP3    H266666   1.187   1.027  33.896 -2.3615 -1.6727  1.2055
15059TIP3   OH266667   3.832   3.585  25.748 -0.2058 -0.1707  0.4958
15059TIP3    H166668   3.917   3.595  25.706  0.0821  1.5507  1.4091
15059TIP3    H266669   3.779   3.534  25.686  1.1554 -0.3677 -0.5230
15060TIP3   OH266670   3.815   0.279  12.068 -0.0045  0.0690 -0.0380
15060TIP3    H166671   3.880   0.257  12.001  0.1465 -0.5881  0.3202
15060TIP3    H266672   3.796   0.371  12.052 -0.0633 -0.1023 -1.0745
15061TIP3   OH266673   1.474   3.621   9.649 -0.1513 -0.3023 -0.1117
15061TIP3    H166674   1.508   3.657   9.730  0.0928  1.1726 -0.8366
15061TIP3    H266675   1.479   3.693   9.586 -1.4435 -1.0442 -1.1283
15062TIP3   OH266676   1.860   1.224  32.499 -0.0762 -0.2390 -0.5092
15062TIP3    H166677   1.909   1.247  32.577  1.0940  1.3881 -1.6490
15062TIP3    H266678   1.796   1.160  32.528  2.1178 -1.7748  1.2217
15063TIP3   OH266679   0.671   3.189   1.847 -0.0033  0.6578 -0.5651
15063TIP3    H166680   0.732   3.255   1.882 -0.2872 -0.2576  1.8206
15063TIP3    H266681   0.728   3.124   1.805  0.8221 -0.3205  1.8623
15064TIP3   OH266682   1.702   3.685  31.682 -0.4061 -0.3358 -0.1791
15064TIP3    H166683   1.614   3.649  31.691 -0.3694  0.0978  2.5820
15064TIP3    H266684   1.755   3.635  31.745  0.6764  1.3013  0.2575
15065TIP3   OH266685   0.792   2.514  34.789  0.7010  0.0007  0.4739
15065TIP3    H166686   0.698   2.528  34.781  0.7593 -0.5896 -2.2285
15065TIP3    H266687   0.827   2.599  34.816 -0.6671 -0.1174  2.9268
15066TIP3   OH266688   3.457   2.404  12.145 -0.0558 -0.2629  0.1744
15066TIP3    H166689   3.402   2.395  12.223 -1.9301 -0.1311 -1.0570
15066TIP3    H266690   3.478   2.315  12.120 -1.5186 -0.4495 -0.5096
15067TIP3   OH266691   0.961   2.022  11.099 -0.0160 -0.0169  0.1509
15067TIP3    H166692   0.914   2.085  11.045 -0.9990 -0.7346  0.1340
15067TIP3    H266693   0.896   1.953  11.117  0.5407 -0.2192  1.5187
15068TIP3   OH266694   2.718   1.291  41.836 -0.1649  0.6757  0.3093
15068TIP3    H166695   2.657   1.246  41.777  0.3892  0.5397 -0.1783
15068TIP3    H266696   2.805   1.273  41.799  0.1217  1.4931  0.5542
15069TIP3   OH266697   0.360   3.925  25.963 -0.7469 -0.8903 -0.1395
15069TIP3    H166698   0.357   3.933  25.868  2.8642 -0.4215 -0.3572
15069TIP3    H266699   0.358   4.016  25.995 -0.0955 -0.9524  0.0881
15070TIP3   OH266700   2.483   2.760  35.326  0.1960 -0.0012 -0.3963
15070TIP3    H166701   2.576   2.782  35.320 -0.2139  1.8488 -0.5391
15070TIP3    H266702   2.438   2.844  35.314 -1.5778 -1.2016 -2.9233
15071TIP3   OH266703   2.582   2.648  13.378 -0.1264 -0.2288  0.7321
15071TIP3    H166704   2.505   2.693  13.342 -0.6369 -0.6648  1.2470
15071TIP3    H266705   2.599   2.576  13.318 -0.4925 -0.4831  0.9253
15072TIP3   OH266706   1.005   0.233  12.917 -0.2023  0.6102 -0.0948
15072TIP3    H166707   1.043   0.249  13.004 -0.4732 -1.2471  0.4140
15072TIP3    H266708   0.934   0.297  12.910 -1.7293 -0.6730  2.1059
15073TIP3   OH266709   2.875   0.187   2.951  0.5213  0.8614  0.2168
15073TIP3    H166710   2.854   0.150   3.036 -2.2971  1.6253 -0.0544
15073TIP3    H266711   2.870   0.113   2.890 -1.7146  1.0005  0.1610
15074TIP3   OH266712   1.268   3.353   2.313  0.1255 -0.2259  0.0966
15074TIP3    H166713   1.287   3.358   2.406  0.9300  1.2864 -0.1172
15074TIP3    H266714   1.343   3.307   2.275  0.4269  0.3054  0.0395
15075TIP3   OH266715   3.363   1.781  38.264 -0.3997  0.6408 -0.5576
15075TIP3    H166716   3.323   1.707  38.309 -0.3673 -0.5865 -2.4111
15075TIP3    H266717   3.457   1.769  38.278 -0.4101  0.4926 -0.6131
15076TIP3   OH266718   2.107   3.074  35.566  0.0332 -0.4840 -0.2054
15076TIP3    H166719   2.190   3.074  35.614 -0.0807 -3.2832  0.1224
15076TIP3    H266720   2.116   3.147  35.504  1.5994  0.9872  1.6122
15077TIP3   OH266721   4.071   0.712  40.116 -0.0525 -0.4713  0.3417
15077TIP3    H166722   4.121   0.763  40.053  0.0175  0.4572  1.1080
15077TIP3    H266723   4.119   0.722  40.198 -1.0843 -0.1678  0.9284
15078TIP3   OH266724   2.209   2.628  34.745  0.5988  0.1185  0.0762
15078TIP3    H166725   2.144   2.580  34.694 -0.5325  1.6836 -0.0247
15078TIP3    H266726   2.292   2.585  34.724 -0.0490 -0.3423 -1.7618
15079TIP3   OH266727   1.017   2.813  19.605  0.6017 -0.0980 -0.4891
15079TIP3    H166728   0.942   2.788  19.659 -0.1103  2.2258 -0.2892
15079TIP3    H266729   0.998   2.776  19.519 -0.4457 -0.0940 -0.2720
15080TIP3   OH266730   3.438   0.499  30.281 -0.0420 -0.1273 -0.0825
15080TIP3    H166731   3.502   0.568  30.302  0.0668 -0.1835 -0.2274
15080TIP3    H266732   3.450   0.433  30.349  1.2843 -0.9734 -1.0947
15081TIP3   OH266733   3.788   3.890  31.629  0.3119 -0.2095 -0.4923
15081TIP3    H166734   3.820   3.824  31.568 -0.1576 -1.0521  0.1589
15081TIP3    H266735   3.858   3.900  31.694  1.4857  1.8078 -1.9612
15082TIP3   OH266736   3.842   2.390  47.080 -0.9807 -0.1985  0.2201
15082TIP3    H166737   3.780   2.370  47.150 -0.5264 -0.1273  0.6500
15082TIP3    H266738   3.885   2.306  47.063  1.1191  0.3441  2.2104
15083TIP3   OH266739   4.058   1.627  13.269 -0.4846  0.2467  0.5806
15083TIP3    H166740   4.123   1.669  13.325  1.1046 -1.0891 -0.1831
15083TIP3    H266741   4.106   1.556  13.225 -2.2402 -0.2172 -0.7008
15084TIP3   OH266742   3.005   1.444  41.017 -0.7870 -0.2907 -0.1822
15084TIP3    H166743   3.088   1.475  40.980 -1.5344 -0.1918 -1.8965
15084TIP3    H266744   2.949   1.521  41.017  0.1828  0.7326  4.7517
15085TIP3   OH266745   3.615   2.916  35.117 -0.0519 -0.0109  0.1566
15085TIP3    H166746   3.539   2.959  35.156 -0.0450 -0.9921  1.3237
15085TIP3    H266747   3.690   2.963  35.152 -0.0925  0.8152 -0.8225
15086TIP3   OH266748   1.409   1.435  20.493  0.4727 -0.1705  0.1037
15086TIP3    H166749   1.431   1.514  20.444  0.6625  0.1625  0.7178
15086TIP3    H266750   1.378   1.373  20.426  0.9451  0.1924 -0.4618
15087TIP3   OH266751   3.037   3.091  13.620  0.6221 -0.0779  0.0492
15087TIP3    H166752   2.957   3.039  13.617  1.0360 -0.7104 -1.9618
15087TIP3    H266753   3.103   3.031  13.655  0.8273 -0.5690 -1.1127
15088TIP3   OH266754   1.218   3.808   2.379  0.3561 -0.5240 -0.2817
15088TIP3    H166755   1.200   3.886   2.327 -1.4090 -1.4527 -1.1653
15088TIP3    H266756   1.233   3.739   2.315 -0.9329 -1.5010  0.4158
15089TIP3   OH266757   0.072   0.702  36.390 -0.1004  0.3855  0.2834
15089TIP3    H166758  -0.005   0.689  36.335 -0.2597 -0.9129  0.7641
15089TIP3    H266759   0.062   0.639  36.461  2.4533 -1.4714 -0.8221
15090TIP3   OH266760   3.869   0.619  32.215  0.3111  0.0091  0.5698
15090TIP3    H166761   3.833   0.554  32.156 -1.8068 -0.1334  1.9329
15090TIP3    H266762   3.850   0.703  32.172 -0.7112 -0.1156  0.7535
15091TIP3   OH266763   0.729   3.767  46.441  0.0413  0.8103  0.0235
15091TIP3    H166764   0.776   3.842  46.405 -0.3140  0.6466 -0.8149
15091TIP3    H266765   0.712   3.790  46.532  0.6721  1.3863  0.0017
15092TIP3   OH266766   2.685   1.618  43.394  0.3204  0.3663 -0.4081
15092TIP3    H166767   2.728   1.542  43.355  1.6132  0.3889  0.8785
15092TIP3    H266768   2.592   1.601  43.384  0.5787 -0.0723 -2.5809
15093TIP3   OH266769   2.589   1.113  10.298 -0.2312 -0.0963  0.1544
15093TIP3    H166770   2.668   1.137  10.348 -0.5438 -0.0556  0.6367
15093TIP3    H266771   2.612   1.134  10.207 -0.4709  2.0973  0.5294
15094TIP3   OH266772   1.563   0.317   7.132  0.0146  0.5140 -0.2531
15094TIP3    H166773   1.643   0.370   7.130 -0.0504  0.6052 -0.5640
15094TIP3    H266774   1.594   0.227   7.138  0.1223  0.5963  0.6454
15095TIP3   OH266775   0.356   4.075  14.989 -0.2582 -0.1175  0.8567
15095TIP3    H166776   0.351   3.982  14.971 -2.5811  0.3667 -1.7469
15095TIP3    H266777   0.265   4.101  15.005  0.0814  1.9464 -0.1863
15096TIP3   OH266778   0.832   2.511   3.220 -0.0450 -0.0934 -0.3935
15096TIP3    H166779   0.737   2.507   3.236  0.2904 -1.3904  1.5230
15096TIP3    H266780   0.868   2.438   3.269  2.1898  1.5188  0.5424
15097TIP3   OH266781   2.737   1.933  11.114  0.3760  0.2010 -0.1505
15097TIP3    H166782   2.751   1.839  11.127 -0.7348  0.0945  0.3986
15097TIP3    H266783   2.648   1.939  11.078 -0.1812  1.1339  1.3192
15098TIP3   OH266784   3.656   2.909   2.517  0.2860 -0.4818 -0.2359
15098TIP3    H166785   3.739   2.907   2.469  1.1529 -1.4615  1.1940
15098TIP3    H266786   3.652   2.997   2.554  0.5970 -0.3680 -0.4625
15099TIP3   OH266787   0.529   3.719   6.672  0.1839 -0.0512  0.1234
15099TIP3    H166788   0.509   3.813   6.677 -0.2889 -0.0631 -1.1853
15099TIP3    H266789   0.625   3.715   6.666  0.2663  0.2892  1.0200
15100TIP3   OH266790   3.621   3.071  42.491 -0.5163 -0.2794  0.3070
15100TIP3    H166791   3.539   3.046  42.449 -1.3006  1.0095  1.0238
15100TIP3    H266792   3.648   2.993  42.539 -1.1164 -0.8308 -0.2344
15101TIP3   OH266793   2.317   2.173  39.888  0.5701 -0.3500 -0.5926
15101TIP3    H166794   2.392   2.229  39.908  0.9562  0.5142 -3.8960
15101TIP3    H266795   2.257   2.229  39.839 -0.1537 -2.1439 -1.8671
15102TIP3   OH266796   3.502   0.933  11.641 -0.5149  0.6948 -0.2639
15102TIP3    H166797   3.567   0.930  11.711 -0.2195 -2.8236 -0.5184
15102TIP3    H266798   3.482   1.026  11.631  2.8650  1.7412  1.2675
15103TIP3   OH266799   3.402   3.681  37.280 -0.3553 -0.0672  0.2920
15103TIP3    H166800   3.319   3.725  37.266 -1.5183 -1.8354  1.2998
15103TIP3    H266801   3.399   3.603  37.224  1.4285  0.7456 -1.0452
15104TIP3   OH266802   0.039   2.396   9.260  0.0096  0.0330 -0.2298
15104TIP3    H166803  -0.055   2.386   9.249 -0.1733  2.5454 -1.6624
15104TIP3    H266804   0.049   2.461   9.329  0.6990 -0.1270 -0.1666
15105TIP3   OH266805   0.983   3.334   8.490 -0.2781 -0.1992  0.2313
15105TIP3    H166806   0.923   3.268   8.455  0.5429 -0.3483 -0.9411
15105TIP3    H266807   0.925   3.404   8.521 -1.0837 -0.1846 -1.1852
15106TIP3   OH266808   4.105   1.779  20.531  0.1560 -0.2665  0.5075
15106TIP3    H166809   4.096   1.692  20.492 -0.8673  0.0588 -0.0169
15106TIP3    H266810   4.033   1.784  20.594 -0.6126  0.6831 -0.4184
15107TIP3   OH266811   3.902   3.903  32.005 -0.1188 -0.1662 -0.0737
15107TIP3    H166812   3.969   3.969  31.986 -0.1589 -0.3733 -0.9482
15107TIP3    H266813   3.920   3.876  32.095  0.0040  0.9122  0.2395
15108TIP3   OH266814   2.318   0.512   6.741  0.2616 -0.7750 -0.0046
15108TIP3    H166815   2.410   0.537   6.727  0.2246 -1.3077 -1.3671
15108TIP3    H266816   2.270   0.560   6.673 -0.5779  0.0450  1.1328
15109TIP3   OH266817   3.255   1.392  38.655 -0.3342  0.2240 -0.2424
15109TIP3    H166818   3.296   1.455  38.714 -0.8742 -0.7737  1.2353
15109TIP3    H266819   3.167   1.380  38.690  0.0608 -2.0775  0.1264
15110TIP3   OH266820   1.054   3.588  47.405 -0.1331 -0.1509 -0.0763
15110TIP3    H166821   1.107   3.521  47.450  0.3803  0.5772  0.4151
15110TIP3    H266822   0.964   3.570  47.434  0.2401  0.5828  1.6347
15111TIP3   OH266823   3.313   1.616  13.686  0.0777  0.7400  0.5809
15111TIP3    H166824   3.274   1.697  13.653  1.1926  0.5319 -1.3926
15111TIP3    H266825   3.261   1.547  13.647  0.2529  0.4854  0.7952
15112TIP3   OH266826   0.691   3.275  39.111  0.1183  0.3897  0.2741
15112TIP3    H166827   0.770   3.253  39.061 -0.0666  0.8384 -0.2265
15112TIP3    H266828   0.724   3.305  39.196  0.4752  0.3934  0.1363
15113TIP3   OH266829   0.853   0.892   2.726 -0.2782 -0.0676 -0.4473
15113TIP3    H166830   0.833   0.871   2.817 -0.6232 -0.9812 -0.7169
15113TIP3    H266831   0.936   0.939   2.730 -0.5545  0.3705  0.3769
15114TIP3   OH266832   1.750   3.913   6.802 -0.0684 -0.1786  0.3095
15114TIP3    H166833   1.826   3.865   6.833  0.7854  1.2060  0.4153
15114TIP3    H266834   1.740   3.886   6.710  1.0643  0.2379  0.0517
15115TIP3   OH266835   2.295   2.310  39.464  0.4222  0.2640  0.3256
15115TIP3    H166836   2.324   2.353  39.383  0.3510  2.1943  1.2529
15115TIP3    H266837   2.200   2.323  39.466 -0.1354 -2.7744 -0.8769
15116TIP3   OH266838   0.059   2.665   1.556  0.7146  0.3858  0.1895
15116TIP3    H166839   0.107   2.716   1.490  0.3253  1.5451  0.7890
15116TIP3    H266840  -0.026   2.649   1.516  0.1227  1.9288  0.7578
15117TIP3   OH266841   3.765   2.101   3.850 -0.2024  0.0242  0.4214
15117TIP3    H166842   3.801   2.022   3.810 -1.6926  0.0103 -1.0334
15117TIP3    H266843   3.716   2.070   3.926 -2.6706 -0.8536 -1.3812
15118TIP3   OH266844   1.105   3.047  10.696  0.4323 -0.7016  0.2132
15118TIP3    H166845   1.128   3.133  10.731 -0.4698 -1.0477  1.7504
15118TIP3    H266846   1.154   3.041  10.614 -0.2586  1.6676 -0.4410
15119TIP3   OH266847   0.282   2.696  12.245 -0.3570 -0.6317 -0.1140
15119TIP3    H166848   0.300   2.635  12.173 -1.0646 -0.6171 -0.3142
15119TIP3    H266849   0.206   2.746  12.215 -0.4874 -0.4337  0.5321
15120TIP3   OH266850   2.964   2.397  43.512 -0.4666 -0.0348  0.4912
15120TIP3    H166851   2.994   2.426  43.598  3.5561  0.4167 -0.8320
15120TIP3    H266852   3.010   2.455  43.451 -0.2834 -2.6437 -2.0374
15121TIP3   OH266853   3.205   0.055  44.736  0.6925 -0.1751  0.0505
15121TIP3    H166854   3.217   0.143  44.771  0.8386  0.1793 -0.8684
15121TIP3    H266855   3.168   0.005  44.809 -1.1184  1.0975  0.0579
15122TIP3   OH266856   2.207   4.104  45.655 -0.4502 -0.2351 -0.2263
15122TIP3    H166857   2.256   4.058  45.723  0.2705 -0.3455 -0.8171
15122TIP3    H266858   2.192   4.038  45.587 -1.3632 -0.1872 -0.0855
15123TIP3   OH266859   3.886   1.617  35.036  0.4799  0.0126  0.7270
15123TIP3    H166860   3.877   1.712  35.034  1.7097  0.1426  1.0946
15123TIP3    H266861   3.980   1.601  35.032  0.3484 -1.1647  1.7751
15124TIP3   OH266862   2.045   2.624  45.215  0.2083  0.2314  0.3198
15124TIP3    H166863   2.129   2.669  45.214 -0.6195  1.8678 -0.3173
15124TIP3    H266864   2.037   2.587  45.303  1.6850 -0.1834  0.3010
15125TIP3   OH266865   0.801   4.032   0.663  0.1982 -0.6393 -0.0597
15125TIP3    H166866   0.865   4.103   0.668 -0.6239  0.1417 -0.1513
15125TIP3    H266867   0.826   3.973   0.734  1.3017 -0.6151 -0.4080
15126TIP3   OH266868   1.978   0.341  46.790 -0.2658  0.1378  0.1036
15126TIP3    H166869   2.001   0.311  46.878 -0.4222  0.1908  0.1630
15126TIP3    H266870   1.999   0.267  46.733 -0.3243  0.0408  0.2067
15127TIP3   OH266871   2.671   0.653   7.328 -0.1644 -0.0156 -0.7339
15127TIP3    H166872   2.691   0.747   7.329 -0.4576  0.0525  0.1736
15127TIP3    H266873   2.585   0.646   7.369  0.2959 -0.7611  0.1628
15128TIP3   OH266874   2.742   0.840  45.722 -0.2493  0.3925 -0.2103
15128TIP3    H166875   2.821   0.801  45.759 -0.4936 -0.5311 -0.6207
15128TIP3    H266876   2.759   0.843  45.628 -0.2814  1.1941 -0.1924
15129TIP3   OH266877   3.802   0.041   7.353 -0.6156  0.1090  0.1132
15129TIP3    H166878   3.892   0.052   7.320 -0.9193  0.0383 -0.7671
15129TIP3    H266879   3.810   0.050   7.448  0.0040  2.2979 -0.0858
15130TIP3   OH266880   1.193   3.717  44.668 -0.8461 -0.5101  0.9624
15130TIP3    H166881   1.164   3.745  44.581 -2.1593 -0.3706  1.4154
15130TIP3    H266882   1.287   3.703  44.659 -0.9043 -0.1726 -0.3926
15131TIP3   OH266883   1.477   0.527  14.505  0.2379 -0.1554 -0.3887
15131TIP3    H166884   1.544   0.512  14.572 -0.4954 -2.3122 -0.0770
15131TIP3    H266885   1.421   0.596  14.543  0.0596 -1.0724  1.0857
15132TIP3   OH266886   1.564   3.110  34.362  0.4065 -0.6331  0.1612
15132TIP3    H166887   1.577   3.203  34.381  0.3953 -0.8126  1.1000
15132TIP3    H266888   1.577   3.066  34.446  1.5999 -1.6120 -0.5065
15133TIP3   OH266889   1.718   3.096  14.537  0.2830 -0.0806 -0.1517
15133TIP3    H166890   1.647   3.099  14.472  0.3942 -1.2288 -0.3610
15133TIP3    H266891   1.798   3.102  14.484  0.4304 -2.7003 -0.3562
15134TIP3   OH266892   2.298   0.026  37.839  0.1199  0.2648  0.1959
15134TIP3    H166893   2.282  -0.040  37.772  0.2515 -0.0791  0.5050
15134TIP3    H266894   2.379  -0.002  37.882  0.8923  1.2941 -0.5038
15135TIP3   OH266895   0.012   3.088  34.392  0.4580 -0.2575  0.2736
15135TIP3    H166896  -0.010   3.172  34.351 -1.5866  1.5639  4.5036
15135TIP3    H266897  -0.055   3.028  34.362 -0.4589  0.7654  0.1974
15136TIP3   OH266898   2.056   0.779  13.479  0.2998 -0.2910 -0.3622
15136TIP3    H166899   2.022   0.819  13.399  0.7974  0.7084 -0.0847
15136TIP3    H266900   2.144   0.814  13.488 -0.0582  0.3325  1.0916
15137TIP3   OH266901   3.182   3.703  35.353 -0.3612  0.1508 -0.1303
15137TIP3    H166902   3.245   3.635  35.332 -0.2352  0.7942 -1.9794
15137TIP3    H266903   3.110   3.689  35.292 -0.1400  1.9205 -0.8595
15138TIP3   OH266904   3.930   3.400  46.586 -0.3434  0.0010  0.2660
15138TIP3    H166905   3.979   3.335  46.636  0.9762  0.8907  0.1611
15138TIP3    H266906   3.925   3.363  46.498 -0.1617 -0.2378  0.3555
15139TIP3   OH266907   0.769   3.926  13.557  0.4229  0.7893 -0.6314
15139TIP3    H166908   0.781   3.870  13.633  1.8440  1.7595 -0.1181
15139TIP3    H266909   0.828   3.891  13.491  1.3677  1.6823 -0.2875
15140TIP3   OH266910   1.589   1.527   3.386  0.7920 -0.1154  0.2183
15140TIP3    H166911   1.494   1.519   3.377  0.8495 -0.6692  0.0856
15140TIP3    H266912   1.606   1.621   3.378  0.2305  0.0176  0.5043
15141TIP3   OH266913   1.488   2.140   5.560 -0.1271 -0.2489 -0.0296
15141TIP3    H166914   1.510   2.231   5.581 -1.0525 -0.0209 -0.0178
15141TIP3    H266915   1.468   2.142   5.467 -1.8209 -0.0909  0.3143
15142TIP3   OH266916   4.019   3.880  42.706 -0.0309 -0.5529  0.3780
15142TIP3    H166917   4.016   3.945  42.776 -1.3220 -1.7301  1.4715
15142TIP3    H266918   3.935   3.890  42.661  0.4955 -0.2916 -0.5679
15143TIP3   OH266919   2.272   3.624   3.599 -0.1959  0.1912 -0.1475
15143TIP3    H166920   2.254   3.587   3.686 -1.3298 -0.2728 -0.5605
15143TIP3    H266921   2.252   3.553   3.538 -1.6464  1.2130 -0.9188
15144TIP3   OH266922   3.075   0.541  14.473  0.7223 -0.0096 -0.1862
15144TIP3    H166923   3.120   0.597  14.410 -0.5961  1.0521 -0.2352
15144TIP3    H266924   3.045   0.466  14.422  0.7126  0.2567 -0.5711
15145TIP3   OH266925   2.174   0.321   9.535  0.1871  0.0446  0.1405
15145TIP3    H166926   2.104   0.255   9.533  1.4245 -1.4084  1.5253
15145TIP3    H266927   2.205   0.325   9.445 -0.3696 -0.7749 -0.1055
15146TIP3   OH266928   4.015   3.556  37.200  0.0740 -0.1057 -0.2709
15146TIP3    H166929   3.953   3.547  37.128  1.5291  0.3209 -1.6301
15146TIP3    H266930   4.053   3.469  37.211  0.1239 -0.0869 -0.2912
15147TIP3   OH266931   2.810   2.719  12.302 -0.1232 -0.1142  0.2406
15147TIP3    H166932   2.882   2.657  12.316 -1.3197 -1.6439 -0.1709
15147TIP3    H266933   2.834   2.764  12.221 -0.1316 -1.3948 -0.5060
15148TIP3   OH266934   1.767   0.310   7.569 -0.3736  0.5583 -0.4043
15148TIP3    H166935   1.777   0.352   7.484 -0.2151  1.0110 -0.1666
15148TIP3    H266936   1.813   0.227   7.561 -1.3514  0.0609 -1.1268
15149TIP3   OH266937   3.238   2.981   4.937  0.1677  0.1378  0.1825
15149TIP3    H166938   3.311   2.966   4.997  0.4003  0.3548 -0.0385
15149TIP3    H266939   3.195   2.896   4.930  1.6818 -0.5852 -1.3450
15150TIP3   OH266940   3.492   0.738   0.249  0.3898 -0.3676  0.0088
15150TIP3    H166941   3.524   0.649   0.240  0.3509 -0.3844  0.0358
15150TIP3    H266942   3.447   0.739   0.334 -0.6039 -0.6219 -0.5073
15151TIP3   OH266943   1.307   0.631   4.526  0.2771  0.2011  0.4818
15151TIP3    H166944   1.279   0.671   4.608 -0.8887 -1.2604  0.8332
15151TIP3    H266945   1.403   0.626   4.534  0.3690  1.8522  0.8759
15152TIP3   OH266946   3.619   0.312  46.211 -0.4271  0.2720  0.1883
15152TIP3    H166947   3.580   0.371  46.275 -1.1842 -0.2219  0.1841
15152TIP3    H266948   3.547   0.286  46.154  0.4631  1.9364 -1.8885
15153TIP3   OH266949   3.903   0.050  26.385 -0.1481  0.1380  0.5125
15153TIP3    H166950   3.989   0.093  26.392  0.4738 -0.7097 -1.2868
15153TIP3    H266951   3.922  -0.037  26.349 -1.8937  0.6600 -1.9578
15154TIP3   OH266952   2.013   1.718  43.926 -0.4440 -0.3315  0.4260
15154TIP3    H166953   2.105   1.740  43.941 -0.3967  0.6488 -1.0938
15154TIP3    H266954   1.971   1.732  44.011  0.7160 -0.3416  1.0230
15155TIP3   OH266955   2.537   2.246  13.749  0.3630 -0.8460 -0.0598
15155TIP3    H166956   2.460   2.296  13.777 -0.7561 -1.2380 -2.2541
15155TIP3    H266957   2.609   2.308  13.756 -0.1727 -0.3651  1.7213
15156TIP3   OH266958   0.582   2.776  14.191  0.0748 -0.9605  0.2968
15156TIP3    H166959   0.605   2.793  14.282 -0.3626  1.8741 -0.0205
15156TIP3    H266960   0.486   2.782  14.189  0.0976 -0.7135 -0.3777
15157TIP3   OH266961   3.845   3.853   9.721 -0.2869 -0.5932 -0.5750
15157TIP3    H166962   3.922   3.798   9.732  0.5859  0.5020 -0.9710
15157TIP3    H266963   3.778   3.812   9.775  0.5671 -1.5748 -0.2311
15158TIP3   OH266964   2.101   3.146  34.990 -0.0492  0.4155 -0.2505
15158TIP3    H166965   2.158   3.112  35.058  1.9480 -0.4674 -2.2859
15158TIP3    H266966   2.121   3.240  34.987  0.0642  0.4060  0.1735
15159TIP3   OH266967   0.057   3.107   7.736 -0.1425 -0.0492 -0.3371
15159TIP3    H166968   0.109   3.102   7.816 -0.5205 -0.0725 -0.0870
15159TIP3    H266969  -0.006   3.178   7.753 -1.2567 -1.0865  0.0171
15160TIP3   OH266970   1.530   2.765   7.605 -0.2199  0.1530  0.2554
15160TIP3    H166971   1.505   2.833   7.543  1.9294  1.1111  0.3631
15160TIP3    H266972   1.626   2.766   7.604  0.0420 -4.1817 -1.2194
15161TIP3   OH266973   0.924   0.484   8.338 -0.2277 -0.4836 -0.3238
15161TIP3    H166974   0.991   0.548   8.314  0.2284 -0.6607  0.4398
15161TIP3    H266975   0.907   0.436   8.257  0.0559  0.0337 -0.6944
15162TIP3   OH266976   2.571   2.342  14.089  0.0368 -0.5517 -0.3115
15162TIP3    H166977   2.486   2.378  14.063  0.7278  0.9511 -0.5967
15162TIP3    H266978   2.603   2.300  14.009  0.9004  1.6030 -1.1846
15163TIP3   OH266979   0.287   3.137   6.740  0.0158  0.2584  0.5086
15163TIP3    H166980   0.243   3.216   6.769  1.4490  0.6967  1.5761
15163TIP3    H266981   0.292   3.082   6.818  1.6129  0.3625  0.5074
15164TIP3   OH266982   1.856   1.271  36.555 -0.3676 -0.7996  0.1661
15164TIP3    H166983   1.777   1.315  36.587  0.4092  1.0199 -0.2498
15164TIP3    H266984   1.924   1.294  36.619  0.3804 -0.1496 -0.8211
15165TIP3   OH266985   2.735   0.448  47.564 -0.9001  0.1023 -0.3741
15165TIP3    H166986   2.792   0.525  47.565  2.5126 -2.1982 -1.2557
15165TIP3    H266987   2.755   0.404  47.482 -1.3273 -2.6630  0.8793
15166TIP3   OH266988   2.959   0.857  38.937 -0.5151 -0.9323  0.4749
15166TIP3    H166989   2.987   0.942  38.972  0.4450 -0.7734 -0.6129
15166TIP3    H266990   3.030   0.831  38.879 -1.8206 -1.4072 -0.9654
15167TIP3   OH266991   1.530   1.130  12.709  0.3885  0.0007  0.2048
15167TIP3    H166992   1.474   1.208  12.710  1.1594  0.5654  0.6380
15167TIP3    H266993   1.550   1.113  12.801  1.1494 -0.0217  0.0457
15168TIP3   OH266994   1.621   1.625  40.774 -0.8804  0.2800  0.3535
15168TIP3    H166995   1.591   1.635  40.684 -1.6010 -2.9195  0.1118
15168TIP3    H266996   1.715   1.606  40.767 -0.7435  0.9370  0.3654
15169TIP3   OH266997   0.845   2.048  12.125 -0.2936  0.2015  0.0734
15169TIP3    H166998   0.828   1.955  12.108  0.9836 -0.3773  1.6676
15169TIP3    H266999   0.770   2.077  12.176  0.3022 -0.5564  1.4190
15170TIP3   OH267000   3.627   3.186  39.777  0.3464 -0.4876 -0.7615
15170TIP3    H167001   3.603   3.253  39.713  0.3913  0.1833 -0.0849
15170TIP3    H267002   3.599   3.104  39.737  2.4718 -0.3571 -2.7089
15171TIP3   OH267003   1.122   2.617  46.379  0.3521 -0.2035  0.6176
15171TIP3    H167004   1.212   2.649  46.366  0.1218  0.9442  1.7023
15171TIP3    H267005   1.120   2.588  46.470 -0.8222  1.3931  1.1496
15172TIP3   OH267006   3.251   1.794  16.530  0.0476 -0.5826  0.3337
15172TIP3    H167007   3.201   1.771  16.452 -0.1368 -0.3214  0.3698
15172TIP3    H267008   3.322   1.850  16.497  0.8612 -1.6902  0.1659
15173TIP3   OH267009   1.917   1.705  43.657 -0.1336  0.2814  0.2040
15173TIP3    H167010   1.948   1.720  43.746  1.3624 -0.1124 -0.2196
15173TIP3    H267011   1.933   1.788  43.612  0.2912  0.0838 -0.0109
15174TIP3   OH267012   0.900   0.715  37.465 -0.4625 -0.4595  0.3698
15174TIP3    H167013   0.887   0.801  37.424 -0.6394 -0.9933 -0.7471
15174TIP3    H267014   0.929   0.735  37.554 -2.1619  0.7661  0.7098
15175TIP3   OH267015   0.223   0.872  40.135 -0.1825  0.4097  0.4990
15175TIP3    H167016   0.242   0.902  40.224 -0.4061  1.5878  0.1660
15175TIP3    H267017   0.159   0.936  40.102 -0.0417  0.0279 -0.5311
15176TIP3   OH267018   0.419   0.839   3.362  0.6005  0.5066  0.3630
15176TIP3    H167019   0.454   0.758   3.324  0.0111  0.1224  0.6218
15176TIP3    H267020   0.391   0.890   3.286  2.9449  1.4266  0.0608
15177TIP3   OH267021   3.729   2.101   2.624  0.0967  1.1413  0.1227
15177TIP3    H167022   3.684   2.173   2.580  0.0154  0.6668 -0.5793
15177TIP3    H267023   3.742   2.132   2.714 -1.5897  1.3057  0.3344
15178TIP3   OH267024   1.178   2.786  42.136  0.5250 -0.2754 -0.2823
15178TIP3    H167025   1.186   2.774  42.042 -0.1213 -0.0588 -0.3650
15178TIP3    H267026   1.244   2.727  42.173  0.4642 -0.7071 -0.8496
15179TIP3   OH267027   1.064   3.597   5.966  0.7507  1.4091 -0.3434
15179TIP3    H167028   1.150   3.559   5.979  0.3083  0.3816 -0.3353
15179TIP3    H267029   1.052   3.655   6.041  0.7831  0.3154  0.5399
15180TIP3   OH267030   2.280   1.499   4.610 -0.4413 -0.1723 -0.1827
15180TIP3    H167031   2.374   1.516   4.603 -0.2684 -1.3472 -1.0879
15180TIP3    H267032   2.240   1.559   4.547 -0.1477 -0.6900 -0.8815
15181TIP3   OH267033   1.760   2.535  44.265 -0.0069 -0.1183  0.2983
15181TIP3    H167034   1.744   2.605  44.329 -0.1695  1.4628 -1.3634
15181TIP3    H267035   1.855   2.533  44.255  0.1165 -1.2457  1.4659
15182TIP3   OH267036   3.780   2.472  38.492 -0.2715  0.0698 -0.0615
15182TIP3    H167037   3.710   2.492  38.555 -2.2890 -2.1459 -1.4664
15182TIP3    H267038   3.737   2.469  38.407  1.6886 -0.6596 -1.1061
15183TIP3   OH267039   2.950   3.891  15.624  0.4279 -0.2207  0.0871
15183TIP3    H167040   2.896   3.912  15.700  0.9456  1.7356 -0.0168
15183TIP3    H267041   3.002   3.970  15.610  1.0489 -0.9038 -1.7097
15184TIP3   OH267042   0.476   0.718   0.594  0.3277 -0.0856 -0.0879
15184TIP3    H167043   0.547   0.744   0.653  0.1805  0.8765 -0.3146
15184TIP3    H267044   0.397   0.727   0.647  0.2402  0.3194 -0.2803
15185TIP3   OH267045   1.616   0.862   7.541 -0.4469 -0.4913  0.2138
15185TIP3    H167046   1.588   0.894   7.626  0.4172  0.2063  0.2497
15185TIP3    H267047   1.650   0.940   7.496 -2.3102 -0.5225 -1.3787
15186TIP3   OH267048   4.101   3.584   6.615  0.1541  0.4974 -0.0513
15186TIP3    H167049   4.108   3.623   6.528  0.8264 -0.0028 -0.2350
15186TIP3    H267050   4.095   3.658   6.675  1.0924  0.8825 -0.4175
15187TIP3   OH267051   1.008   1.611   3.339  0.7461 -0.3530  0.3183
15187TIP3    H167052   0.996   1.645   3.428  0.8709 -0.6094  0.4353
15187TIP3    H267053   1.030   1.688   3.287 -0.4344 -0.0093  0.2831
15188TIP3   OH267054   2.565   0.910  15.086  0.6071 -0.0709 -0.2179
15188TIP3    H167055   2.579   0.997  15.123  1.1784 -0.0805 -0.4041
15188TIP3    H267056   2.470   0.901  15.081  0.5302  1.0025 -1.2584
15189TIP3   OH267057   3.520   3.597  13.970 -0.0083 -0.1564  0.0097
15189TIP3    H167058   3.584   3.538  13.930  0.8105 -0.2143  1.3197
15189TIP3    H267059   3.437   3.550  13.966 -0.2638  0.3682 -2.7158
15190TIP3   OH267060   0.971   0.284   8.156  0.0523  0.1204 -0.0061
15190TIP3    H167061   1.003   0.300   8.067 -0.6449  2.0359  0.0407
15190TIP3    H267062   1.049   0.266   8.208  0.8230  2.1731 -0.3892
15191TIP3   OH267063   2.471   0.793  46.370  0.0667 -0.1146  0.8720
15191TIP3    H167064   2.526   0.781  46.293 -0.5651  1.4855  0.1325
15191TIP3    H267065   2.409   0.720  46.366  0.6972 -0.6362  0.4547
15192TIP3   OH267066   2.278   2.399  37.220 -0.1225 -0.0790 -0.8160
15192TIP3    H167067   2.192   2.373  37.254 -0.9625  2.1199 -1.1105
15192TIP3    H267068   2.327   2.427  37.297 -0.4083  0.5884 -0.8709
15193TIP3   OH267069   4.009   2.386  40.720 -0.1708  0.0291 -0.5242
15193TIP3    H167070   3.927   2.392  40.768  0.0510 -0.4772 -0.0696
15193TIP3    H267071   3.996   2.312  40.660 -1.2318  1.9307 -2.8324
15194TIP3   OH267072   1.789   3.528   8.274 -0.1238  0.0431  0.0511
15194TIP3    H167073   1.826   3.440   8.270  1.2674  0.5445  1.1191
15194TIP3    H267074   1.831   3.575   8.202 -1.3804 -0.3132 -0.9551
15195TIP3   OH267075   1.739   3.262   6.668  0.0449  0.8514  0.7523
15195TIP3    H167076   1.739   3.352   6.699 -1.6928  0.7915  1.0389
15195TIP3    H267077   1.676   3.262   6.596  0.9362  0.1080 -0.0579
15196TIP3   OH267078   0.201   0.379  36.182 -0.0309  0.3262 -0.1662
15196TIP3    H167079   0.263   0.441  36.222 -0.5404 -0.1843  1.5027
15196TIP3    H267080   0.119   0.427  36.176 -0.4500 -0.1467  1.2102
15197TIP3   OH267081   0.468   2.689  38.233  0.0201  0.3147 -0.6105
15197TIP3    H167082   0.436   2.779  38.226  0.0606  0.5939  1.9176
15197TIP3    H267083   0.403   2.645  38.287  0.6998 -0.8084 -0.6829
15198TIP3   OH267084   3.580   0.193  12.909 -0.3978 -0.0324  0.1036
15198TIP3    H167085   3.546   0.148  12.987 -1.4606 -2.0475 -1.4431
15198TIP3    H267086   3.617   0.274  12.943  0.2272 -1.3489  2.8746
15199TIP3   OH267087   0.204   2.099   5.630  0.1798  0.4868 -0.0704
15199TIP3    H167088   0.176   2.123   5.718  1.4051 -1.0177  0.7700
15199TIP3    H267089   0.179   2.174   5.576  1.2055  2.3713  1.9043
15200TIP3   OH267090   0.922   2.068  34.829  0.0116  0.5690  0.5705
15200TIP3    H167091   0.904   1.989  34.779 -1.9152  1.5045 -0.3347
15200TIP3    H267092   1.017   2.081  34.821 -0.0822  0.0793 -1.9524
15201TIP3   OH267093   4.068   2.153  33.128  0.3891  0.2745  0.0730
15201TIP3    H167094   3.998   2.146  33.194  0.8278  0.4769  0.5659
15201TIP3    H267095   4.059   2.074  33.075 -0.7267  0.6771 -0.3789
15202TIP3   OH267096   2.880   1.100  39.519 -0.0631  0.6264 -0.0016
15202TIP3    H167097   2.876   1.034  39.450  0.0919  1.3886 -0.7545
15202TIP3    H267098   2.900   1.050  39.598  0.1655 -0.2149 -0.5689
15203TIP3   OH267099   1.412   0.689  13.800  0.1457  0.3057  0.0663
15203TIP3    H167100   1.470   0.682  13.724 -0.4702  0.4061 -0.4168
15203TIP3    H267101   1.400   0.784  13.812  1.2917  0.3463  1.1040
15204TIP3   OH267102   2.488   1.927  32.023  0.6997 -0.2505 -0.4434
15204TIP3    H167103   2.559   1.907  32.085 -0.8133 -0.5245  1.2690
15204TIP3    H267104   2.421   1.862  32.041 -0.9354  1.3506 -0.4284
15205TIP3   OH267105   0.506   0.638  31.448 -0.0999 -0.1346 -0.2965
15205TIP3    H167106   0.436   0.584  31.412 -2.0259  0.2440  2.4966
15205TIP3    H267107   0.558   0.577  31.501  0.7964 -0.1309 -1.1538
15206TIP3   OH267108   4.029   0.632  13.860  0.5952 -0.5546  0.0382
15206TIP3    H167109   4.069   0.616  13.774 -1.4022  0.2224 -1.0919
15206TIP3    H267110   4.009   0.545  13.894 -0.0275 -0.8420 -1.0125
15207TIP3   OH267111   4.078   2.015   1.383  0.3719 -0.1231  0.2171
15207TIP3    H167112   4.005   2.069   1.413  1.2001  0.7557  0.7190
15207TIP3    H267113   4.073   1.936   1.435 -0.4232 -0.2241  0.0003
15208TIP3   OH267114   0.253   0.655  38.904  0.1686 -0.2393 -0.1312
15208TIP3    H167115   0.246   0.632  38.811  1.0139 -0.7337 -0.0810
15208TIP3    H267116   0.331   0.608  38.934  1.6220  2.1960  0.1302
15209TIP3   OH267117   3.254   0.621  38.199 -0.1276 -0.1320 -0.2967
15209TIP3    H167118   3.275   0.707  38.236 -1.2596  0.1384 -0.2405
15209TIP3    H267119   3.294   0.621  38.113 -1.3772  1.0752 -0.9219
15210TIP3   OH267120   3.352   0.504  10.998 -0.6163  0.3306 -0.3432
15210TIP3    H167121   3.367   0.596  11.018  0.6617  0.1648 -0.4005
15210TIP3    H267122   3.370   0.458  11.080  1.6365 -0.0809 -0.9858
15211TIP3   OH267123   4.056   0.005  27.022  0.0627 -0.0271  0.0925
15211TIP3    H167124   3.966  -0.012  26.993  0.0486 -3.4745  1.6299
15211TIP3    H267125   4.052  -0.001  27.117  1.6791  1.4299  0.2979
15212TIP3   OH267126   2.029   3.431  37.722 -0.3001 -0.1736  0.3215
15212TIP3    H167127   2.081   3.492  37.671  0.2974  0.1996  1.3449
15212TIP3    H267128   1.943   3.432  37.681  0.1316  0.1952 -0.5906
15213TIP3   OH267129   3.039   2.095   5.991  0.6092  0.0493 -0.4031
15213TIP3    H167130   3.115   2.128   6.039  0.9490  0.7130 -1.3684
15213TIP3    H267131   3.045   2.136   5.905  0.1316 -1.2909 -1.1077
15214TIP3   OH267132   3.222   1.369   7.469  0.2865  0.0279 -0.0572
15214TIP3    H167133   3.253   1.313   7.540 -0.0855  1.1801  1.0550
15214TIP3    H267134   3.302   1.398   7.425  0.6168  0.3617  0.7398
15215TIP3   OH267135   2.082   0.739   6.814 -0.4192 -0.0691  0.3083
15215TIP3    H167136   1.998   0.771   6.781  0.2638  0.3817 -1.1140
15215TIP3    H267137   2.132   0.717   6.735  1.2491  0.8593  1.0371
15216TIP3   OH267138   1.457   2.469  47.311  0.4656  0.1623 -0.0724
15216TIP3    H167139   1.374   2.500  47.346 -0.6911 -2.6007 -0.1304
15216TIP3    H267140   1.479   2.392  47.363  1.1431 -1.2377 -2.2582
15217TIP3   OH267141   3.940   1.763  13.072  0.4497 -0.3239 -0.2095
15217TIP3    H167142   4.000   1.718  13.132  0.1643 -0.5175 -0.0650
15217TIP3    H267143   3.855   1.720  13.086  0.5152 -0.8143 -1.2240
15218TIP3   OH267144   2.383   0.280   7.031 -0.1055 -0.7097 -0.1914
15218TIP3    H167145   2.434   0.361   7.037 -0.6163 -0.4826  1.6197
15218TIP3    H267146   2.444   0.212   7.058 -0.3365 -0.6270  0.5430
15219TIP3   OH267147   2.899   4.003  34.756  0.2385  0.1874  0.3017
15219TIP3    H167148   2.937   4.000  34.668  1.5873 -1.1299  0.8886
15219TIP3    H267149   2.826   3.941  34.753 -0.0954  0.5855 -0.0322
15220TIP3   OH267150   0.524   1.421  21.968 -0.0661  0.3549 -0.7384
15220TIP3    H167151   0.562   1.401  21.883 -0.0629  0.6829 -0.8158
15220TIP3    H267152   0.431   1.435  21.950  0.1792  1.9241 -0.9522
15221TIP3   OH267153   2.869   1.838  16.620 -0.1455  0.4395  0.0550
15221TIP3    H167154   2.925   1.760  16.617 -1.8402 -0.9577  1.8983
15221TIP3    H267155   2.805   1.824  16.550  0.4868  0.9814 -0.6446
15222TIP3   OH267156   1.081   3.669  36.027  0.6132 -1.1144 -0.2878
15222TIP3    H167157   1.143   3.726  36.073  1.3057 -0.7792 -1.6123
15222TIP3    H267158   1.136   3.606  35.980 -0.1205 -2.3012  0.3902
15223TIP3   OH267159   1.346   1.722  34.407  0.3334 -0.1733  0.2202
15223TIP3    H167160   1.391   1.721  34.492 -0.6626  2.2247  0.8615
15223TIP3    H267161   1.288   1.798  34.412 -0.2931 -0.4017 -2.3615
15224TIP3   OH267162   2.274   0.694  45.455 -0.0879  0.0685  0.1723
15224TIP3    H167163   2.231   0.708  45.371  0.3359 -0.9140 -0.2209
15224TIP3    H267164   2.273   0.599  45.467  2.7026 -0.0975 -0.2668
15225TIP3   OH267165   2.442   2.875  15.590 -1.2756 -0.1187 -0.5821
15225TIP3    H167166   2.358   2.880  15.543 -1.0409 -0.4148 -1.0456
15225TIP3    H267167   2.419   2.841  15.676 -1.4732 -1.6177 -1.1856
15226TIP3   OH267168   3.319   2.921  47.679  0.2431 -0.3203 -0.4432
15226TIP3    H167169   3.245   2.868  47.711 -0.6190  0.6836 -0.7059
15226TIP3    H267170   3.374   2.933  47.756  0.6226 -1.8335 -0.4480
15227TIP3   OH267171   2.858   2.960   0.400 -0.0075  0.0818 -0.1558
15227TIP3    H167172   2.767   2.934   0.415  0.0970  0.2446  0.8549
15227TIP3    H267173   2.872   3.032   0.461  1.0184 -0.4395  0.2542
15228TIP3   OH267174   0.454   2.250  32.117  0.1363  0.4484 -0.2777
15228TIP3    H167175   0.452   2.343  32.142 -0.7311  0.2466  0.4456
15228TIP3    H267176   0.429   2.250  32.025  0.7267  0.9773 -0.4447
15229TIP3   OH267177   2.217   1.164  12.912  1.1481 -0.4489  0.1157
15229TIP3    H167178   2.210   1.086  12.857  0.8742 -1.2358  1.2410
15229TIP3    H267179   2.281   1.219  12.867 -0.4215 -0.2038 -1.9878
15230TIP3   OH267180   3.461   3.173  38.054  0.0198  0.0385 -0.4448
15230TIP3    H167181   3.465   3.145  38.145  0.2438  0.7764 -0.2257
15230TIP3    H267182   3.546   3.215  38.038 -1.0719  2.5342 -0.1186
15231TIP3   OH267183   2.623   3.007   4.021 -0.0323 -0.6101 -0.3669
15231TIP3    H167184   2.605   2.916   3.997  0.7947 -1.2157  1.1886
15231TIP3    H267185   2.564   3.024   4.094 -2.0008  0.9701 -2.1686
15232TIP3   OH267186   2.510   0.200  11.714  0.5048  0.2158 -0.3891
15232TIP3    H167187   2.529   0.154  11.796 -0.6370  0.4284  0.0110
15232TIP3    H267188   2.415   0.211  11.714  0.4540 -0.0067 -1.8697
15233TIP3   OH267189   2.604   0.855  31.542  0.3566  0.1323 -0.0257
15233TIP3    H167190   2.638   0.828  31.627  0.4018 -1.6795 -0.5565
15233TIP3    H267191   2.553   0.934  31.559 -0.8592 -1.0045  1.9390
15234TIP3   OH267192   0.168   2.902  11.697 -0.2406 -0.1587  0.1881
15234TIP3    H167193   0.206   2.989  11.708  0.6754 -0.6986  1.6810
15234TIP3    H267194   0.096   2.898  11.760  0.2985 -0.7700  0.7844
15235TIP3   OH267195   3.232   2.477   1.998  0.3618  0.2118  0.7328
15235TIP3    H167196   3.234   2.539   2.071  0.8458 -0.2339  1.1075
15235TIP3    H267197   3.317   2.487   1.955 -0.9579  2.6236 -1.6511
15236TIP3   OH267198   0.209   0.486  39.670 -0.1931 -0.3892 -0.3625
15236TIP3    H167199   0.256   0.410  39.635  1.0688  0.8716 -1.5420
15236TIP3    H267200   0.186   0.461  39.759  1.9901 -1.4097 -0.0236
15237TIP3   OH267201   1.733   2.041  12.529  0.2624  0.1008 -0.4096
15237TIP3    H167202   1.743   2.034  12.434  0.1395  1.0087 -0.4922
15237TIP3    H267203   1.789   2.115  12.554 -0.3443  0.3870  0.1190
15238TIP3   OH267204   3.453   0.727  31.565 -0.5471 -0.0305 -0.0541
15238TIP3    H167205   3.403   0.681  31.497  0.5012  1.5770 -2.0242
15238TIP3    H267206   3.511   0.659  31.602 -1.8009 -1.1471 -0.0602
15239TIP3   OH267207   2.757   1.293  43.658 -0.5680 -0.0725  0.3605
15239TIP3    H167208   2.686   1.258  43.604 -1.7393  1.0774  1.0861
15239TIP3    H267209   2.714   1.320  43.740  0.6708  0.8272  0.7495
15240TIP3   OH267210   2.020   2.969   4.571 -0.3935  0.3602  0.3539
15240TIP3    H167211   2.096   2.915   4.592 -0.1615  0.7781  0.5915
15240TIP3    H267212   1.985   2.995   4.656 -0.4626  0.6407  0.2392
15241TIP3   OH267213   1.857   1.121   5.550 -0.0087  0.5436 -0.1431
15241TIP3    H167214   1.897   1.080   5.473 -0.2126 -0.6751  0.3653
15241TIP3    H267215   1.765   1.132   5.525  0.4170  2.5937 -1.0112
15242TIP3   OH267216   0.055   0.767  38.214  0.2505  0.1240 -0.4097
15242TIP3    H167217   0.010   0.699  38.164  0.2396  0.3043 -0.6464
15242TIP3    H267218   0.096   0.822  38.147  0.3280  0.3052 -0.2118
15243TIP3   OH267219   4.080   0.664  46.843  0.0571  0.3365  0.1301
15243TIP3    H167220   3.994   0.660  46.801  0.7589  1.7733 -1.5839
15243TIP3    H267221   4.077   0.742  46.897  0.6346  1.0443 -0.8379
15244TIP3   OH267222   0.702   3.866  44.757  0.6390  0.0611  0.1645
15244TIP3    H167223   0.786   3.910  44.769  0.6362 -0.1254  0.8629
15244TIP3    H267224   0.725   3.783  44.715  1.0124 -0.8108  2.0182
15245TIP3   OH267225   2.711   0.351   9.627 -0.3211 -0.0867 -0.3842
15245TIP3    H167226   2.698   0.379   9.536 -0.3746  1.7618  0.1422
15245TIP3    H267227   2.751   0.427   9.670 -0.4775 -0.8443  1.1870
15246TIP3   OH267228   2.302   0.171  39.325 -0.2940  0.6751  0.0244
15246TIP3    H167229   2.345   0.191  39.408  1.7966  0.9056 -1.0634
15246TIP3    H267230   2.345   0.092  39.294  0.3504  1.6766 -1.7670
15247TIP3   OH267231   1.553   0.089   2.637 -0.3835 -0.2420 -0.0617
15247TIP3    H167232   1.627   0.116   2.584 -1.1217  0.3403 -0.8351
15247TIP3    H267233   1.513   0.018   2.587 -1.0683  0.2946 -0.2989
15248TIP3   OH267234   4.051   0.188  40.621  0.4836 -0.3530  0.4980
15248TIP3    H167235   4.017   0.218  40.706 -0.2875 -1.9603  0.7991
15248TIP3    H267236   3.998   0.111  40.600 -0.3765  0.8842 -2.2147
15249TIP3   OH267237   2.924   3.505  39.720  0.0828 -0.3811  0.1320
15249TIP3    H167238   2.975   3.555  39.785 -0.8799  2.2667 -0.9937
15249TIP3    H267239   2.947   3.414  39.736  2.4845  0.4403  1.9358
15250TIP3   OH267240   2.146   1.139  47.303 -0.2785 -0.0144 -0.2568
15250TIP3    H167241   2.231   1.104  47.329 -0.7880 -0.5383  0.7662
15250TIP3    H267242   2.108   1.070  47.249 -0.1547  0.1224 -0.5217
15251TIP3   OH267243   0.313   0.785  47.177  0.3646 -0.0577 -0.6090
15251TIP3    H167244   0.294   0.696  47.205  0.1191  0.4419  0.8665
15251TIP3    H267245   0.375   0.819  47.241 -0.3560  1.1848 -0.5362
15252TIP3   OH267246   3.518   1.035  32.339 -0.3783 -0.6365 -0.6027
15252TIP3    H167247   3.611   1.056  32.333 -0.4265 -0.7949 -4.7636
15252TIP3    H267248   3.477   1.116  32.369  1.0737 -1.0820  3.2190
15253TIP3   OH267249   1.718   1.627   2.685 -0.4799 -0.4496  0.2711
15253TIP3    H167250   1.755   1.715   2.685 -1.0327 -0.2116  0.9291
15253TIP3    H267251   1.794   1.569   2.684 -0.1150  0.0303 -0.5332
15254TIP3   OH267252   0.466   2.485  43.254 -0.3454 -0.2099  0.1018
15254TIP3    H167253   0.426   2.436  43.182 -1.5077 -1.6188  1.6504
15254TIP3    H267254   0.549   2.441  43.269 -1.0698 -1.3259  1.0169
15255TIP3   OH267255   2.790   2.105  12.520 -0.7561  0.1819  0.5586
15255TIP3    H167256   2.818   2.188  12.556  0.4447 -0.2866  0.7363
15255TIP3    H267257   2.823   2.105  12.430  1.2577 -1.0108  1.2358
15256TIP3   OH267258   2.562   3.832   7.917  0.2700 -0.0306  0.4765
15256TIP3    H167259   2.512   3.838   7.835 -0.6792 -3.9574  0.5505
15256TIP3    H267260   2.541   3.913   7.964 -1.7200  0.8998 -1.7896
15257TIP3   OH267261   2.092   1.431  44.607  0.3967  0.1207 -0.5405
15257TIP3    H167262   2.153   1.470  44.544 -1.5036  0.1985 -2.4522
15257TIP3    H267263   2.129   1.345  44.626  1.9987  0.8348 -0.2144
15258TIP3   OH267264   0.066   3.085  30.857 -0.4296 -1.0149  0.2508
15258TIP3    H167265   0.036   2.996  30.873  0.8235 -1.2995  1.2434
15258TIP3    H267266   0.011   3.140  30.913 -2.3079 -0.9223 -1.5670
15259TIP3   OH267267   1.807   1.777  40.478 -0.0971 -0.5683 -0.2425
15259TIP3    H167268   1.860   1.703  40.447 -0.2323 -0.5860 -0.4295
15259TIP3    H267269   1.854   1.854  40.448 -1.2514 -0.5893 -2.2261
15260TIP3   OH267270   3.190   1.506  11.714 -0.3165  0.0152 -0.1912
15260TIP3    H167271   3.103   1.536  11.740 -0.1619 -0.0616  0.4386
15260TIP3    H267272   3.243   1.586  11.714 -0.4089  0.0783 -0.6778
15261TIP3   OH267273   2.030   0.277  41.266 -0.3186  0.3212 -0.2087
15261TIP3    H167274   1.998   0.212  41.204 -1.3609 -0.2362  0.8728
15261TIP3    H267275   1.961   0.283  41.332 -0.8042  3.3416 -0.8147
15262TIP3   OH267276   4.028   2.564   8.674  0.1231  0.1218 -0.0467
15262TIP3    H167277   4.118   2.531   8.669  0.8066  1.6159  1.4924
15262TIP3    H267278   3.980   2.509   8.612  1.9508 -1.1335 -0.4634
15263TIP3   OH267279   1.282   0.004  26.287 -0.9074 -0.8739  0.3457
15263TIP3    H167280   1.350  -0.064  26.282  4.4485  3.6582  0.7844
15263TIP3    H267281   1.285   0.034  26.378  0.4474  2.6073 -0.6647
15264TIP3   OH267282   0.462   3.056   5.201 -0.0770 -0.5318  0.4038
15264TIP3    H167283   0.442   2.969   5.237  0.2486 -0.7291  0.1161
15264TIP3    H267284   0.513   3.037   5.122  1.8341 -0.0358  1.4689
15265TIP3   OH267285   2.969   2.760  32.297 -0.2970  0.1302 -0.2796
15265TIP3    H167286   3.049   2.723  32.336 -0.2944  0.6056  0.1748
15265TIP3    H267287   2.985   2.755  32.202  0.4226  0.5289 -0.1926
15266TIP3   OH267288   1.823   2.411  40.612  0.3282  0.4536  0.2809
15266TIP3    H167289   1.792   2.501  40.603  0.9479  0.7245  0.8113
15266TIP3    H267290   1.827   2.396  40.707  2.3444  0.6091  0.2419
15267TIP3   OH267291   3.263   2.668   4.293  0.1079 -0.1054  0.1003
15267TIP3    H167292   3.281   2.667   4.199 -1.6976 -2.4736 -0.3192
15267TIP3    H267293   3.343   2.631   4.332  0.2820 -0.5865 -0.6714
15268TIP3   OH267294   2.596   3.953  12.089 -0.3324 -0.7969  0.2954
15268TIP3    H167295   2.567   3.924  12.176 -1.4066 -0.0485  0.2059
15268TIP3    H267296   2.611   3.873  12.040 -0.3197 -1.2203  0.9878
15269TIP3   OH267297   2.462   2.194   2.102 -0.2662  0.4008 -0.7966
15269TIP3    H167298   2.524   2.237   2.161 -0.5876  0.3160 -0.3899
15269TIP3    H267299   2.453   2.106   2.137 -2.3593  1.0596  0.5621
15270TIP3   OH267300   0.384   2.411  16.550 -0.0461  0.0041  0.2661
15270TIP3    H167301   0.334   2.360  16.613  2.0589 -0.6542  1.4991
15270TIP3    H267302   0.411   2.348  16.484  0.3560  0.0636  0.3740
15271TIP3   OH267303   1.682   1.013  43.717 -0.2023  0.2269  0.1820
15271TIP3    H167304   1.691   1.104  43.745 -0.2312  0.4778 -0.6160
15271TIP3    H267305   1.713   0.962  43.792 -0.6980  0.8782  0.8408
15272TIP3   OH267306   0.284   0.809  14.794  0.4658 -0.7126 -0.3528
15272TIP3    H167307   0.333   0.729  14.774  0.9740 -0.2274 -1.0817
15272TIP3    H267308   0.225   0.821  14.719  2.0497  0.8559 -1.4378
15273TIP3   OH267309   0.810   1.662  11.758 -0.3831  0.0297 -0.5931
15273TIP3    H167310   0.827   1.628  11.670  1.0755  0.7855 -0.6448
15273TIP3    H267311   0.840   1.593  11.817 -1.8030 -0.6755 -0.6627
15274TIP3   OH267312   0.435   3.949  26.376 -0.2429  0.3832  0.2023
15274TIP3    H167313   0.516   3.999  26.384 -0.6388  0.8457  1.6001
15274TIP3    H267314   0.367   4.009  26.408 -1.3684  0.5326 -2.2787
15275TIP3   OH267315   1.306   1.895  34.954 -0.3707 -0.7785  0.5529
15275TIP3    H167316   1.301   1.864  34.864 -1.1056  1.3080 -0.1940
15275TIP3    H267317   1.372   1.839  34.995  0.7980 -1.0679 -1.5880
15276TIP3   OH267318   1.874   0.805  45.331 -0.4904 -0.6182 -0.0180
15276TIP3    H167319   1.855   0.733  45.271 -3.3485  0.9560 -1.1913
15276TIP3    H267320   1.806   0.870  45.314 -0.3615  0.7391  3.6712
15277TIP3   OH267321   3.907   3.584  43.401 -0.1253  0.1026  0.8758
15277TIP3    H167322   3.997   3.618  43.406  0.1732 -0.6007  0.4329
15277TIP3    H267323   3.859   3.636  43.465  0.4785  0.8590  0.7424
15278TIP3   OH267324   1.168   0.181  35.684  0.0593 -0.3654  0.1060
15278TIP3    H167325   1.211   0.266  35.692  0.2569 -0.5428  1.1034
15278TIP3    H267326   1.083   0.194  35.725 -0.0996 -0.5229 -0.1725
15279TIP3   OH267327   1.393   2.338   4.785 -0.3225  0.4648 -0.0547
15279TIP3    H167328   1.400   2.275   4.714  0.4084 -0.6520  0.9738
15279TIP3    H267329   1.426   2.420   4.748  1.7206 -0.5101 -0.4929
15280TIP3   OH267330   1.749   2.451  45.983  0.1045 -0.0646 -0.2761
15280TIP3    H167331   1.738   2.391  46.057 -0.4226 -0.4929 -0.6989
15280TIP3    H267332   1.839   2.435  45.953  0.4249  0.3167  0.4364
15281TIP3   OH267333   1.839   2.655  43.747  0.2003  0.0942 -0.0132
15281TIP3    H167334   1.882   2.578  43.784 -1.1855 -1.3510 -1.2503
15281TIP3    H267335   1.799   2.699  43.822  0.7067 -0.6051  0.6777
15282TIP3   OH267336   3.196   2.749  41.994  0.0073 -0.0965  0.5569
15282TIP3    H167337   3.158   2.758  41.907  0.4007  1.0161  0.4868
15282TIP3    H267338   3.279   2.704  41.980 -0.2899 -0.6169  0.4568
15283TIP3   OH267339   2.559   1.476  38.228  0.2054  0.3515 -0.1722
15283TIP3    H167340   2.609   1.398  38.252  1.2688  1.0991  0.0988
15283TIP3    H267341   2.598   1.546  38.280 -0.8867  1.0262 -0.2463
15284TIP3   OH267342   2.948   2.788  14.412 -0.0625 -0.1619 -0.1939
15284TIP3    H167343   3.008   2.738  14.467 -0.3165 -0.5710 -0.2821
15284TIP3    H267344   3.004   2.828  14.345  0.4795  1.6499  1.2601
15285TIP3   OH267345   3.296   3.322   3.356  0.3469  0.0210 -0.0713
15285TIP3    H167346   3.369   3.378   3.385 -0.5084  0.8691  0.5355
15285TIP3    H267347   3.247   3.304   3.437 -0.3992 -0.1020 -0.5473
15286TIP3   OH267348   3.986   3.440   8.234 -0.4992 -0.2375 -0.3523
15286TIP3    H167349   3.919   3.388   8.277 -0.1374 -0.5059 -0.0995
15286TIP3    H267350   3.970   3.530   8.263 -0.8068 -0.2878 -0.3721
15287TIP3   OH267351   2.186   1.132  44.119  0.4446  0.6413 -0.7543
15287TIP3    H167352   2.102   1.119  44.161  0.7714  0.6351 -0.0919
15287TIP3    H267353   2.187   1.224  44.093  0.7002  0.9478  0.2916
15288TIP3   OH267354   2.652   1.935  35.536 -0.2572 -0.6874  1.3064
15288TIP3    H167355   2.646   2.031  35.531  0.2089 -0.7020 -2.3073
15288TIP3    H267356   2.713   1.919  35.608 -0.4197  1.7244  2.0729
15289TIP3   OH267357   1.181   2.039   7.002 -0.1209  0.3178  0.2506
15289TIP3    H167358   1.222   2.006   6.922 -1.2099 -1.2862  0.2923
15289TIP3    H267359   1.238   2.110   7.031  2.3223 -1.3979 -0.0031
15290TIP3   OH267360   3.960   0.763  11.324 -0.1557 -0.2376 -0.3180
15290TIP3    H167361   3.887   0.815  11.289 -1.6942 -0.5806  2.1750
15290TIP3    H267362   4.034   0.824  11.326 -0.6320  0.4478 -1.8052
15291TIP3   OH267363   1.137   3.961  28.418  0.8509 -0.0797  0.1778
15291TIP3    H167364   1.044   3.943  28.433  0.8051 -0.0493 -0.0618
15291TIP3    H267365   1.163   4.018  28.490  1.2714 -1.9782  1.6104
15292TIP3   OH267366   2.396   2.900  10.566  0.4893  0.2341 -0.1162
15292TIP3    H167367   2.441   2.842  10.505 -2.0155  0.1951 -2.1388
15292TIP3    H267368   2.334   2.948  10.511 -1.4040  0.7760  2.3086
15293TIP3   OH267369   2.745   1.625   8.545 -1.1874  0.5958 -0.0768
15293TIP3    H167370   2.763   1.671   8.463 -0.1281  0.5576  0.1302
15293TIP3    H267371   2.787   1.679   8.612 -4.5171  2.2911  0.8801
15294TIP3   OH267372   1.905   0.193  46.205 -0.3814  0.1314 -0.3951
15294TIP3    H167373   1.940   0.281  46.187 -3.5659  1.3015 -1.6689
15294TIP3    H267374   1.962   0.158  46.273 -0.1706  4.0745  1.7719
15295TIP3   OH267375   1.085   3.631  43.931 -0.1871  0.6198 -0.3727
15295TIP3    H167376   1.122   3.659  43.847  0.6678  0.4260 -0.0714
15295TIP3    H267377   1.136   3.554  43.955 -1.7983 -0.6103 -0.6750
15296TIP3   OH267378   2.872   2.166  43.843 -0.2966 -0.1140  0.0020
15296TIP3    H167379   2.886   2.249  43.797  0.3040 -0.2075  0.0033
15296TIP3    H267380   2.940   2.109  43.809 -0.2027 -0.3593  0.5949
15297TIP3   OH267381   0.390   0.375  37.090  0.8623  0.2650 -0.6807
15297TIP3    H167382   0.449   0.434  37.137  1.4773 -1.5207  0.9114
15297TIP3    H267383   0.302   0.406  37.114  1.1447  1.5307 -1.2127
15298TIP3   OH267384   0.676   3.501  46.418  0.5746 -0.3145  0.2437
15298TIP3    H167385   0.742   3.570  46.414  1.0096 -0.7791 -1.0992
15298TIP3    H267386   0.716   3.433  46.472 -0.8825  1.4546  3.8819
15299TIP3   OH267387   0.397   4.041   9.239  0.2981  0.1013 -0.1657
15299TIP3    H167388   0.408   4.086   9.156  0.2499  2.0766  0.8346
15299TIP3    H267389   0.473   4.068   9.291 -0.6233  0.4375  1.0608
15300TIP3   OH267390   0.076   0.538   2.892 -0.0666 -0.2052  0.1321
15300TIP3    H167391  -0.014   0.554   2.863  0.1699  1.6882  0.3276
15300TIP3    H267392   0.067   0.504   2.981 -0.6667 -3.0532 -0.9070
15301TIP3   OH267393   2.439   0.939  16.166  0.1975 -0.0136  0.2889
15301TIP3    H167394   2.360   0.975  16.125 -0.5656 -0.4667  1.3036
15301TIP3    H267395   2.427   0.844  16.161  0.8734 -0.0956  0.1094
15302TIP3   OH267396   3.947   2.551  42.678  0.6181 -0.6670 -0.2647
15302TIP3    H167397   3.986   2.603  42.608 -0.3924 -0.2293 -0.5274
15302TIP3    H267398   3.997   2.574  42.756  1.0744 -0.3535 -0.6445
15303TIP3   OH267399   3.971   3.184   9.717 -0.5173  0.9324 -0.0734
15303TIP3    H167400   4.045   3.123   9.711  1.0062  2.8151 -2.3431
15303TIP3    H267401   3.920   3.168   9.638 -2.0169  0.3591  0.9717
15304TIP3   OH267402   0.455   0.438  33.731 -0.0448 -0.2558  0.2670
15304TIP3    H167403   0.386   0.373  33.749 -0.1466 -0.0779  0.5233
15304TIP3    H267404   0.495   0.453  33.817 -0.6597  0.7470  0.3904
15305TIP3   OH267405   3.622   1.337   7.143 -0.1488 -0.3292  0.2508
15305TIP3    H167406   3.645   1.245   7.131 -0.4244 -0.2475 -1.0642
15305TIP3    H267407   3.695   1.374   7.192 -0.1846 -1.3146  1.0706
15306TIP3   OH267408   1.438   2.932  45.759  0.0980 -0.1909  0.0026
15306TIP3    H167409   1.373   2.990  45.720  0.6230  0.1616 -0.3578
15306TIP3    H267410   1.419   2.934  45.853  0.8126  1.4888  0.1504
15307TIP3   OH267411   3.881   0.768  13.546 -0.4055 -0.0740  0.4018
15307TIP3    H167412   3.969   0.803  13.532 -0.7989  0.2064 -1.6856
15307TIP3    H267413   3.834   0.791  13.466 -2.9478  1.4376  2.2079
15308TIP3   OH267414   0.418   3.622  32.859 -0.3759 -0.0412  0.2600
15308TIP3    H167415   0.344   3.624  32.799 -0.4428 -0.2198  0.3341
15308TIP3    H267416   0.384   3.581  32.938  0.6012 -3.1607 -0.8018
15309TIP3   OH267417   0.589   3.288  32.049 -0.5206  0.2342  0.0669
15309TIP3    H167418   0.558   3.248  31.967  1.5535  0.6944 -1.0313
15309TIP3    H267419   0.513   3.332  32.085 -2.0571 -1.8455 -0.4222
15310TIP3   OH267420   3.083   2.094   7.025 -0.3205 -0.1017  0.4237
15310TIP3    H167421   3.155   2.032   7.014 -0.9967 -0.9946  0.9674
15310TIP3    H267422   3.012   2.058   6.973 -0.5029  0.5818  0.1914
15311TIP3   OH267423   0.334   2.710  31.952 -0.8016  0.7407 -0.2090
15311TIP3    H167424   0.312   2.663  31.872  1.0323  0.5135 -0.6289
15311TIP3    H267425   0.250   2.741  31.986 -1.7685 -0.4952 -1.3727
15312TIP3   OH267426   3.429   2.627   9.338  0.1934 -0.2674  0.3884
15312TIP3    H167427   3.416   2.717   9.367 -0.4800 -0.2085 -0.0694
15312TIP3    H267428   3.496   2.633   9.269  1.1393 -0.2970  1.2860
15313TIP3   OH267429   1.539   2.262   4.417 -0.0415 -0.2522 -0.0610
15313TIP3    H167430   1.583   2.180   4.434 -0.9349 -1.0367 -1.3162
15313TIP3    H267431   1.603   2.314   4.368 -0.0353 -0.8554 -0.7057
15314TIP3   OH267432   1.177   2.716  39.349 -0.1013 -0.2695 -0.2199
15314TIP3    H167433   1.143   2.691  39.435 -0.9437 -0.6873 -0.6642
15314TIP3    H267434   1.264   2.750  39.367 -0.2382 -0.4221  0.7924
15315TIP3   OH267435   1.144   1.334  40.747 -0.0313  0.4167  0.7017
15315TIP3    H167436   1.125   1.414  40.698 -2.8681 -0.1775  0.6838
15315TIP3    H267437   1.072   1.327  40.810  0.8343 -1.4765  1.5432
15316TIP3   OH267438   1.466   0.967   8.131 -0.0629  0.3826  0.3429
15316TIP3    H167439   1.378   1.004   8.125 -1.0106 -1.4162  1.8213
15316TIP3    H267440   1.452   0.872   8.129  2.2185 -0.0623 -3.2064
15317TIP3   OH267441   0.434   2.516  33.371 -0.1360  0.3486  0.0986
15317TIP3    H167442   0.438   2.427  33.336  1.1399 -0.2497  1.6275
15317TIP3    H267443   0.447   2.505  33.465  0.6608  2.1899  0.2423
15318TIP3   OH267444   2.497   2.951  11.201  0.1450 -0.2352 -0.1942
15318TIP3    H167445   2.419   2.916  11.158  0.1889 -0.6385  0.0511
15318TIP3    H267446   2.465   2.989  11.283 -0.1656  1.8799 -1.2287
15319TIP3   OH267447   1.483   1.995  41.173 -0.0465 -0.1273  0.0432
15319TIP3    H167448   1.524   2.054  41.236  1.1167 -1.1576  0.2997
15319TIP3    H267449   1.554   1.937  41.145 -0.5761  0.1727 -2.0844
15320TIP3   OH267450   3.771   3.866  37.993 -0.5227 -0.2896 -0.8301
15320TIP3    H167451   3.713   3.819  37.934 -0.0785 -2.4613  0.3414
15320TIP3    H267452   3.832   3.799  38.024  0.6925  1.2727  0.3092
15321TIP3   OH267453   0.986   0.164  32.543  0.1574  0.0055 -0.3155
15321TIP3    H167454   1.012   0.073  32.558  1.3581  0.6051  1.7062
15321TIP3    H267455   0.920   0.182  32.610 -0.2278  0.5545 -0.8369
15322TIP3   OH267456   2.952   0.689  40.188  0.3135 -0.3781 -0.0595
15322TIP3    H167457   2.886   0.624  40.212  0.5794 -0.1467  1.3575
15322TIP3    H267458   2.939   0.760  40.250  1.0507  0.2510 -0.6049
15323TIP3   OH267459   2.760   4.020   5.704 -0.1112  0.2852  0.0968
15323TIP3    H167460   2.687   4.083   5.700  0.6246  1.1901  0.5883
15323TIP3    H267461   2.780   4.013   5.797  0.4894  0.1252 -0.0398
15324TIP3   OH267462   0.087   3.735  40.793  0.2527 -0.0775 -0.0917
15324TIP3    H167463   0.102   3.683  40.872  0.1203 -1.7175 -1.1107
15324TIP3    H267464  -0.007   3.754  40.795  0.4296  0.7773  0.6568
15325TIP3   OH267465   2.222   1.314   1.004 -0.1987 -0.4154  0.0862
15325TIP3    H167466   2.185   1.228   1.022  1.4532 -1.2432 -0.3186
15325TIP3    H267467   2.266   1.304   0.920 -0.2851  0.9422 -0.1475
15326TIP3   OH267468   0.366   2.101  21.447  0.0213  0.2531  0.6932
15326TIP3    H167469   0.390   2.038  21.515  0.0195 -0.6359 -0.1079
15326TIP3    H267470   0.314   2.167  21.493 -1.5071 -1.2569  1.2520
15327TIP3   OH267471   2.863   1.684  31.234  0.2933  0.0100  0.0788
15327TIP3    H167472   2.808   1.731  31.297 -1.8577 -2.2886  0.0817
15327TIP3    H267473   2.821   1.700  31.149 -0.6457 -2.0257  0.1163
15328TIP3   OH267474   0.548   1.912   3.977  0.3441  0.2293  0.1261
15328TIP3    H167475   0.472   1.948   4.022 -0.5538 -3.2075  1.6631
15328TIP3    H267476   0.512   1.858   3.907  1.1187 -2.7270  1.8356
15329TIP3   OH267477   1.730   1.593  47.521  0.1410  0.1178  0.3474
15329TIP3    H167478   1.691   1.681  47.517  1.8492  0.8925 -0.1577
15329TIP3    H267479   1.755   1.583  47.613  0.4385  0.4044  0.3030
15330TIP3   OH267480   1.142   2.032   2.391  0.5609  0.3944  0.4380
15330TIP3    H167481   1.135   2.006   2.483 -0.3107 -1.5757 -0.1461
15330TIP3    H267482   1.105   2.120   2.389 -3.1008 -0.9453  1.4029
15331TIP3   OH267483   3.428   3.213  36.060 -0.1389 -0.2268 -0.3038
15331TIP3    H167484   3.358   3.263  36.103  0.0521  0.1916 -0.4767
15331TIP3    H267485   3.446   3.141  36.120 -0.9014 -0.4898 -0.3858
15332TIP3   OH267486   2.923   3.252   4.600  0.0555  0.2185 -0.3535
15332TIP3    H167487   2.946   3.160   4.611  1.9549  0.7440  0.5360
15332TIP3    H267488   2.897   3.260   4.508  1.8224 -0.8493 -0.9891
15333TIP3   OH267489   0.648   2.091   7.450 -0.1609  0.2957  0.6247
15333TIP3    H167490   0.628   1.998   7.456 -2.4198  0.6771 -0.0784
15333TIP3    H267491   0.742   2.094   7.430 -0.2084 -1.8575 -0.2286
15334TIP3   OH267492   2.364   2.305  43.694 -0.0015  0.3995  0.4811
15334TIP3    H167493   2.289   2.300  43.752  0.7994  0.7716  1.5781
15334TIP3    H267494   2.357   2.227  43.639 -2.8104  1.9119 -1.5171
15335TIP3   OH267495   0.188   0.273  33.724  0.8937  0.3552 -0.1331
15335TIP3    H167496   0.150   0.351  33.684  2.7771  0.9048 -0.9671
15335TIP3    H267497   0.259   0.248  33.665  1.1860 -1.2097  0.8208
15336TIP3   OH267498   1.152   3.611   1.960 -0.2676  0.0157  0.0532
15336TIP3    H167499   1.058   3.630   1.952 -0.0119  1.3760  0.0852
15336TIP3    H267500   1.182   3.605   1.869  0.0097  1.7307  0.0111
15337TIP3   OH267501   0.647   1.369  13.904  0.0134  0.2875  0.2895
15337TIP3    H167502   0.725   1.372  13.849 -0.1520 -2.0950 -0.1727
15337TIP3    H267503   0.575   1.391  13.846 -0.0984 -1.6949 -0.3898
15338TIP3   OH267504   0.699   3.766  39.547 -0.0944  0.4373  0.4354
15338TIP3    H167505   0.660   3.683  39.574 -0.2831  0.7692  1.2287
15338TIP3    H267506   0.697   3.820  39.627 -0.3036  1.3259 -0.1516
15339TIP3   OH267507   0.357   3.658  35.587  0.0107 -0.1851 -0.6567
15339TIP3    H167508   0.425   3.626  35.528 -1.2492  0.3959 -2.5274
15339TIP3    H267509   0.403   3.717  35.647  1.4680 -1.4237 -0.4971
15340TIP3   OH267510   2.448   2.254  15.083  0.5155 -0.8234  0.4228
15340TIP3    H167511   2.395   2.313  15.030  0.0331 -1.9897 -0.4259
15340TIP3    H267512   2.416   2.167  15.062  0.8609 -1.3787  2.0336
15341TIP3   OH267513   3.203   3.971   8.830 -0.7073  0.3811 -0.1164
15341TIP3    H167514   3.256   3.897   8.803 -1.1327  0.0698 -0.1173
15341TIP3    H267515   3.253   4.048   8.804 -0.1232  0.0981  0.1518
15342TIP3   OH267516   3.029   1.592  46.669  0.1339 -0.0833  0.8058
15342TIP3    H167517   3.017   1.685  46.687  1.1947  0.5462 -1.3434
15342TIP3    H267518   3.124   1.578  46.673  0.0984 -0.7457 -0.1124
15343TIP3   OH267519   1.228   0.916  39.978  0.6865  0.1475 -0.3459
15343TIP3    H167520   1.193   0.977  40.042  1.5472 -1.9800  2.3336
15343TIP3    H267521   1.263   0.972  39.908 -1.1462  2.5365  0.5098
15344TIP3   OH267522   1.666   3.891   5.935 -0.0154 -0.6390 -0.5838
15344TIP3    H167523   1.655   3.938   5.852  1.2450  0.9045  0.0687
15344TIP3    H267524   1.756   3.910   5.961 -0.7540 -0.0386  1.7413
15345TIP3   OH267525   0.379   1.739  37.660  0.8104  0.1007 -0.3193
15345TIP3    H167526   0.317   1.802  37.696 -0.5705 -1.7865  0.7749
15345TIP3    H267527   0.337   1.654  37.673  2.8394 -1.1087 -1.2208
15346TIP3   OH267528   3.814   0.694   8.738  0.1529  1.2912  0.4148
15346TIP3    H167529   3.853   0.775   8.705  2.2625  1.2672  2.5435
15346TIP3    H267530   3.884   0.653   8.789 -1.3902 -1.0249  0.8212
15347TIP3   OH267531   1.881   3.736  34.446  0.4950  0.4555 -0.0127
15347TIP3    H167532   1.912   3.786  34.521 -0.5798 -1.0022  1.4868
15347TIP3    H267533   1.947   3.749  34.378  1.8946  1.1881  1.4487
15348TIP3   OH267534   1.201   1.936  34.481  0.5577 -0.3210  0.2666
15348TIP3    H167535   1.192   2.024  34.444  1.1280  0.1392  1.1747
15348TIP3    H267536   1.268   1.946  34.549 -0.0038 -1.2764  0.9709
15349TIP3   OH267537   0.364   0.987   1.355 -0.1749  0.8293  0.2420
15349TIP3    H167538   0.342   0.924   1.424 -1.8110 -0.5570 -1.4553
15349TIP3    H267539   0.443   0.950   1.315  0.3018  1.2052  0.8099
15350TIP3   OH267540   3.744   4.069  47.453  0.1009  0.3884  0.0489
15350TIP3    H167541   3.747   4.088  47.359  0.2110 -1.4526 -0.3582
15350TIP3    H267542   3.662   4.108  47.483 -0.9366 -0.7307 -1.2457
15351TIP3   OH267543   0.645   3.156  31.567  0.4436  0.2274 -0.5744
15351TIP3    H167544   0.724   3.209  31.563  0.4187  0.2947 -0.2465
15351TIP3    H267545   0.574   3.215  31.543  0.6387 -0.1865 -2.2493
15352TIP3   OH267546   3.304   3.827  32.938 -0.0998 -0.5316 -0.0055
15352TIP3    H167547   3.228   3.811  32.994 -0.7731 -0.7885 -0.9624
15352TIP3    H267548   3.270   3.819  32.849  0.8347  0.3849 -0.4670
15353TIP3   OH267549   1.682   3.522   4.270 -0.2642  0.3171  0.3517
15353TIP3    H167550   1.619   3.549   4.336 -0.4914 -0.7439  0.5882
15353TIP3    H267551   1.765   3.515   4.316 -0.5425 -1.0137  0.6776
15354TIP3   OH267552   1.237   1.507   2.798 -0.0049  0.3718  0.0457
15354TIP3    H167553   1.312   1.467   2.842 -0.4040 -0.0425  0.3626
15354TIP3    H267554   1.164   1.447   2.815 -0.7742  1.5357  1.1067
15355TIP3   OH267555   2.209   1.305  46.445  0.2388 -0.1655 -0.4749
15355TIP3    H167556   2.187   1.224  46.399 -0.2512 -0.7505  0.7514
15355TIP3    H267557   2.189   1.287  46.537  3.0313  0.2828  0.3215
15356TIP3   OH267558   1.184   0.911  37.411  0.3450 -0.2411 -0.0447
15356TIP3    H167559   1.259   0.924  37.469 -1.3482 -0.4386  2.3888
15356TIP3    H267560   1.180   0.816  37.398  0.0292 -0.3226  0.5863
15357TIP3   OH267561   3.948   0.146   7.578 -0.2476 -0.3076  0.0703
15357TIP3    H167562   3.902   0.147   7.663  0.1451 -0.8236  0.2973
15357TIP3    H267563   4.035   0.111   7.599 -0.2869 -0.8378 -0.6128
15358TIP3   OH267564   2.901   3.243   7.861  0.2145 -0.9784  0.5349
15358TIP3    H167565   2.898   3.299   7.938 -1.8511  1.0678 -0.9119
15358TIP3    H267566   2.964   3.286   7.803 -0.2637 -0.9948  0.0012
15359TIP3   OH267567   3.190   0.495  11.867 -1.1405 -0.6080 -0.5562
15359TIP3    H167568   3.127   0.476  11.937 -0.6988  2.0103  0.6858
15359TIP3    H267569   3.267   0.443  11.889 -0.6991  0.7668  1.4957
15360TIP3   OH267570   1.661   2.646  32.731 -0.4498 -0.2869 -0.5172
15360TIP3    H167571   1.688   2.672  32.643 -1.3959 -1.0278 -1.0463
15360TIP3    H267572   1.583   2.699  32.749 -0.3236 -0.2156 -0.1548
15361TIP3   OH267573   2.587   3.524  46.435  1.0941 -0.1163  0.1189
15361TIP3    H167574   2.514   3.466  46.414  1.4371 -0.9441  1.1658
15361TIP3    H267575   2.548   3.595  46.486  0.8705 -0.0539 -0.1383
15362TIP3   OH267576   0.640   0.076  12.120 -0.2956 -0.1858  0.3502
15362TIP3    H167577   0.602   0.109  12.201 -0.3185 -1.2482  0.7834
15362TIP3    H267578   0.627  -0.018  12.123  3.0706 -0.7665  0.9151
15363TIP3   OH267579   4.030   3.517  27.921  0.0343  0.1101 -0.3055
15363TIP3    H167580   4.037   3.544  28.012 -3.3788  2.3438 -0.5128
15363TIP3    H267581   3.951   3.464  27.918 -0.2828  0.6106 -2.0365
15364TIP3   OH267582   1.126   3.847   0.379  0.0607 -0.1709 -0.0408
15364TIP3    H167583   1.121   3.752   0.365  0.1394 -0.1428 -0.2752
15364TIP3    H267584   1.142   3.857   0.473 -0.6583 -0.3667  0.1058
15365TIP3   OH267585   2.238   2.966  42.379 -0.2523 -0.1453 -0.3525
15365TIP3    H167586   2.328   2.940  42.401 -0.5928 -1.8200 -0.8015
15365TIP3    H267587   2.207   3.012  42.457  1.1237  0.8095 -0.3457
15366TIP3   OH267588   1.818   2.803   3.559 -0.1886 -0.0865 -0.0749
15366TIP3    H167589   1.850   2.866   3.624 -0.8577 -0.4725  0.6436
15366TIP3    H267590   1.745   2.848   3.517 -0.9734 -0.5411  0.7685
15367TIP3   OH267591   1.430   1.637  14.421  0.7999  0.0565  1.0114
15367TIP3    H167592   1.452   1.557  14.467 -1.0983 -0.2405  1.5184
15367TIP3    H267593   1.337   1.628  14.401 -0.3560  3.3471  3.7889
15368TIP3   OH267594   1.623   3.750  29.360 -0.3089  0.4082 -0.3379
15368TIP3    H167595   1.593   3.751  29.451  0.3191 -1.2035 -0.0748
15368TIP3    H267596   1.558   3.802  29.313 -1.2966  0.3093  0.8483
15369TIP3   OH267597   2.641   2.923  37.733  0.2279  0.5716  0.0381
15369TIP3    H167598   2.560   2.879  37.757  0.4865 -0.0857 -0.2717
15369TIP3    H267599   2.698   2.911  37.809 -0.7776  3.2451  1.3731
15370TIP3   OH267600   0.674   1.650  36.948 -0.2257 -0.3226  0.1817
15370TIP3    H167601   0.691   1.699  37.028  1.9497 -0.3983 -0.1699
15370TIP3    H267602   0.619   1.708  36.895 -0.1342  0.5110  0.9735
15371TIP3   OH267603   3.305   0.370  12.729  0.0176  0.1996  0.8878
15371TIP3    H167604   3.251   0.448  12.714 -1.1632 -0.9868 -1.5084
15371TIP3    H267605   3.351   0.356  12.647 -1.0191 -2.4752  0.6429
15372TIP3   OH267606   1.310   1.619  31.000 -0.0722  0.2981  0.2569
15372TIP3    H167607   1.358   1.558  30.944  1.2886 -0.4839  2.1947
15372TIP3    H267608   1.240   1.566  31.038 -0.2550  0.5260  0.2401
15373TIP3   OH267609   0.914   2.721   9.071  0.0282 -0.5272  0.1892
15373TIP3    H167610   0.959   2.676   9.000 -0.4863 -0.4356 -0.1996
15373TIP3    H267611   0.854   2.655   9.108 -0.0671 -0.4287  0.2123
15374TIP3   OH267612   2.068   0.856  34.001 -0.0891 -0.5923  0.3785
15374TIP3    H167613   2.015   0.921  33.954  1.4699  0.4945  0.0218
15374TIP3    H267614   2.058   0.776  33.950 -1.1964 -0.3531  0.1970
15375TIP3   OH267615   0.128   2.088   3.068  0.0964  0.2997 -0.2892
15375TIP3    H167616   0.058   2.069   3.130  0.6572 -0.1164  0.2264
15375TIP3    H267617   0.138   2.184   3.072  0.6107  0.2138  0.8089
15376TIP3   OH267618   1.652   1.058  16.539 -0.4538 -0.2184  0.4764
15376TIP3    H167619   1.668   0.968  16.567  0.7067 -0.7323 -1.6101
15376TIP3    H267620   1.737   1.102  16.550 -0.3079 -0.1046 -0.8497
15377TIP3   OH267621   2.358   1.414  47.304  0.6857 -0.2416 -0.1772
15377TIP3    H167622   2.364   1.505  47.333 -0.2496 -0.1475 -0.2716
15377TIP3    H267623   2.287   1.413  47.240  0.1733 -1.1886  0.3906
15378TIP3   OH267624   2.932   0.687  12.227 -0.5929  0.8913 -0.1147
15378TIP3    H167625   2.869   0.668  12.157 -0.7111 -0.4862  0.3399
15378TIP3    H267626   2.949   0.781  12.219 -0.0577  0.6566 -2.4667
15379TIP3   OH267627   2.572   2.572  42.356  0.2595 -0.5134 -0.3475
15379TIP3    H167628   2.580   2.625  42.277 -0.8053  1.0596  0.5354
15379TIP3    H267629   2.493   2.519  42.341  0.2830 -0.5079 -0.4958
15380TIP3   OH267630   1.682   3.596  28.418 -0.3896  0.2111  0.1903
15380TIP3    H167631   1.765   3.644  28.420 -0.2572  0.1365 -1.5884
15380TIP3    H267632   1.707   3.505  28.403 -0.7963  0.2460 -0.7459
15381TIP3   OH267633   2.434   0.231  33.494 -0.4403 -0.0146 -0.0720
15381TIP3    H167634   2.470   0.196  33.575  1.4850 -0.4240 -1.0336
15381TIP3    H267635   2.427   0.325  33.510  0.6003  0.0068  0.3569
15382TIP3   OH267636   2.749   2.885   5.686  0.0258 -0.2393  0.0819
15382TIP3    H167637   2.837   2.853   5.665  0.8550  0.7358  1.8892
15382TIP3    H267638   2.704   2.808   5.721  1.2702 -0.0469  2.2620
15383TIP3   OH267639   2.060   0.095  31.460 -0.0670 -0.2928  0.3123
15383TIP3    H167640   2.113   0.026  31.501 -0.8475  0.2734  2.4123
15383TIP3    H267641   2.112   0.174  31.468 -0.5829 -0.0107  1.0952
15384TIP3   OH267642   3.522   1.676  20.173  0.1481 -0.0609  0.1251
15384TIP3    H167643   3.558   1.594  20.140  0.7660  0.7418 -1.2933
15384TIP3    H267644   3.483   1.653  20.258 -0.3802 -1.9613 -0.5739
15385TIP3   OH267645   0.799   2.121  15.585  0.1358 -0.5640  0.4737
15385TIP3    H167646   0.887   2.154  15.605 -0.4756  0.0610  2.4130
15385TIP3    H267647   0.792   2.039  15.635  0.1694 -1.5000 -0.9971
15386TIP3   OH267648   3.375   0.412   8.443 -0.6620  0.1034 -0.5394
15386TIP3    H167649   3.414   0.332   8.478 -0.0442  0.8822  0.5871
15386TIP3    H267650   3.336   0.456   8.518 -3.2129 -0.3139 -1.5112
15387TIP3   OH267651   2.704   1.613  12.255  0.2252 -0.1979 -0.1254
15387TIP3    H167652   2.789   1.578  12.284  0.3770 -2.1324 -2.5816
15387TIP3    H267653   2.724   1.702  12.225  1.4911 -0.7413 -0.9901
15388TIP3   OH267654   2.483   3.492  38.751 -0.1564  0.3713  0.1764
15388TIP3    H167655   2.503   3.414  38.803  0.2803  0.5988  0.3491
15388TIP3    H267656   2.397   3.519  38.782  0.0885  0.4856  0.7553
15389TIP3   OH267657   1.312   0.856   4.744 -0.1053 -0.3762 -0.1491
15389TIP3    H167658   1.397   0.825   4.774 -0.7019 -1.0276  0.9464
15389TIP3    H267659   1.255   0.846   4.821 -0.7965  1.5958 -0.3521
15390TIP3   OH267660   1.379   2.322   0.533  0.0915 -0.6238 -0.4182
15390TIP3    H167661   1.467   2.356   0.544  0.1596  0.1194 -2.5904
15390TIP3    H267662   1.356   2.285   0.618  2.7373 -1.4874  0.0085
15391TIP3   OH267663   2.776   0.404   0.069 -0.7793 -0.2689  0.4153
15391TIP3    H167664   2.767   0.410  -0.026  0.2217 -2.1259  0.1700
15391TIP3    H267665   2.852   0.458   0.089  0.3483 -1.6086 -0.1371
15392TIP3   OH267666   3.202   3.235   7.104 -0.2745 -0.2014  0.0273
15392TIP3    H167667   3.236   3.160   7.153 -1.4548 -1.6390 -1.2725
15392TIP3    H267668   3.238   3.311   7.150  2.4711 -1.5414  0.3292
15393TIP3   OH267669   3.449   3.390   0.339 -0.4850  0.4792  0.4622
15393TIP3    H167670   3.430   3.366   0.430  1.5463 -2.5660  0.2202
15393TIP3    H267671   3.529   3.443   0.344 -0.6115  0.6772  0.4374
15394TIP3   OH267672   3.407   2.144   3.285  0.4355 -0.3912 -0.3057
15394TIP3    H167673   3.319   2.129   3.321  0.0250 -0.8751 -1.4668
15394TIP3    H267674   3.392   2.182   3.199  1.4313  2.1148  0.5517
15395TIP3   OH267675   0.158   3.883   5.967 -0.0946 -0.2857  0.7076
15395TIP3    H167676   0.226   3.817   5.968 -0.7566 -1.0150  2.7563
15395TIP3    H267677   0.122   3.880   5.879 -1.4354 -4.1108  1.2255
15396TIP3   OH267678   2.000   1.177  11.359  0.3588  0.1463 -0.0452
15396TIP3    H167679   1.965   1.138  11.279 -0.1676 -0.5210  0.4911
15396TIP3    H267680   1.930   1.166  11.424  1.0875 -0.0767  0.7269
15397TIP3   OH267681   0.016   1.637  14.183  0.2918 -0.2800  0.2262
15397TIP3    H167682   0.027   1.552  14.141  0.9451 -0.5413  0.9193
15397TIP3    H267683  -0.026   1.619  14.266 -2.3966  0.3861 -0.8771
15398TIP3   OH267684   3.979   1.840  18.605 -0.6409 -0.1316 -0.2626
15398TIP3    H167685   3.990   1.914  18.546 -1.4446  0.4058  0.2367
15398TIP3    H267686   3.917   1.782  18.560 -1.0040  0.1244 -0.1024
15399TIP3   OH267687   0.222   1.244  15.350 -0.0009 -0.5780 -1.0868
15399TIP3    H167688   0.305   1.284  15.324  1.0588 -1.4572  0.7525
15399TIP3    H267689   0.223   1.157  15.310  0.8177 -1.2523  0.3061
15400TIP3   OH267690   3.779   3.378  38.760 -0.3942 -0.2493  0.0576
15400TIP3    H167691   3.824   3.318  38.701 -0.5110 -0.0248 -0.2669
15400TIP3    H267692   3.819   3.463  38.742  0.3680 -0.3711  1.1256
15401TIP3   OH267693   2.502   3.413  28.706 -0.7500 -0.1713  0.8701
15401TIP3    H167694   2.506   3.383  28.615 -1.5907  2.3951 -0.0972
15401TIP3    H267695   2.419   3.460  28.713 -1.0395 -0.8921  3.1954
15402TIP3   OH267696   3.833   0.995  42.369 -0.1005 -0.2656 -0.4907
15402TIP3    H167697   3.764   0.928  42.370 -0.9890  0.6298 -0.2767
15402TIP3    H267698   3.833   1.028  42.280 -0.7661  0.5434 -0.2006
15403TIP3   OH267699   3.601   1.662   6.368  0.1727 -0.4664 -0.5242
15403TIP3    H167700   3.524   1.624   6.410  0.4044 -0.5820 -0.2020
15403TIP3    H267701   3.636   1.591   6.313 -1.4766  0.3523 -2.8235
15404TIP3   OH267702   0.614   1.422  45.764  0.2409 -0.7201 -0.1016
15404TIP3    H167703   0.674   1.347  45.759  1.2045  0.0225 -0.0334
15404TIP3    H267704   0.600   1.435  45.858  1.7435  0.4407 -0.0005
15405TIP3   OH267705   2.612   0.136   6.001  0.3595  0.1005  0.0212
15405TIP3    H167706   2.611   0.184   5.919  1.5618  0.1312  0.0136
15405TIP3    H267707   2.696   0.091   6.002  1.0267  1.2531  1.8753
15406TIP3   OH267708   0.015   1.413  39.861 -0.3789  0.2186 -0.1596
15406TIP3    H167709   0.018   1.456  39.776 -0.5311 -2.1384 -1.4295
15406TIP3    H267710  -0.069   1.439  39.899 -0.6181  0.7329 -1.0227
15407TIP3   OH267711   0.133   3.853  46.598  0.2341  0.1762 -0.4028
15407TIP3    H167712   0.054   3.908  46.597  1.1260  1.5184  0.1563
15407TIP3    H267713   0.112   3.780  46.539 -1.8889 -0.1831  0.6875
15408TIP3   OH267714   2.538   2.033   0.410 -0.2325  0.8028  0.3701
15408TIP3    H167715   2.588   2.092   0.466 -0.0449  1.1932 -0.2022
15408TIP3    H267716   2.539   2.075   0.324 -1.0043  0.4945  0.2071
15409TIP3   OH267717   3.836   0.812   7.757  0.0746 -0.2477 -0.1094
15409TIP3    H167718   3.845   0.748   7.827  0.5276 -1.5236 -1.2975
15409TIP3    H267719   3.914   0.867   7.765  0.8859 -1.3024 -0.4862
15410TIP3   OH267720   1.578   3.053   1.341 -0.3094  0.6678 -0.0060
15410TIP3    H167721   1.604   2.966   1.369 -2.0930 -0.1642 -0.8085
15410TIP3    H267722   1.646   3.079   1.278  0.0203 -0.3126 -0.0684
15411TIP3   OH267723   1.328   0.182  32.946  0.8451 -0.1334 -0.4969
15411TIP3    H167724   1.343   0.093  32.978  0.1427  0.3544  1.3094
15411TIP3    H267725   1.236   0.182  32.918  0.3119  0.4633  1.1677
15412TIP3   OH267726   0.803   3.749  14.496 -0.4989 -0.1961 -0.3435
15412TIP3    H167727   0.865   3.745  14.423  0.0722 -0.3736  0.1400
15412TIP3    H267728   0.842   3.692  14.563 -2.3167 -2.2214 -0.8764
15413TIP3   OH267729   3.779   3.216   0.312  0.0925  0.1672  0.4240
15413TIP3    H167730   3.742   3.182   0.394  0.3324 -0.3418  0.3291
15413TIP3    H267731   3.744   3.157   0.245  1.2012 -0.4390  0.3556
15414TIP3   OH267732   3.282   2.762  45.195  0.2040 -0.9393 -0.6203
15414TIP3    H167733   3.284   2.777  45.290 -0.5719 -0.3808 -0.6800
15414TIP3    H267734   3.373   2.745  45.171  0.7248  0.8783 -0.0875
15415TIP3   OH267735   2.073   1.506  46.834 -0.1413 -0.2770  0.2109
15415TIP3    H167736   2.047   1.593  46.864 -2.4780 -0.5538 -0.7733
15415TIP3    H267737   2.128   1.471  46.904  0.0724  1.6284  1.0355
15416TIP3   OH267738   2.851   3.511   0.555  0.1150 -0.5431  0.3211
15416TIP3    H167739   2.909   3.575   0.512 -0.7249  0.8854  1.2455
15416TIP3    H267740   2.839   3.545   0.643  0.4902 -2.5676  1.2143
15417TIP3   OH267741   3.566   3.387   3.399 -0.2653 -0.6548  0.0484
15417TIP3    H167742   3.621   3.337   3.460  1.2539 -0.0843 -0.8035
15417TIP3    H267743   3.626   3.449   3.357 -2.1083  2.0207  1.1426
15418TIP3   OH267744   0.926   2.591  13.349 -0.3494  0.2672  0.0104
15418TIP3    H167745   0.970   2.512  13.379 -1.6708 -0.6441 -0.3707
15418TIP3    H267746   0.997   2.647  13.317  0.6577 -0.5155  0.7950
15419TIP3   OH267747   0.207   2.558  46.007  0.0972 -0.2121 -0.2520
15419TIP3    H167748   0.283   2.541  46.063  0.4673  0.2621 -0.6081
15419TIP3    H267749   0.228   2.517  45.924  0.1904  0.3520 -0.5154
15420TIP3   OH267750   2.124   0.904  39.970 -0.5334 -0.1657  0.4227
15420TIP3    H167751   2.063   0.904  39.897 -0.0818  0.2372  0.0372
15420TIP3    H267752   2.191   0.839  39.945  0.0615  0.5613  0.0955
15421TIP3   OH267753   1.343   2.914   5.680 -0.1217 -0.2336  0.1971
15421TIP3    H167754   1.366   2.976   5.611 -0.5614 -0.0877  0.1799
15421TIP3    H267755   1.264   2.951   5.721 -0.0182 -0.4544  0.6022
15422TIP3   OH267756   3.676   2.922  36.771  0.3175 -0.1030 -0.1027
15422TIP3    H167757   3.615   2.849  36.783  0.5599 -0.0694  1.5590
15422TIP3    H267758   3.636   2.995  36.818  1.6080 -0.0886  1.0263
15423TIP3   OH267759   2.557   2.196  38.661 -0.0194 -0.6451 -0.1970
15423TIP3    H167760   2.550   2.291  38.668 -0.4792 -0.5130 -1.9480
15423TIP3    H267761   2.546   2.164  38.750 -0.0379  0.9316  0.3918
15424TIP3   OH267762   0.955   3.276   9.503 -0.3148 -0.1725  0.5638
15424TIP3    H167763   0.987   3.350   9.556 -2.3895 -0.2347  2.0144
15424TIP3    H267764   0.893   3.231   9.560 -0.4229 -2.0162 -0.9310
15425TIP3   OH267765   3.535   1.972   6.560 -0.4785  0.4882  0.1201
15425TIP3    H167766   3.604   1.999   6.621  0.1757 -0.0524 -0.3665
15425TIP3    H267767   3.519   1.881   6.581 -2.7412  1.1924  1.8044
15426TIP3   OH267768   2.692   1.301  45.529  1.1484  0.2293  0.7175
15426TIP3    H167769   2.608   1.292  45.574  0.9751  1.4940  0.6686
15426TIP3    H267770   2.726   1.211  45.524  0.2680 -0.1726  1.6224
15427TIP3   OH267771   3.481   0.381   0.860 -0.1314 -0.2801  0.2502
15427TIP3    H167772   3.438   0.388   0.945 -2.0163  0.8589 -0.7369
15427TIP3    H267773   3.434   0.443   0.805  0.1481 -1.9645 -1.9983
15428TIP3   OH267774   1.610   2.547  12.709  0.2380 -0.0092  0.0216
15428TIP3    H167775   1.570   2.600  12.778  0.3025  0.4323 -0.2732
15428TIP3    H267776   1.666   2.485  12.756 -2.1087 -1.8453  0.5616
15429TIP3   OH267777   0.486   2.651   1.119 -0.6389 -0.0989  0.3012
15429TIP3    H167778   0.435   2.705   1.179 -0.4961 -1.6527  1.8912
15429TIP3    H267779   0.420   2.603   1.068 -0.7878  1.9625 -1.6234
15430TIP3   OH267780   0.233   3.772  43.629  0.0888 -0.1234  0.0382
15430TIP3    H167781   0.324   3.774  43.599 -0.1245 -0.0065 -0.6035
15430TIP3    H267782   0.206   3.864  43.629 -0.2621 -0.2263 -0.4797
15431TIP3   OH267783   3.555   0.249  36.409  0.0738  0.3871  0.5857
15431TIP3    H167784   3.602   0.329  36.432 -0.1876  0.5838  0.4385
15431TIP3    H267785   3.623   0.181  36.408  0.3800  0.6907  0.2560
15432TIP3   OH267786   0.972   3.852  44.045  0.5410  0.0320 -0.0554
15432TIP3    H167787   1.019   3.772  44.021 -0.3499 -0.5632  0.1372
15432TIP3    H267788   0.924   3.828  44.124  1.7812  1.3388  1.1474
15433TIP3   OH267789   1.402   0.471   8.300 -0.5298 -0.1362  0.0043
15433TIP3    H167790   1.333   0.431   8.354 -0.0993 -1.1214 -0.1600
15433TIP3    H267791   1.451   0.396   8.264  0.3375  0.5446 -0.2555
15434TIP3   OH267792   2.317   0.477   3.936 -0.4186 -0.4551  0.6053
15434TIP3    H167793   2.347   0.513   3.852  0.3464 -0.8812  0.6862
15434TIP3    H267794   2.398   0.460   3.985 -0.7784 -1.6985  0.8062
15435TIP3   OH267795   2.016   2.790  12.905  0.0201 -0.5288 -0.2131
15435TIP3    H167796   1.929   2.822  12.927  0.6201  0.2576  1.1395
15435TIP3    H267797   2.008   2.695  12.905 -0.7903 -0.4673  0.1110
15436TIP3   OH267798   2.662   1.124  31.397 -0.4979 -0.3876  0.0716
15436TIP3    H167799   2.575   1.123  31.358  0.1024  0.0498 -1.3496
15436TIP3    H267800   2.698   1.038  31.378 -0.4403 -0.4094  0.2698
15437TIP3   OH267801   2.530   3.622  27.732 -0.1737 -0.4422  0.2366
15437TIP3    H167802   2.619   3.598  27.758 -0.0416 -0.3471 -0.1246
15437TIP3    H267803   2.532   3.622  27.636 -1.0881 -2.3609  0.1746
15438TIP3   OH267804   3.309   3.856  36.873 -0.6502 -0.4263 -0.0315
15438TIP3    H167805   3.250   3.922  36.838 -0.1698  0.0670  0.0666
15438TIP3    H267806   3.391   3.903  36.888  0.3150 -1.4516 -1.7533
15439TIP3   OH267807   0.655   1.131  36.015 -1.0289 -0.0281  0.3977
15439TIP3    H167808   0.739   1.095  35.987 -0.7727  0.2060  0.8379
15439TIP3    H267809   0.670   1.226  36.019 -1.8018  0.1784 -1.1003
15440TIP3   OH267810   0.040   0.919   6.583 -0.3383  0.7024 -0.0072
15440TIP3    H167811   0.066   0.904   6.492 -0.1440  0.3664  0.1003
15440TIP3    H267812   0.101   0.986   6.615  1.5677 -1.2743  0.7498
15441TIP3   OH267813   1.881   0.144  44.514 -0.2741  0.2196  0.0181
15441TIP3    H167814   1.855   0.105  44.430  1.6294 -1.0585 -0.0353
15441TIP3    H267815   1.846   0.084  44.580 -1.2051  0.8740  0.1402
15442TIP3   OH267816   0.832   1.362   3.797 -0.4860 -0.0848  0.7713
15442TIP3    H167817   0.777   1.436   3.823 -0.2718  0.6284 -0.7313
15442TIP3    H267818   0.787   1.323   3.723  1.1446  0.7287 -0.7298
15443TIP3   OH267819   2.836   1.152  45.746 -0.0254 -0.4455 -0.9487
15443TIP3    H167820   2.881   1.067  45.740 -0.1633 -0.5052 -1.1615
15443TIP3    H267821   2.746   1.129  45.771 -0.3435 -0.4473 -2.0328
15444TIP3   OH267822   2.822   0.407  45.603  0.0918  0.5362  0.2565
15444TIP3    H167823   2.894   0.427  45.543 -1.3677  2.0821 -1.0674
15444TIP3    H267824   2.866   0.382  45.684  2.1246  0.6901 -0.7159
15445TIP3   OH267825   2.223   1.272  45.387  0.2121  0.2831 -0.2709
15445TIP3    H167826   2.205   1.247  45.478  1.5559 -0.4356 -0.1689
15445TIP3    H267827   2.290   1.340  45.394 -1.4042  1.9709 -0.6662
15446TIP3   OH267828   1.118   2.149  41.215  0.1894  0.4175  0.2604
15446TIP3    H167829   1.130   2.198  41.133  1.6541 -0.8641 -0.3436
15446TIP3    H267830   1.199   2.164  41.264  0.7989 -1.5484 -0.0550
15447TIP3   OH267831   3.743   0.691   5.127  0.7865 -0.1527 -0.3382
15447TIP3    H167832   3.769   0.650   5.210  0.4829 -1.8531 -1.0306
15447TIP3    H267833   3.814   0.751   5.107  3.3069 -3.1023 -1.1077
15448TIP3   OH267834   0.859   3.496  10.188  0.3285 -0.3250 -0.6258
15448TIP3    H167835   0.835   3.562  10.253 -0.3650 -0.4390 -0.7610
15448TIP3    H267836   0.929   3.446  10.231 -1.6264 -1.8378  1.0000
15449TIP3   OH267837   2.291   1.191   9.707  0.5474  0.8702 -0.6612
15449TIP3    H167838   2.297   1.270   9.653  1.5661  0.1434 -1.6507
15449TIP3    H267839   2.265   1.122   9.647 -1.1843  0.5755  0.3550
15450TIP3   OH267840   0.573   0.050   9.405 -0.2272 -0.5113  0.5523
15450TIP3    H167841   0.546   0.061   9.496 -0.5058  1.1067  0.2996
15450TIP3    H267842   0.665   0.021   9.410  0.0900  0.5935  1.3414
15451TIP3   OH267843   0.456   1.923  47.329 -0.6597 -0.0861  0.3198
15451TIP3    H167844   0.547   1.903  47.354 -0.7787 -2.6162 -1.0325
15451TIP3    H267845   0.432   1.996  47.387  1.4639 -0.8351  2.3268
15452TIP3   OH267846   3.064   3.340  41.376 -0.1202 -0.0128  0.0754
15452TIP3    H167847   3.094   3.349  41.466  0.4881  0.7558 -0.1936
15452TIP3    H267848   2.987   3.397  41.370  0.2343  0.4534 -0.0658
15453TIP3   OH267849   3.768   1.658   3.008 -0.0232  0.1414  0.1416
15453TIP3    H167850   3.706   1.606   3.060  0.0443  2.3345  2.6158
15453TIP3    H267851   3.808   1.595   2.948 -1.5477 -2.1706  1.4166
15454TIP3   OH267852   1.505   3.964   9.685 -0.4937 -0.7628  0.0560
15454TIP3    H167853   1.535   4.048   9.719  2.2993 -1.1585 -1.1917
15454TIP3    H267854   1.513   3.903   9.758 -1.0758 -0.2892  0.5308
15455TIP3   OH267855   3.104   1.338   6.108 -0.4424  0.4725  0.2815
15455TIP3    H167856   3.035   1.370   6.166  0.1539  2.5028 -0.0674
15455TIP3    H267857   3.150   1.272   6.160 -1.7210  0.1513  1.0449
15456TIP3   OH267858   0.551   1.460   9.672 -0.4711 -0.0650 -0.4178
15456TIP3    H167859   0.595   1.470   9.588  1.3166 -1.0831  0.3401
15456TIP3    H267860   0.555   1.366   9.689  1.2311  0.3290  1.8011
15457TIP3   OH267861   1.452   0.602   3.528  0.6347 -0.3189 -0.6434
15457TIP3    H167862   1.472   0.513   3.558 -0.7106 -0.0799  1.1317
15457TIP3    H267863   1.369   0.592   3.480 -0.1742  0.1418  0.6334
15458TIP3   OH267864   2.086   0.379   6.517 -0.7571  0.4897 -0.5308
15458TIP3    H167865   2.168   0.340   6.548 -1.1467 -1.4935 -1.8085
15458TIP3    H267866   2.018   0.324   6.555 -1.5046  1.7961  0.0819
15459TIP3   OH267867   2.201   0.225  34.665  0.1154 -0.1051 -0.0322
15459TIP3    H167868   2.136   0.155  34.655 -1.2544  1.3455 -2.3523
15459TIP3    H267869   2.201   0.245  34.758  0.5730 -3.1550  0.7200
15460TIP3   OH267870   3.410   1.998   8.141 -0.3543  0.7780 -0.3258
15460TIP3    H167871   3.486   1.985   8.198 -0.0805  0.5903 -0.7312
15460TIP3    H267872   3.349   1.929   8.167  0.7619 -0.8890 -1.9152
15461TIP3   OH267873   2.504   0.199  15.154  0.0342  0.0285 -0.4794
15461TIP3    H167874   2.549   0.267  15.103 -0.3092  1.6850  1.2862
15461TIP3    H267875   2.574   0.159  15.206 -0.0161  0.1839 -0.2931
15462TIP3   OH267876   3.430   2.764   3.720 -0.1548  0.2534 -0.0120
15462TIP3    H167877   3.524   2.747   3.717 -0.4367 -1.2619 -1.7467
15462TIP3    H267878   3.423   2.859   3.704  1.0368  0.2129 -0.9635
15463TIP3   OH267879   0.610   0.848  46.584 -0.0564  0.1268 -0.4483
15463TIP3    H167880   0.656   0.784  46.530 -0.2671 -0.4357  0.0306
15463TIP3    H267881   0.678   0.910  46.610  0.4138 -0.6200  0.1456
15464TIP3   OH267882   1.335   1.304  38.620  0.0076 -0.3895 -0.5571
15464TIP3    H167883   1.329   1.209  38.612 -2.8484 -0.3431 -0.0836
15464TIP3    H267884   1.357   1.319  38.711 -2.4517 -0.6788  0.1758
15465TIP3   OH267885   0.690   2.072  18.094 -0.9238 -0.0989  0.2198
15465TIP3    H167886   0.745   2.144  18.062  2.8713 -1.9230  1.8891
15465TIP3    H267887   0.665   2.098  18.182 -0.9025 -0.1630  0.2443
15466TIP3   OH267888   3.199   3.887  11.869 -0.8192  0.2242  0.5680
15466TIP3    H167889   3.265   3.918  11.931 -0.6732 -1.0171  1.0663
15466TIP3    H267890   3.116   3.894  11.915 -0.8352  0.2554  0.5349
15467TIP3   OH267891   0.365   0.541   3.419  0.0227  0.4448 -0.3036
15467TIP3    H167892   0.396   0.472   3.477  1.1266  1.3530  0.2289
15467TIP3    H267893   0.373   0.621   3.470  0.3544  1.1839 -1.4637
15468TIP3   OH267894   2.775   3.604  43.211  0.6456  0.6180 -0.4191
15468TIP3    H167895   2.737   3.578  43.128  2.4041  0.9824 -1.4033
15468TIP3    H267896   2.866   3.575  43.206  0.7188  0.3829  1.5164
15469TIP3   OH267897   3.242   2.189  15.557  0.5076  0.6723  0.0425
15469TIP3    H167898   3.154   2.222  15.540 -0.5576  0.6993  4.2692
15469TIP3    H267899   3.229   2.095  15.574  0.6787  1.0893  3.0805
15470TIP3   OH267900   2.700   3.159   8.530  0.2766  0.6003  0.1142
15470TIP3    H167901   2.641   3.229   8.559 -1.6361 -0.6791 -0.4686
15470TIP3    H267902   2.736   3.191   8.447  0.5736  1.4895  0.5808
15471TIP3   OH267903   1.909   2.627  10.140 -0.4384  0.4436  0.6505
15471TIP3    H167904   1.892   2.704  10.086 -2.6147  0.7413  1.6529
15471TIP3    H267905   1.890   2.656  10.230  0.4645 -0.7798  1.2706
15472TIP3   OH267906   0.769   3.781  31.705 -0.5055 -0.7149 -0.8566
15472TIP3    H167907   0.712   3.857  31.717  0.4550 -0.0022 -0.5928
15472TIP3    H267908   0.711   3.706  31.711 -1.6763  0.0188 -2.2689
15473TIP3   OH267909   3.336   1.696  35.768 -0.2107  0.2957 -0.2616
15473TIP3    H167910   3.344   1.632  35.839  0.6757  1.2878  0.5898
15473TIP3    H267911   3.284   1.767  35.806  0.2190  0.8119 -0.6082
15474TIP3   OH267912   2.459   3.260   9.574 -0.7143  0.0774  0.0693
15474TIP3    H167913   2.480   3.186   9.516 -2.9353 -0.0870 -0.6398
15474TIP3    H267914   2.447   3.334   9.515 -2.1999  0.0957  0.3531
15475TIP3   OH267915   2.358   0.003   5.909  0.0925 -0.3582  0.4148
15475TIP3    H167916   2.446  -0.006   5.946 -0.3877  1.1058  2.0114
15475TIP3    H267917   2.337   0.096   5.917 -1.8591 -0.7716  0.6907
15476TIP3   OH267918   3.318   2.700   0.377  0.3010 -0.3704  0.3105
15476TIP3    H167919   3.242   2.758   0.382 -1.2126 -2.3326  1.2383
15476TIP3    H267920   3.334   2.690   0.283 -0.2808  0.4180  0.1108
15477TIP3   OH267921   3.781   3.603  33.356 -0.2616  0.5555  0.3146
15477TIP3    H167922   3.792   3.691  33.320  0.1494  0.4977  0.2817
15477TIP3    H267923   3.760   3.617  33.448  0.2581  0.6814  0.4155
15478TIP3   OH267924   0.448   2.938  35.822 -0.3897 -0.1475  0.3179
15478TIP3    H167925   0.543   2.951  35.827 -0.4823  0.6562  0.1545
15478TIP3    H267926   0.412   3.027  35.819 -1.0670 -0.4539 -1.1101
15479TIP3   OH267927   1.951   1.955  21.612  0.7108 -0.1106 -0.4784
15479TIP3    H167928   1.969   1.870  21.573  0.2916 -1.3750  1.8904
15479TIP3    H267929   2.023   2.011  21.583  0.9378 -1.2236 -2.1640
15480TIP3   OH267930   0.514   1.787   5.349  0.1070 -0.4830 -0.4065
15480TIP3    H167931   0.488   1.871   5.386  1.4256  0.2369 -1.0346
15480TIP3    H267932   0.527   1.731   5.425  1.0412  0.4464  0.1485
15481TIP3   OH267933   3.556   1.749  37.701 -0.2034 -0.0378 -0.1506
15481TIP3    H167934   3.464   1.736  37.680 -0.1008  0.9832 -1.3255
15481TIP3    H267935   3.572   1.690  37.775 -1.9545  0.2632  0.5277
15482TIP3   OH267936   2.569   1.620  34.351 -0.7408  0.0312 -0.7018
15482TIP3    H167937   2.554   1.593  34.261  1.3383  1.0443 -1.4180
15482TIP3    H267938   2.542   1.544  34.404 -0.1977 -1.3157 -2.2870
15483TIP3   OH267939   3.998   1.452  45.618  0.3521  0.3473 -0.2959
15483TIP3    H167940   3.905   1.434  45.604  0.3128  0.6220 -0.4015
15483TIP3    H267941   4.040   1.426  45.536  0.3760  0.1577 -0.2264
15484TIP3   OH267942   1.925   1.191   9.155 -0.2413 -0.0209 -0.0982
15484TIP3    H167943   1.910   1.271   9.205  2.1113  1.3333 -1.3951
15484TIP3    H267944   2.011   1.203   9.115 -1.0882 -1.8797 -2.7926
15485TIP3   OH267945   2.386   2.893   7.340 -0.1098  0.1183 -0.2574
15485TIP3    H167946   2.427   2.945   7.271 -1.0867  0.4689 -0.5914
15485TIP3    H267947   2.432   2.810   7.338  2.2184  1.2959  1.0009
15486TIP3   OH267948   2.289   3.386  37.533  0.3395  0.0934 -0.5607
15486TIP3    H167949   2.348   3.380  37.458 -0.6959 -0.1857 -1.3728
15486TIP3    H267950   2.285   3.479  37.553  0.7155  0.1555 -0.7741
15487TIP3   OH267951   3.348   0.130  37.518  0.1684 -0.6582 -0.0206
15487TIP3    H167952   3.426   0.159  37.469 -0.4071  0.9455 -0.0486
15487TIP3    H267953   3.378   0.053  37.567  2.2329  0.7586  1.1240
15488TIP3   OH267954   2.248   2.236  43.061 -0.2631 -0.4179  0.2329
15488TIP3    H167955   2.319   2.248  43.124  0.6677 -0.1184 -0.8230
15488TIP3    H267956   2.181   2.299  43.088  0.6401  0.5899  0.2198
15489TIP3   OH267957   3.719   2.241  10.898  0.0057  0.7032 -0.3232
15489TIP3    H167958   3.641   2.227  10.844 -0.1255  0.6020 -0.1114
15489TIP3    H267959   3.705   2.186  10.975 -0.4070  1.7817  0.4133
15490TIP3   OH267960   1.984   2.519  45.469 -0.4580 -0.6616 -0.0806
15490TIP3    H167961   1.920   2.534  45.539 -0.5666  0.1647 -0.3494
15490TIP3    H267962   1.994   2.423  45.466 -0.9757 -0.7432  0.5904
15491TIP3   OH267963   1.769   3.790  38.012 -0.6126 -0.2618  0.0821
15491TIP3    H167964   1.751   3.701  37.981 -1.0239 -0.3108  0.4562
15491TIP3    H267965   1.746   3.846  37.937  1.4187 -0.5680 -0.8309
15492TIP3   OH267966   0.132   2.230  12.180  0.2158  0.1843 -0.0271
15492TIP3    H167967   0.221   2.245  12.213  0.6785  1.3287 -1.6386
15492TIP3    H267968   0.122   2.294  12.109 -1.3724 -0.8989 -0.8418
15493TIP3   OH267969   1.556   3.417  43.166 -0.0434 -0.1289  0.1229
15493TIP3    H167970   1.553   3.324  43.189  2.2521 -0.1899  0.3531
15493TIP3    H267971   1.465   3.438  43.143 -1.0570 -1.8536  2.1810
15494TIP3   OH267972   3.184   2.155  32.224  0.7644  0.0468  0.4067
15494TIP3    H167973   3.184   2.158  32.128  1.3884 -1.6005  0.3186
15494TIP3    H267974   3.263   2.106  32.246 -1.0504 -2.5467  1.6219
15495TIP3   OH267975   2.664   3.238  36.483 -0.2613  0.1078 -0.3299
15495TIP3    H167976   2.584   3.196  36.449  0.2392 -0.9196 -0.2629
15495TIP3    H267977   2.705   3.171  36.538  0.2297  0.9140  0.3029
15496TIP3   OH267978   2.758   1.076  12.928 -0.0752  0.3520  0.1225
15496TIP3    H167979   2.703   1.125  12.867 -1.5953  0.5235  1.5718
15496TIP3    H267980   2.795   1.005  12.875 -0.7070  0.9499 -1.1610
15497TIP3   OH267981   1.611   2.893  40.580 -0.3339  0.1816 -0.5569
15497TIP3    H167982   1.563   2.897  40.498  1.2908  1.3647 -1.5082
15497TIP3    H267983   1.580   2.970  40.629 -1.1307 -0.3955 -0.1227
15498TIP3   OH267984   1.256   0.795  44.939 -0.0148 -0.2709  0.1279
15498TIP3    H167985   1.334   0.845  44.914 -0.4349  0.3886  0.1183
15498TIP3    H267986   1.290   0.712  44.972  0.7660  0.4864  1.2803
15499TIP3   OH267987   1.437   2.543   0.041  0.0130 -0.6063  0.7659
15499TIP3    H167988   1.446   2.520   0.133  1.2452 -0.4213  0.7071
15499TIP3    H267989   1.342   2.542   0.025 -0.2930  0.4339  2.2981
15500TIP3   OH267990   3.613   1.487  18.107 -0.2815  1.0922  0.5129
15500TIP3    H167991   3.610   1.520  18.196 -1.9243  1.6236  0.2811
15500TIP3    H267992   3.536   1.431  18.098  0.9241 -0.5662  0.0161
15501TIP3   OH267993   2.340   2.174   2.573  0.3866 -0.1409  0.0893
15501TIP3    H167994   2.292   2.243   2.528 -0.8100 -0.6929  0.4913
15501TIP3    H267995   2.278   2.101   2.577  0.9182 -0.5337  1.4987
15502TIP3   OH267996   2.042   1.956  38.073 -0.4873  0.3546 -0.0044
15502TIP3    H167997   2.036   1.888  38.140 -1.3094 -0.1332 -0.5587
15502TIP3    H267998   2.029   2.038  38.122 -0.6717  0.0368  0.4918
15503TIP3   OH267999   3.163   3.594  15.120 -0.5148  0.1446 -0.0692
15503TIP3    H168000   3.089   3.538  15.143  0.4396 -1.1160  0.0610
15503TIP3    H268001   3.208   3.610  15.203 -1.1582  1.7092  0.0016
15504TIP3   OH268002   3.760   1.566   7.263  0.2281 -0.9711  0.0793
15504TIP3    H168003   3.689   1.629   7.250  1.4381  0.3673 -0.2354
15504TIP3    H268004   3.831   1.617   7.303  0.7639 -2.4450  1.0936
15505TIP3   OH268005   2.409   4.017   0.590 -0.0508 -0.2060  0.0809
15505TIP3    H168006   2.474   4.076   0.628  1.8397 -2.0757  0.0066
15505TIP3    H268007   2.420   3.935   0.639  0.6184 -1.8808 -2.6029
15506TIP3   OH268008   2.521   2.601  40.904  0.3567  0.3489 -0.7516
15506TIP3    H168009   2.471   2.671  40.945 -0.0412 -0.3202 -0.0599
15506TIP3    H268010   2.536   2.632  40.814  0.2415  1.3285 -0.4441
15507TIP3   OH268011   1.922   0.144   0.249  0.4286  0.3241  0.4614
15507TIP3    H168012   1.913   0.134   0.344  1.9611 -1.3861  0.4878
15507TIP3    H268013   1.833   0.163   0.218 -0.7097 -2.0638  1.9398
15508TIP3   OH268014   0.807   2.256  41.974  0.2172 -0.6715 -0.2495
15508TIP3    H168015   0.714   2.252  41.953 -0.2865 -0.1183  1.6730
15508TIP3    H268016   0.842   2.321  41.913 -0.5046 -1.3920 -1.4554
15509TIP3   OH268017   3.545   0.634  14.606 -0.3255  0.1177  0.1153
15509TIP3    H168018   3.522   0.638  14.699  1.2886  0.2296  0.5326
15509TIP3    H268019   3.492   0.702  14.565  0.1946  1.2397  1.2393
15510TIP3   OH268020   1.719   1.660  46.151  0.2293 -0.3433 -0.1948
15510TIP3    H168021   1.710   1.639  46.244  1.1267 -2.1699 -0.4790
15510TIP3    H268022   1.813   1.654  46.134  0.1220  0.3778 -1.1509
15511TIP3   OH268023   3.639   1.891   4.005  0.1107 -0.0537 -0.5215
15511TIP3    H168024   3.544   1.883   4.006 -0.0147  0.7256 -2.3153
15511TIP3    H268025   3.669   1.817   3.953  0.7089 -1.5969  1.8890
15512TIP3   OH268026   3.289   3.627   0.264 -0.5179 -0.3043  0.1857
15512TIP3    H168027   3.336   3.706   0.292 -2.6959  0.5873  1.6424
15512TIP3    H268028   3.341   3.555   0.298  1.7701  0.3856 -1.5498
15513TIP3   OH268029   3.728   3.613   0.011  0.1175  0.1505  0.3415
15513TIP3    H168030   3.793   3.555  -0.028  0.3278 -0.4502  1.5512
15513TIP3    H268031   3.644   3.574  -0.012  0.2665 -1.0886  1.7606
15514TIP3   OH268032   2.945   2.002  44.851  0.4032  0.5293 -0.1141
15514TIP3    H168033   3.034   1.990  44.884  0.2780 -0.8720 -0.2195
15514TIP3    H268034   2.940   1.946  44.774 -0.2488  1.4399 -0.7584
15515TIP3   OH268035   2.070   0.688  25.725  0.1908 -0.2134 -0.1593
15515TIP3    H168036   2.023   0.606  25.705  1.2732 -1.0080  0.4352
15515TIP3    H268037   2.020   0.756  25.679 -1.8650 -0.9233  0.9113
15516TIP3   OH268038   1.758   0.029  13.420 -0.0032 -0.3161  0.1399
15516TIP3    H168039   1.715   0.107  13.457  1.6996 -0.0249  1.6097
15516TIP3    H268040   1.754   0.043  13.326  0.0819  1.4850  0.3565
15517TIP3   OH268041   0.375   1.739  34.797 -0.1547 -1.0583  0.9362
15517TIP3    H168042   0.408   1.711  34.882  1.4647  0.2507  0.7908
15517TIP3    H268043   0.414   1.826  34.784  0.5885 -1.7080 -1.6592
15518TIP3   OH268044   4.082   1.191  32.424  0.4456  0.0450  0.1100
15518TIP3    H168045   4.167   1.235  32.425  0.6981 -0.4171  1.0620
15518TIP3    H268046   4.090   1.124  32.493 -0.5820 -0.2058 -0.0067
15519TIP3   OH268047   3.449   0.844  34.066 -0.3824 -0.5119 -0.2468
15519TIP3    H168048   3.462   0.767  34.120  1.1570 -0.6671 -0.8014
15519TIP3    H268049   3.405   0.906  34.123  0.1212 -1.1061  0.8087
15520TIP3   OH268050   3.880   3.026  40.701  0.2411  0.0762 -0.3449
15520TIP3    H168051   3.811   2.961  40.686 -2.2138  2.2892  0.5391
15520TIP3    H268052   3.907   3.010  40.792 -0.3706  0.2807 -0.1199
15521TIP3   OH268053   0.818   3.906  45.118  0.2544 -0.3560  0.2810
15521TIP3    H168054   0.777   3.991  45.134  1.3954  0.2463  0.1053
15521TIP3    H268055   0.860   3.915  45.033 -1.1877 -1.7468 -0.6386
15522TIP3   OH268056   2.447   2.900  32.312  0.4759 -0.2071 -0.0888
15522TIP3    H168057   2.413   2.979  32.354 -1.2821 -0.5861 -0.7147
15522TIP3    H268058   2.427   2.829  32.374  1.5850 -0.2503  0.2400
15523TIP3   OH268059   2.102   2.578   0.021  0.0417 -0.3456  0.9078
15523TIP3    H168060   2.175   2.521  -0.004 -0.0470 -0.5667  1.1520
15523TIP3    H268061   2.051   2.526   0.084 -1.0721 -0.7011 -0.2472
15524TIP3   OH268062   0.778   3.439  41.561 -0.3075 -0.6899  0.0643
15524TIP3    H168063   0.689   3.405  41.564 -1.6862  2.5961  1.4228
15524TIP3    H268064   0.789   3.485  41.644  2.2773 -0.0832 -0.5196
15525TIP3   OH268065   0.042   1.122  14.641 -0.0998  0.0627  0.3299
15525TIP3    H168066   0.010   1.143  14.554  1.3671  1.0728 -0.0072
15525TIP3    H268067   0.001   1.038  14.663 -1.7889  0.6049 -0.6157
15526TIP3   OH268068   3.949   1.450  13.451 -0.5558  0.6168 -0.4731
15526TIP3    H168069   3.988   1.521  13.400  0.4999  0.1965 -0.2714
15526TIP3    H268070   3.884   1.412  13.392 -0.9243  1.5410 -0.6936
15527TIP3   OH268071   2.457   1.487  18.664 -0.0611  0.3089 -0.5620
15527TIP3    H168072   2.479   1.416  18.603  1.1006  0.4254 -0.3003
15527TIP3    H268073   2.501   1.462  18.746 -0.4634  0.8413 -0.1781
15528TIP3   OH268074   1.509   2.750  12.938 -0.0760  1.3995  0.0314
15528TIP3    H168075   1.518   2.844  12.918 -0.1551  1.2701 -0.6258
15528TIP3    H268076   1.428   2.744  12.989 -0.0766  1.6859  0.0673
15529TIP3   OH268077   1.381   3.392  43.455  0.3510  0.3955  0.6803
15529TIP3    H168078   1.296   3.372  43.414  0.6115 -0.2344  0.4264
15529TIP3    H268079   1.407   3.475  43.416  0.6977 -0.2972 -0.6417
15530TIP3   OH268080   0.403   2.327   3.342  0.2697 -0.4458 -0.4331
15530TIP3    H168081   0.315   2.361   3.352  0.3113 -0.4320 -0.1086
15530TIP3    H268082   0.397   2.267   3.268  0.2143  0.3134 -1.0555
15531TIP3   OH268083   1.219   1.296  42.448  0.3257  0.0369 -0.2374
15531TIP3    H168084   1.127   1.311  42.427  0.5036 -0.4530 -1.4731
15531TIP3    H268085   1.237   1.352  42.524 -0.7763  0.7413 -0.4865
15532TIP3   OH268086   3.571   2.464  17.262 -0.7435  0.7408 -0.4866
15532TIP3    H168087   3.603   2.424  17.343 -2.0213  1.5728  0.4713
15532TIP3    H268088   3.649   2.489  17.215  0.0337  0.8845  0.8237
15533TIP3   OH268089   3.502   3.469  44.200 -0.3135  0.0757 -0.0021
15533TIP3    H168090   3.524   3.534  44.267  0.0891 -0.7658  0.7064
15533TIP3    H268091   3.429   3.420  44.238  0.0386 -0.5265 -0.1007
15534TIP3   OH268092   2.747   3.363   0.015 -0.2676  0.5839 -0.0000
15534TIP3    H168093   2.782   3.374   0.103 -1.5189  0.0270  0.5831
15534TIP3    H268094   2.658   3.399   0.019 -0.1943  0.9656 -1.1632
15535TIP3   OH268095   2.711   1.880  40.519 -0.0133 -0.4765 -0.2156
15535TIP3    H168096   2.764   1.950  40.556 -0.0092 -0.4371 -0.2968
15535TIP3    H268097   2.652   1.855  40.590 -1.6475  1.2047 -0.9090
15536TIP3   OH268098   0.618   0.738   9.397  0.3313  0.0795 -0.5162
15536TIP3    H168099   0.553   0.795   9.440  0.0788 -1.2553  0.9744
15536TIP3    H268100   0.572   0.704   9.320 -0.4142 -0.0797 -0.0170
15537TIP3   OH268101   2.748   0.365  46.791  0.2509 -0.4656  0.1549
15537TIP3    H168102   2.820   0.370  46.854  1.7033 -0.4827 -1.4190
15537TIP3    H268103   2.686   0.431  46.820  1.1033 -0.1474  1.3353
15538TIP3   OH268104   3.994   1.145  38.266 -0.1231  0.5192 -0.1360
15538TIP3    H168105   4.061   1.205  38.300  0.2844  0.4863 -0.8563
15538TIP3    H268106   3.916   1.199  38.257 -0.5196  0.3177  1.7112
15539TIP3   OH268107   3.796   2.903   2.940 -0.2166 -0.2199  0.1855
15539TIP3    H168108   3.719   2.852   2.966  0.4765 -0.6644  1.4483
15539TIP3    H268109   3.858   2.838   2.907 -0.3906  0.1496 -0.9364
15540TIP3   OH268110   1.279   1.297   8.646 -0.0524 -0.0208  0.3667
15540TIP3    H168111   1.216   1.341   8.588  0.4737  0.5470  0.2069
15540TIP3    H268112   1.275   1.205   8.620  0.0162  0.1899 -0.4300
15541TIP3   OH268113   2.497   3.252  11.321 -0.7030 -0.2424  0.9618
15541TIP3    H168114   2.508   3.265  11.415  0.7441  0.0987  0.7776
15541TIP3    H268115   2.517   3.338  11.283 -0.0515 -0.6794  0.2832
15542TIP3   OH268116   1.028   1.901  19.889  0.2858  0.2682  0.2802
15542TIP3    H168117   0.942   1.866  19.865  0.1455 -0.2510  1.4543
15542TIP3    H268118   1.042   1.974  19.829 -1.1628  0.6166  0.3283
15543TIP3   OH268119   1.865   1.539   0.010  0.7565 -0.8200 -0.5803
15543TIP3    H168120   1.906   1.474  -0.047  0.8728 -2.3077  1.0979
15543TIP3    H268121   1.876   1.504   0.098  0.1813  1.1613  0.3452
15544TIP3   OH268122   3.996   2.584  12.124  0.1301  0.0634  0.1105
15544TIP3    H168123   3.969   2.492  12.120  0.3229  0.0420 -1.1199
15544TIP3    H268124   3.921   2.632  12.090  0.1575  0.3452  0.4444
15545TIP3   OH268125   3.489   1.325   8.628 -0.0492  0.2596  0.3812
15545TIP3    H168126   3.481   1.304   8.722  1.4764  1.3431  0.7749
15545TIP3    H268127   3.434   1.259   8.585  0.3393 -1.1591  1.9338
15546TIP3   OH268128   2.556   1.875  15.714 -0.0858 -0.0849 -0.6353
15546TIP3    H168129   2.651   1.877  15.703  0.0357  1.4788  0.4767
15546TIP3    H268130   2.523   1.940  15.652 -0.3629  0.0516 -0.3445
15547TIP3   OH268131   4.007   0.912  34.419 -0.0434 -0.0656 -0.0363
15547TIP3    H168132   3.922   0.867  34.418  0.6669 -1.9132  3.6553
15547TIP3    H268133   4.066   0.853  34.372 -0.1319 -0.4659  0.3539
15548TIP3   OH268134   2.144   0.338  36.314  0.0311  0.6292 -0.7434
15548TIP3    H168135   2.131   0.389  36.234 -1.5560 -0.8020 -1.4573
15548TIP3    H268136   2.099   0.255  36.297  1.1020 -0.3718  1.0023
15549TIP3   OH268137   1.162   0.926  32.298  0.3018 -0.3612  0.0778
15549TIP3    H168138   1.230   0.947  32.233 -0.8589 -1.9049 -1.7171
15549TIP3    H268139   1.171   0.995  32.364  0.8194  2.0065 -2.2692
15550TIP3   OH268140   2.313   2.338  11.663  0.5560  0.0439  0.1128
15550TIP3    H168141   2.239   2.397  11.645 -0.4780 -0.8511  1.2314
15550TIP3    H268142   2.389   2.385  11.631 -0.5055  0.9704 -1.1607
15551TIP3   OH268143   0.616   3.176  43.034  0.0948 -0.0805 -0.3209
15551TIP3    H168144   0.624   3.124  43.114  1.3913  0.5159 -0.0324
15551TIP3    H268145   0.609   3.111  42.964  2.1178 -0.7237 -0.0100
15552TIP3   OH268146   2.386   2.000  37.702  0.4890 -0.2754  0.3204
15552TIP3    H168147   2.352   1.963  37.783  0.0531 -1.7028 -0.4775
15552TIP3    H268148   2.340   2.084  37.692  0.5613 -0.0817  1.5361
15553TIP3   OH268149   0.113   0.239   8.523  0.5468 -0.1594 -0.5372
15553TIP3    H168150   0.108   0.314   8.465  1.5253 -0.3733 -0.9149
15553TIP3    H268151   0.087   0.273   8.609  1.0687  0.6302 -0.6846
15554TIP3   OH268152   0.286   1.203  13.393  0.7003  0.8450  0.1995
15554TIP3    H168153   0.298   1.153  13.312  0.8513 -0.1359  0.8120
15554TIP3    H268154   0.359   1.176  13.449  0.0378  0.7332  1.0357
15555TIP3   OH268155   0.291   2.130  45.353  0.4255  0.3298  0.7211
15555TIP3    H168156   0.309   2.036  45.356 -0.3908  0.1793  1.1774
15555TIP3    H268157   0.313   2.162  45.440  0.5203  0.5315  0.6246
15556TIP3   OH268158   0.275   1.010  46.505  0.3041  0.0978 -0.4716
15556TIP3    H168159   0.237   0.984  46.589 -0.1000 -1.2860 -1.0631
15556TIP3    H268160   0.212   1.072  46.468  0.2128  0.2790 -0.0206
15557TIP3   OH268161   3.716   2.109  10.588  0.9460  0.9912 -0.0602
15557TIP3    H168162   3.644   2.064  10.544  1.5440  1.4026 -1.5242
15557TIP3    H268163   3.681   2.133  10.673 -0.0741 -0.3530 -0.0695
15558TIP3   OH268164   1.747   2.925  36.136 -0.2348 -0.0567 -0.0096
15558TIP3    H168165   1.661   2.966  36.146  0.6087  2.3576 -1.7024
15558TIP3    H268166   1.767   2.933  36.043  1.5557 -1.1569  0.2308
15559TIP3   OH268167   4.014   3.549   4.768  0.2594  0.2949 -0.0010
15559TIP3    H168168   4.028   3.635   4.808  2.5317  0.0695 -0.1772
15559TIP3    H268169   3.937   3.561   4.712  0.1681  2.0429  0.4433
15560TIP3   OH268170   3.967   0.382  10.886  0.4209  0.7099  0.6765
15560TIP3    H168171   3.897   0.446  10.873 -0.3900 -0.4023 -0.6238
15560TIP3    H268172   4.007   0.371  10.800  0.8472 -0.1979  0.9752
15561TIP3   OH268173   0.410   1.898  19.034  0.0230 -0.0150 -0.4922
15561TIP3    H168174   0.383   1.806  19.023 -0.1235  0.0967 -1.1063
15561TIP3    H268175   0.432   1.927  18.945  2.1647 -0.0844 -0.0194
15562TIP3   OH268176   3.099   0.550  12.704  0.3590  0.3220  0.4079
15562TIP3    H168177   3.119   0.585  12.617 -0.3064  0.8846  0.4685
15562TIP3    H268178   3.007   0.523  12.698  0.3803  0.1420  0.8654
15563TIP3   OH268179   3.478   3.270  37.185  0.0678  0.3543 -0.6805
15563TIP3    H168180   3.383   3.254  37.188 -0.0191  0.5235 -1.9714
15563TIP3    H268181   3.498   3.313  37.268 -1.3719  2.2381 -1.2292
15564TIP3   OH268182   0.963   1.955  16.119  0.8296 -0.3685  0.2500
15564TIP3    H168183   0.905   2.008  16.064  1.8005 -1.7090 -2.2282
15564TIP3    H268184   1.047   2.001  16.116  1.1797 -1.0292 -0.3528
15565TIP3   OH268185   2.261   3.630  34.007 -0.0305 -0.2464 -0.2060
15565TIP3    H168186   2.182   3.679  33.984  0.2036 -0.0789 -0.6659
15565TIP3    H268187   2.266   3.561  33.941 -0.3936 -0.9347  0.4793
15566TIP3   OH268188   1.943   2.943  34.378  0.0712  0.3810 -0.3372
15566TIP3    H168189   1.963   2.935  34.471  1.9544 -0.0525 -0.7302
15566TIP3    H268190   1.912   3.033  34.368 -0.2480  0.3986  0.7238
15567TIP3   OH268191   3.284   0.657  41.496 -0.2164 -0.4245 -0.0486
15567TIP3    H168192   3.235   0.657  41.578  3.0492  0.1203  2.0717
15567TIP3    H268193   3.313   0.748  41.486  3.4981 -1.3607  0.9476
15568TIP3   OH268194   0.514   1.693   8.721  0.0430 -0.4449 -0.7027
15568TIP3    H168195   0.598   1.734   8.739 -0.2860  0.3989 -1.0363
15568TIP3    H268196   0.534   1.600   8.713  0.9632 -0.2410 -0.9066
15569TIP3   OH268197   0.501   3.969  12.751  0.0743 -0.1129  0.2540
15569TIP3    H168198   0.434   4.028  12.715  1.2284  0.2163 -1.4959
15569TIP3    H268199   0.452   3.890  12.775 -1.1808  0.7470  0.6449
15570TIP3   OH268200   2.329   0.323  30.004  0.0337  0.3447 -0.4521
15570TIP3    H168201   2.353   0.296  30.092  1.8591  2.3469 -0.2631
15570TIP3    H268202   2.407   0.365  29.969 -1.1919  1.1677 -2.3953
15571TIP3   OH268203   1.639   1.981  44.740  0.5103  0.7928 -0.0437
15571TIP3    H168204   1.671   1.936  44.662  0.0268  0.1569  0.1140
15571TIP3    H268205   1.646   2.074  44.719  1.8303  0.6666 -0.2509
15572TIP3   OH268206   4.080   3.897  14.062  0.1446  0.2273  0.6833
15572TIP3    H168207   4.134   3.935  14.131 -0.8054  2.1319  0.4408
15572TIP3    H268208   4.009   3.852  14.109  0.9553 -0.7838  0.9654
15573TIP3   OH268209   1.806   3.634  44.748  0.1715  0.0034 -0.1339
15573TIP3    H168210   1.743   3.619  44.677 -0.3617 -0.7242  0.4860
15573TIP3    H268211   1.776   3.578  44.819  1.2310  0.0428  0.3541
15574TIP3   OH268212   1.430   0.927  15.145 -0.9172  0.1727 -0.4129
15574TIP3    H168213   1.452   0.858  15.082 -0.1081 -0.0274  0.0882
15574TIP3    H268214   1.360   0.977  15.101  0.2008  0.5505 -1.8415
15575TIP3   OH268215   1.274   2.796  34.666 -0.3168  0.1338  0.2410
15575TIP3    H168216   1.292   2.704  34.646 -2.6089 -0.0014 -1.6107
15575TIP3    H268217   1.320   2.845  34.598  0.2039  0.3552  0.7343
15576TIP3   OH268218   1.796   0.642  36.346 -0.3857 -0.2164  0.0950
15576TIP3    H168219   1.784   0.694  36.425  2.9714 -0.3256  0.7887
15576TIP3    H268220   1.787   0.706  36.275 -2.8545 -0.0198  0.4636
15577TIP3   OH268221   0.498   0.383   7.418  0.2085  0.6794  0.2453
15577TIP3    H168222   0.490   0.307   7.476 -4.1870 -0.6914 -1.7370
15577TIP3    H268223   0.549   0.350   7.344  1.4630  0.8939  0.9736
15578TIP3   OH268224   0.032   0.116  34.099 -0.1537 -0.9805 -0.2244
15578TIP3    H168225   0.010   0.209  34.097  0.4898 -0.8063 -3.0621
15578TIP3    H268226  -0.003   0.085  34.182  2.5186  2.4413  2.4862
15579TIP3   OH268227   3.076   1.353   3.542 -0.3453  0.3430 -0.0853
15579TIP3    H168228   3.155   1.324   3.497 -0.6630 -0.9358  0.1500
15579TIP3    H268229   3.100   1.352   3.635 -0.4991  0.3783 -0.0453
15580TIP3   OH268230   4.075   1.808   1.541  0.4617 -0.2347 -0.0786
15580TIP3    H168231   4.159   1.822   1.585  1.0710 -1.7817 -0.7087
15580TIP3    H268232   4.049   1.719   1.565 -0.2939 -0.2925 -1.0427
15581TIP3   OH268233   2.365   1.221   5.483  0.2476  0.3974  0.0317
15581TIP3    H168234   2.278   1.250   5.455  0.7824  2.5684  0.4829
15581TIP3    H268235   2.422   1.238   5.408  0.1535 -2.0690 -0.6831
15582TIP3   OH268236   2.023   3.299  11.713  0.0192 -0.2471  0.2922
15582TIP3    H168237   1.986   3.326  11.629 -1.3216  2.8305  1.7129
15582TIP3    H268238   2.116   3.284  11.693 -0.2002  0.5927 -1.7211
15583TIP3   OH268239   0.584   1.825  32.953 -0.0143  0.3914  0.1491
15583TIP3    H168240   0.540   1.866  33.028 -0.7106  1.3210 -0.7297
15583TIP3    H268241   0.653   1.888  32.930  1.2544 -0.6536  0.9846
15584TIP3   OH268242   0.517   0.583  11.893  0.2527  0.3271 -0.4123
15584TIP3    H168243   0.551   0.620  11.812 -0.6578  0.8647 -0.5567
15584TIP3    H268244   0.552   0.494  11.895  2.4068  1.0983 -0.1105
15585TIP3   OH268245   1.826   3.888   1.046  0.0665  0.2036  0.1637
15585TIP3    H168246   1.797   3.835   0.971 -1.4251  0.2450  0.6807
15585TIP3    H268247   1.877   3.827   1.100  2.7173  0.5916 -1.6817
15586TIP3   OH268248   2.726   1.019  46.572 -0.0903 -1.1657 -0.0921
15586TIP3    H168249   2.742   0.980  46.658 -1.1603 -1.3113  0.0512
15586TIP3    H268250   2.632   1.011  46.559 -0.2270  0.6177 -0.4333
15587TIP3   OH268251   3.457   3.349   3.994 -0.8621  0.0616  0.4243
15587TIP3    H168252   3.428   3.436   3.968  0.4602  0.2407 -0.5089
15587TIP3    H268253   3.467   3.301   3.912  0.2002 -0.3832  0.7998
15588TIP3   OH268254   0.230   2.604   8.923 -0.1057  0.0852  0.3260
15588TIP3    H168255   0.240   2.525   8.976 -0.9922  0.4524  1.0873
15588TIP3    H268256   0.189   2.667   8.982  0.7589  1.1865 -0.2091
15589TIP3   OH268257   2.863   2.725  45.660  0.4218 -0.0021  0.3629
15589TIP3    H168258   2.957   2.730  45.647  0.4825 -0.0925  0.7551
15589TIP3    H268259   2.846   2.777  45.739  0.1906 -0.2742  0.4952
15590TIP3   OH268260   1.018   3.537  12.426 -0.0467  0.7631  0.3078
15590TIP3    H168261   0.958   3.479  12.379  1.7426 -0.2606 -0.8612
15590TIP3    H268262   1.026   3.498  12.513  1.1587 -0.8580 -0.4740
15591TIP3   OH268263   0.170   3.084  43.150  0.7053  0.0342 -0.9074
15591TIP3    H168264   0.195   3.166  43.107 -0.2145  1.3875  1.0063
15591TIP3    H268265   0.075   3.089  43.160  0.6339 -1.2462 -0.6875
15592TIP3   OH268266   1.198   1.727  14.253 -0.1086  0.1713  0.5991
15592TIP3    H168267   1.255   1.684  14.189 -0.8162 -1.4293  0.9929
15592TIP3    H268268   1.115   1.739  14.207  0.1727  1.5040  0.3814
15593TIP3   OH268269   2.764   2.868  41.321 -0.0842  0.5356 -0.0037
15593TIP3    H168270   2.694   2.878  41.257  0.8859 -0.6244 -1.3286
15593TIP3    H268271   2.827   2.937  41.299  0.4126 -0.0821 -0.5318
15594TIP3   OH268272   2.954   2.225  30.888 -0.3115 -0.4472 -0.1776
15594TIP3    H168273   3.021   2.220  30.820  0.4450  1.7583  0.3358
15594TIP3    H268274   2.998   2.193  30.967 -0.3279 -0.3997 -0.1497
15595TIP3   OH268275   0.775   2.916  10.906  0.0213  0.2364 -0.0108
15595TIP3    H168276   0.849   2.925  10.966  0.2765 -0.7450 -0.1680
15595TIP3    H268277   0.790   2.982  10.839 -0.3294  1.4426  1.0495
15596TIP3   OH268278   2.929   0.583   6.797  0.3094  0.2577  0.0232
15596TIP3    H168279   2.849   0.603   6.847  0.0627  0.0448 -0.2840
15596TIP3    H268280   2.995   0.641   6.835  0.1352  0.0697  0.6301
15597TIP3   OH268281   2.725   3.192   5.049  0.7819 -0.6626 -0.2299
15597TIP3    H168282   2.788   3.262   5.037  0.8226 -0.8193 -0.9680
15597TIP3    H268283   2.702   3.195   5.142  1.2807 -0.1038 -0.1263
15598TIP3   OH268284   1.022   0.968  45.128 -0.2225  1.0216 -0.0565
15598TIP3    H168285   1.103   0.925  45.157 -1.1414 -0.7919 -0.0405
15598TIP3    H268286   0.998   1.026  45.200  1.3384  2.0084 -0.2928
15599TIP3   OH268287   0.725   0.765   0.948 -0.0204  0.1139  0.3400
15599TIP3    H168288   0.714   0.758   1.043 -1.0154 -0.8230  0.1713
15599TIP3    H268289   0.705   0.678   0.915  1.1248  0.2127 -0.6732
15600TIP3   OH268290   0.809   0.029  40.341 -0.5145  0.5742 -0.5074
15600TIP3    H168291   0.878   0.085  40.305 -1.2336  2.2513  0.6103
15600TIP3    H268292   0.728   0.078  40.327 -1.0811  0.2031  1.2249
15601TIP3   OH268293   1.508   1.665  16.921 -0.0896  0.3235  0.0218
15601TIP3    H168294   1.455   1.633  16.994  1.3834 -0.0780  0.9517
15601TIP3    H268295   1.537   1.752  16.948  1.0560 -0.1154  0.2661
15602TIP3   OH268296   0.007   0.504  32.278 -0.2119 -0.0780  0.4603
15602TIP3    H168297  -0.061   0.536  32.218  0.1612 -0.3037 -0.0891
15602TIP3    H268298  -0.042   0.470  32.353 -0.6373  1.4748  0.9402
15603TIP3   OH268299   0.209   1.880   7.769 -0.4172 -0.2325 -0.3603
15603TIP3    H168300   0.244   1.951   7.715 -1.5511 -0.0762 -0.9102
15603TIP3    H268301   0.260   1.886   7.851  0.9623 -0.1580 -1.1869
15604TIP3   OH268302   2.902   3.864   2.829  0.2632 -0.1166  0.0942
15604TIP3    H168303   2.890   3.956   2.849  0.6166 -0.0309 -0.0801
15604TIP3    H268304   2.927   3.824   2.913  1.8852  0.2667 -0.1666
15605TIP3   OH268305   2.750   1.679  22.101 -0.3705  0.0963  0.1166
15605TIP3    H168306   2.706   1.712  22.023 -1.6557  0.7844  1.1018
15605TIP3    H268307   2.813   1.747  22.124  2.2108 -1.3811 -1.9593
15606TIP3   OH268308   1.834   3.336  43.113  0.0598  0.2663 -0.2749
15606TIP3    H168309   1.744   3.362  43.129  0.3749  0.9646  0.4183
15606TIP3    H268310   1.834   3.241  43.129 -0.8678 -0.0237 -1.8155
15607TIP3   OH268311   0.875   4.056  47.411  0.0551 -0.1435  0.4602
15607TIP3    H168312   0.891   4.129  47.471 -1.0373 -0.7217  1.5211
15607TIP3    H268313   0.947   3.995  47.427 -0.0427 -0.1370  0.9682
15608TIP3   OH268314   0.139   3.497   0.718  0.4164  0.0498 -0.5587
15608TIP3    H168315   0.230   3.505   0.689  0.5574 -0.5091 -0.2762
15608TIP3    H268316   0.108   3.588   0.726  1.2020  0.2644  0.1479
15609TIP3   OH268317   1.386   1.505   1.809  0.0847 -0.0216  0.3923
15609TIP3    H168318   1.395   1.417   1.772  0.8197 -0.5909  1.8582
15609TIP3    H268319   1.409   1.564   1.737 -1.0445 -0.9921 -0.8006
15610TIP3   OH268320   4.018   0.580  41.665 -0.1583  0.1063  0.1493
15610TIP3    H168321   3.950   0.515  41.647  1.0807 -0.5907 -2.5899
15610TIP3    H268322   4.064   0.545  41.741  0.5709 -2.4725 -1.3277
15611TIP3   OH268323   0.291   0.315  32.411 -0.0964  0.4057  0.8348
15611TIP3    H168324   0.354   0.346  32.476 -0.0917  1.3723  0.3900
15611TIP3    H268325   0.240   0.249  32.457  1.3293 -0.5116  1.1610
15612TIP3   OH268326   0.108   3.634  46.889  0.1205 -0.4106 -0.3147
15612TIP3    H168327   0.040   3.590  46.940  0.4671  0.4620  0.9358
15612TIP3    H268328   0.063   3.710  46.851  0.3071 -0.0098  0.2555
15613TIP3   OH268329   1.297   0.881  42.312  0.1377 -0.0008 -0.4549
15613TIP3    H168330   1.382   0.840  42.298 -0.1214 -0.5792 -0.3546
15613TIP3    H268331   1.293   0.952  42.248  1.0415  0.5713  0.1094
15614TIP3   OH268332   1.906   1.231  43.072  0.0851  0.1706  0.0349
15614TIP3    H168333   1.896   1.312  43.021 -0.7273 -0.4407 -0.8163
15614TIP3    H268334   1.855   1.247  43.152  0.0161  0.5394 -0.0829
15615TIP3   OH268335   0.538   2.078   1.832  0.3437 -0.6560  0.2649
15615TIP3    H168336   0.600   2.039   1.892  1.9098 -0.7087 -1.3029
15615TIP3    H268337   0.571   2.055   1.745 -0.0855  1.9511 -0.6763
15616TIP3   OH268338   2.003   0.205  43.494  0.0615  0.3681  0.3209
15616TIP3    H168339   1.990   0.214  43.400 -2.4415 -2.0743  0.3085
15616TIP3    H268340   1.926   0.246  43.533 -0.0380 -0.6070  1.1805
15617TIP3   OH268341   0.831   1.751   8.069 -0.7304 -0.6771 -0.3866
15617TIP3    H168342   0.808   1.719   7.982 -0.8600 -0.6179 -0.3753
15617TIP3    H268343   0.816   1.677   8.127 -1.0920 -0.5823 -0.3514
15618TIP3   OH268344   1.951   3.507  47.170  0.3979 -0.1759  0.0286
15618TIP3    H168345   1.914   3.420  47.184 -0.5573  0.3789  1.1849
15618TIP3    H268346   1.998   3.501  47.087  0.6943 -1.8980  0.2901
15619TIP3   OH268347   3.672   1.943  18.579 -0.0699 -0.6217 -0.0405
15619TIP3    H168348   3.619   1.985  18.510 -2.0418  0.5494  2.0543
15619TIP3    H268349   3.733   1.887  18.531 -0.3835  1.1793 -2.8019
15620TIP3   OH268350   3.561   2.295   4.984  0.4815 -0.0693  0.0388
15620TIP3    H168351   3.559   2.207   4.946  1.1882 -0.1713  0.2277
15620TIP3    H268352   3.653   2.309   5.008  0.1369  0.1902  1.2369
15621TIP3   OH268353   2.070   3.870  28.605  0.0708 -0.0683 -0.4664
15621TIP3    H168354   2.163   3.849  28.601  0.0844 -0.4396  1.0399
15621TIP3    H268355   2.048   3.863  28.698 -1.5284 -0.2707 -0.8319
15622TIP3   OH268356   1.969   0.166  38.758 -0.4175  0.2860 -0.0152
15622TIP3    H168357   2.012   0.217  38.825 -0.1146 -1.1283  0.9034
15622TIP3    H268358   2.000   0.076  38.771 -3.0705 -0.6970  0.2743
15623TIP3   OH268359   2.485   2.899   0.360  0.7146  0.1096  0.4369
15623TIP3    H168360   2.460   2.907   0.452 -1.2526  1.3692 -0.1406
15623TIP3    H268361   2.541   2.975   0.344  3.2044 -1.4546  1.1424
15624TIP3   OH268362   2.066   2.834  41.048 -0.2491 -0.4999 -0.2679
15624TIP3    H168363   2.006   2.898  41.010 -0.1153 -0.0801  0.2107
15624TIP3    H268364   2.101   2.878  41.126 -0.4206 -1.2840  0.2625
15625TIP3   OH268365   1.379   2.657  12.485  0.3501  1.1926 -0.3802
15625TIP3    H168366   1.430   2.692  12.412  1.7092  0.9803  0.4374
15625TIP3    H268367   1.440   2.600  12.532 -1.8226 -2.8579 -1.9227
15626TIP3   OH268368   1.706   3.612   8.521  0.3239  0.2256 -0.0856
15626TIP3    H168369   1.746   3.533   8.560  0.4056  0.4025  0.1964
15626TIP3    H268370   1.718   3.601   8.427 -0.4222 -0.5095 -0.1070
15627TIP3   OH268371   1.802   0.909  45.793  0.0762  0.3511 -0.2583
15627TIP3    H168372   1.770   0.929  45.705  0.3096  0.0924 -0.4049
15627TIP3    H268373   1.816   0.814  45.792 -0.5797  0.2338  0.2736
15628TIP3   OH268374   1.646   3.352  14.652  0.4114  0.1023  0.0015
15628TIP3    H168375   1.670   3.262  14.629 -0.5131 -0.8387  2.3749
15628TIP3    H268376   1.668   3.360  14.745  0.8777  2.5018 -0.2516
15629TIP3   OH268377   2.810   3.823   1.196  0.0968  0.0156  0.5849
15629TIP3    H168378   2.808   3.837   1.291  0.6809 -1.7097  0.8820
15629TIP3    H268379   2.788   3.731   1.185  0.7820  0.0015 -0.9186
15630TIP3   OH268380   2.661   3.197  46.548  0.2297  0.3187  0.0834
15630TIP3    H168381   2.644   3.112  46.587  1.3038  0.0260 -0.0416
15630TIP3    H268382   2.711   3.244  46.615 -0.3555  0.8562  0.1523
15631TIP3   OH268383   0.954   2.845  15.997  0.0892  0.1813  0.1778
15631TIP3    H168384   0.996   2.885  15.921  0.6643  0.1319  0.4696
15631TIP3    H268385   0.874   2.805  15.962  0.9472 -0.8964 -0.6260
15632TIP3   OH268386   0.720   0.265  13.967 -0.1411 -0.2398  0.0200
15632TIP3    H168387   0.658   0.245  13.897 -0.1994  0.5455 -0.1624
15632TIP3    H268388   0.729   0.182  14.015  0.9047 -1.1678 -1.6745
15633TIP3   OH268389   2.965   3.733  38.707 -0.1421 -0.0534  0.7014
15633TIP3    H168390   2.925   3.731  38.621  1.4780  2.1511 -0.1842
15633TIP3    H268391   2.952   3.822  38.738  0.0269 -0.5782  2.4136
15634TIP3   OH268392   0.428   2.432  13.400  0.3719  0.0439  0.0279
15634TIP3    H168393   0.492   2.503  13.396 -0.2195  0.8542  2.8389
15634TIP3    H268394   0.382   2.445  13.483 -0.5240 -2.9994  0.1501
15635TIP3   OH268395   0.136   3.636  27.478 -0.0825 -0.0188  0.3380
15635TIP3    H168396   0.127   3.655  27.571  0.2079 -0.0002  0.3639
15635TIP3    H268397   0.095   3.710  27.434  0.8890  0.5947  0.4401
15636TIP3   OH268398   1.580   1.494   1.351  0.5063 -0.4470  0.1509
15636TIP3    H168399   1.590   1.404   1.318  0.0855 -0.2966 -0.3958
15636TIP3    H268400   1.526   1.538   1.285  0.9724  0.2959  0.2611
15637TIP3   OH268401   1.975   1.639  40.165  0.5609 -0.1692  0.2799
15637TIP3    H168402   1.990   1.612  40.256 -0.4981 -1.1430  0.1738
15637TIP3    H268403   2.015   1.570  40.113  0.2871 -0.1114 -0.0024
15638TIP3   OH268404   3.885   0.069   5.686 -0.1669  0.2970 -0.1532
15638TIP3    H168405   3.941   0.059   5.609 -0.1460  0.3633 -0.1469
15638TIP3    H268406   3.848   0.158   5.678  0.4734  0.6146  0.3368
15639TIP3   OH268407   3.296   1.666   6.176 -0.4333 -0.5067  0.0896
15639TIP3    H168408   3.247   1.594   6.216 -1.1967 -0.1475 -0.1845
15639TIP3    H268409   3.331   1.715   6.250  1.4131 -2.0062  0.2984
15640TIP3   OH268410   1.568   1.734  35.003  0.1303  0.4769 -0.0496
15640TIP3    H168411   1.629   1.685  35.058  0.3262  0.6552 -0.1053
15640TIP3    H268412   1.577   1.825  35.031 -0.7962  0.3924  0.5956
15641TIP3   OH268413   0.720   3.765  45.485 -0.2960  0.1106  0.5119
15641TIP3    H168414   0.746   3.673  45.490 -0.6156 -0.0364 -0.3242
15641TIP3    H268415   0.793   3.807  45.440  0.9069  0.7258  2.8660
15642TIP3   OH268416   0.120   2.046   2.156  0.0476 -0.3361  0.7059
15642TIP3    H168417   0.127   2.142   2.155 -4.2720  0.1861 -0.5081
15642TIP3    H268418   0.103   2.025   2.247 -0.0345  0.1704  0.8138
15643TIP3   OH268419   2.694   3.338   5.287 -0.0051  0.2994 -0.2013
15643TIP3    H168420   2.760   3.275   5.317 -0.7263 -1.8025 -2.6423
15643TIP3    H268421   2.649   3.365   5.366  1.1779 -1.2996  1.1032
15644TIP3   OH268422   3.626   1.245   3.455 -0.5516 -0.1835  0.2507
15644TIP3    H168423   3.638   1.200   3.539 -0.2279  0.2489  0.4399
15644TIP3    H268424   3.565   1.316   3.474 -1.3909 -0.7754 -0.1382
15645TIP3   OH268425   2.224   0.264  15.041 -0.6592  0.0907  0.2097
15645TIP3    H168426   2.170   0.211  14.982 -1.5701  0.9480  0.2507
15645TIP3    H268427   2.166   0.334  15.071 -0.0622 -0.0226  1.7331
15646TIP3   OH268428   2.638   2.297   9.785  0.6038 -0.3177 -0.1039
15646TIP3    H168429   2.674   2.350   9.714  0.2713 -0.3747 -0.3161
15646TIP3    H268430   2.672   2.209   9.770 -0.2509 -0.5500 -0.7628
15647TIP3   OH268431   0.742   0.258   5.934 -0.1611 -0.6831 -0.1907
15647TIP3    H168432   0.766   0.203   5.859 -0.7708 -0.5407 -0.4930
15647TIP3    H268433   0.668   0.310   5.903  0.4995  0.4336  0.0333
15648TIP3   OH268434   0.545   0.366  11.334 -0.4252  0.0831  0.4645
15648TIP3    H168435   0.547   0.400  11.423  2.1573 -0.1640  0.5817
15648TIP3    H268436   0.571   0.274  11.344 -1.6664 -0.3882 -0.4154
15649TIP3   OH268437   0.595   1.330  42.483 -0.0182  0.2768  0.3988
15649TIP3    H168438   0.560   1.241  42.475 -2.8102  1.2927  0.2199
15649TIP3    H268439   0.638   1.346  42.399 -1.5648 -0.1244 -0.5120
15650TIP3   OH268440   0.342   3.518  14.234  0.0225  0.1784 -0.1519
15650TIP3    H168441   0.397   3.522  14.156  0.5275 -1.2173  0.1079
15650TIP3    H268442   0.288   3.440  14.222  0.6914 -0.5457  1.2446
15651TIP3   OH268443   1.162   1.522  39.279 -0.0761  0.0216  0.0964
15651TIP3    H168444   1.114   1.499  39.359 -0.5304 -0.2569 -0.2503
15651TIP3    H268445   1.247   1.480  39.289  0.8865  2.1698  1.6290
15652TIP3   OH268446   0.984   0.859  13.890  0.6047 -0.4387  0.3828
15652TIP3    H168447   0.984   0.872  13.795 -0.7582 -1.0396  0.2702
15652TIP3    H268448   0.975   0.765  13.902  0.2218 -0.3243  1.1009
15653TIP3   OH268449   2.846   2.967  36.252  0.2967  0.0236 -0.3419
15653TIP3    H168450   2.750   2.966  36.258  0.3960 -0.3110  2.1688
15653TIP3    H268451   2.871   3.051  36.291  1.0657 -0.5749  0.4969
15654TIP3   OH268452   1.963   2.392   9.127 -0.0599  0.2001  0.4223
15654TIP3    H168453   1.931   2.464   9.072 -0.3839  0.0752  0.4450
15654TIP3    H268454   2.008   2.436   9.199  0.6670  0.3563 -0.1145
15655TIP3   OH268455   3.002   0.692  42.175  0.5155 -0.3090 -0.3723
15655TIP3    H168456   3.027   0.603  42.198  1.3060 -0.8358 -2.9465
15655TIP3    H268457   2.911   0.685  42.145  0.9089 -0.4673 -1.5617
15656TIP3   OH268458   3.434   3.134  13.462  0.0847  0.6078 -0.1600
15656TIP3    H168459   3.427   3.041  13.483 -1.7868  0.6496 -0.4166
15656TIP3    H268460   3.436   3.137  13.366 -1.5917  0.8729 -0.2188
15657TIP3   OH268461   1.749   1.589  36.512 -0.2506  0.2256 -0.0247
15657TIP3    H168462   1.828   1.565  36.463  0.2563  1.8061 -0.0293
15657TIP3    H268463   1.682   1.601  36.445 -0.7432 -1.8344  0.0275
15658TIP3   OH268464   2.237   1.833  37.373 -0.0383 -0.2001  0.2190
15658TIP3    H168465   2.162   1.784  37.341  0.7582  0.4156 -2.8711
15658TIP3    H268466   2.312   1.776  37.356  0.6013  0.9175 -0.8508
15659TIP3   OH268467   3.973   2.765   2.161  0.2619  0.0983 -0.1150
15659TIP3    H168468   3.960   2.829   2.230  1.3331  0.7136 -0.4540
15659TIP3    H268469   3.937   2.683   2.196  0.5093  0.4695  1.0411
15660TIP3   OH268470   0.507   1.700  41.093  0.0190 -0.4534  0.3600
15660TIP3    H168471   0.501   1.689  41.187  3.1590  1.6348  0.9410
15660TIP3    H268472   0.437   1.763  41.072 -0.0088 -0.0922  1.4920
15661TIP3   OH268473   3.514   3.376  25.569  0.0883  0.2679  0.0532
15661TIP3    H168474   3.580   3.323  25.613  1.2496  1.8363  0.2839
15661TIP3    H268475   3.463   3.415  25.640 -0.4158 -0.0869 -0.1038
15662TIP3   OH268476   3.314   0.646   8.945  0.2657 -0.0529 -0.0701
15662TIP3    H168477   3.400   0.682   8.967  0.7778 -0.8044 -0.7697
15662TIP3    H268478   3.281   0.704   8.876  1.7407 -1.6794 -2.2759
15663TIP3   OH268479   1.484   0.280  47.465  0.4111  0.3669  0.2619
15663TIP3    H168480   1.497   0.375  47.460  1.6272  0.1360 -1.1937
15663TIP3    H268481   1.402   0.271  47.514 -0.4069  2.2049 -0.6711
15664TIP3   OH268482   2.792   3.495   6.488 -0.0266  0.3219  0.1486
15664TIP3    H168483   2.809   3.427   6.553 -0.2254 -0.5365 -0.6715
15664TIP3    H268484   2.738   3.560   6.533 -1.1913 -0.8599  0.4980
15665TIP3   OH268485   0.797   1.696  44.074 -0.2550 -0.3102 -0.1261
15665TIP3    H168486   0.744   1.738  44.142 -0.0586 -0.2858  0.0142
15665TIP3    H268487   0.874   1.752  44.065  0.3146 -0.9698  0.5067
15666TIP3   OH268488   0.047   2.685  43.700 -0.1152  0.2456 -0.3065
15666TIP3    H168489  -0.048   2.681  43.708 -0.1767 -0.1412 -1.1300
15666TIP3    H268490   0.066   2.641  43.617  0.8067  0.0142  0.0129
15667TIP3   OH268491   0.995   4.032  40.508 -0.6323  0.0492 -0.1607
15667TIP3    H168492   0.915   4.070  40.471 -1.1864 -1.2268 -0.3009
15667TIP3    H268493   0.964   3.976  40.579  0.0233 -1.3259 -0.9186
15668TIP3   OH268494   0.660   3.268   7.256 -0.2698  0.0956  0.2243
15668TIP3    H168495   0.725   3.324   7.300 -0.3870  1.1827 -0.9425
15668TIP3    H268496   0.577   3.291   7.296 -0.2996  0.6838 -0.1659
15669TIP3   OH268497   1.596   0.302  41.108  0.5165  0.0446 -0.0811
15669TIP3    H168498   1.633   0.232  41.055  0.9661  0.5708 -0.4850
15669TIP3    H268499   1.660   0.374  41.101  0.1079  0.4652  0.3815
15670TIP3   OH268500   3.023   1.177  37.866 -0.0884  0.4809 -0.4712
15670TIP3    H168501   3.060   1.179  37.778  0.2223 -0.9241 -0.4048
15670TIP3    H268502   2.971   1.096  37.868 -0.1552  0.5413  0.6019
15671TIP3   OH268503   3.378   2.508  16.162 -0.0863  0.3342  0.0609
15671TIP3    H168504   3.461   2.525  16.207 -0.1255 -0.6096  0.5289
15671TIP3    H268505   3.325   2.585  16.179  0.1183  0.2569  1.1461
15672TIP3   OH268506   1.204   3.067  35.747  0.2739 -0.0950  0.2666
15672TIP3    H168507   1.224   2.983  35.706 -0.5868 -0.2238  0.0977
15672TIP3    H268508   1.184   3.046  35.838 -3.5558 -0.6277 -0.5391
15673TIP3   OH268509   3.869   3.844  41.166 -0.3011 -0.3283 -0.5670
15673TIP3    H168510   3.811   3.912  41.132  0.0542  0.7603  0.9250
15673TIP3    H268511   3.810   3.780  41.205 -0.5614  0.0806 -0.2835
15674TIP3   OH268512   0.144   1.226   8.963 -0.1167 -0.1346  0.1779
15674TIP3    H168513   0.182   1.311   8.986 -1.4884  0.1671  1.4727
15674TIP3    H268514   0.081   1.246   8.894 -0.5229 -0.0664  0.5628
15675TIP3   OH268515   0.286   1.497   1.496  0.0990 -0.5511  0.1614
15675TIP3    H168516   0.234   1.516   1.574 -0.0510 -1.2898  0.2480
15675TIP3    H268517   0.305   1.404   1.502  1.7264 -0.2355  0.3027
15676TIP3   OH268518   2.791   2.017  22.004 -0.6139 -0.3597 -0.1575
15676TIP3    H168519   2.782   2.090  22.065 -0.9914 -0.1784 -0.4289
15676TIP3    H268520   2.799   2.058  21.918  1.8417 -0.5228 -0.0894
15677TIP3   OH268521   1.790   2.698  34.438 -0.0057  0.2931 -0.1822
15677TIP3    H168522   1.719   2.663  34.491 -0.4418 -2.2397 -2.2610
15677TIP3    H268523   1.766   2.789  34.423 -3.2994 -0.6479 -1.4836
15678TIP3   OH268524   0.066   0.027   0.011 -0.4529 -0.2867  0.5718
15678TIP3    H168525  -0.003   0.041  -0.054  0.6826  0.2986 -0.5321
15678TIP3    H268526   0.036   0.076   0.088 -0.4194  1.5226 -0.5119
15679TIP3   OH268527   1.209   2.779  39.676  0.2329 -0.7297  0.0560
15679TIP3    H168528   1.223   2.856  39.732  0.1884 -0.1884 -0.6548
15679TIP3    H268529   1.122   2.747  39.700  0.0153 -0.2154 -0.0312
15680TIP3   OH268530   1.190   2.678  40.826 -0.5125  0.7837 -0.2916
15680TIP3    H168531   1.122   2.674  40.893 -0.9119  1.3308 -0.6475
15680TIP3    H268532   1.272   2.668  40.874 -0.7397  1.9887  0.3903
15681TIP3   OH268533   0.040   1.881  42.738 -0.3998  0.1324  0.0706
15681TIP3    H168534   0.096   1.806  42.759 -0.2525  0.3671  0.5360
15681TIP3    H268535  -0.046   1.842  42.720 -0.6732 -0.0716  1.5948
15682TIP3   OH268536   3.909   0.190  41.940 -0.3345 -0.1748  0.2585
15682TIP3    H168537   3.890   0.274  41.897 -2.0283 -1.1005 -0.9039
15682TIP3    H268538   3.918   0.212  42.033  1.3021  1.5677 -0.2504
15683TIP3   OH268539   0.517   1.542  36.664 -0.1799  0.0164  0.7631
15683TIP3    H168540   0.485   1.626  36.631  1.3289 -0.1341 -1.2726
15683TIP3    H268541   0.461   1.477  36.621 -0.5084 -0.0716  1.3190
15684TIP3   OH268542   3.836   3.287  28.489  0.3673 -0.4605 -0.2238
15684TIP3    H168543   3.836   3.228  28.564  1.4608  0.0102  0.1678
15684TIP3    H268544   3.777   3.358  28.515  1.9650  0.5187  0.8907
15685TIP3   OH268545   3.003   4.101   1.296 -0.5200  0.2314 -0.1889
15685TIP3    H168546   2.984   4.023   1.348  2.5120 -0.8420 -0.5083
15685TIP3    H268547   3.041   4.067   1.215 -1.0829  2.0050 -1.2500
15686TIP3   OH268548   3.024   2.926  45.257  0.1588  0.2963  0.0049
15686TIP3    H168549   3.071   2.884  45.329  1.4437  1.1682 -0.2970
15686TIP3    H268550   3.011   2.856  45.192  1.7921  0.2051 -0.2614
15687TIP3   OH268551   2.357   1.675  12.152  0.3489  0.0908  0.1226
15687TIP3    H168552   2.262   1.675  12.167 -0.0474  0.4686 -2.0281
15687TIP3    H268553   2.376   1.764  12.122  1.7674  0.6188  2.3826
15688TIP3   OH268554   2.120   0.472  36.083 -0.3663 -0.3520 -0.3329
15688TIP3    H168555   2.042   0.526  36.085  0.1379  0.4053  1.9482
15688TIP3    H268556   2.186   0.526  36.038 -0.7121 -0.3815 -0.8846
15689TIP3   OH268557   2.991   0.061   3.983  0.0112 -0.3153  0.2904
15689TIP3    H168558   3.076   0.021   3.965 -0.0979 -0.7235  0.6567
15689TIP3    H268559   2.938  -0.011   4.019 -1.0118 -0.4771 -1.4329
15690TIP3   OH268560   0.485   0.171  27.556 -0.6592  0.7310  0.1725
15690TIP3    H168561   0.537   0.248  27.532  0.4905 -0.2943 -0.7395
15690TIP3    H268562   0.543   0.097  27.538 -1.5314 -0.3358  1.5789
15691TIP3   OH268563   1.468   3.809  43.042  0.2161 -0.4805 -0.3533
15691TIP3    H168564   1.431   3.777  42.960 -1.5466  0.6332 -0.0613
15691TIP3    H268565   1.519   3.886  43.017 -1.3666  0.6379 -0.3439
15692TIP3   OH268566   3.170   1.885  47.722  0.2829 -0.1933  0.0103
15692TIP3    H168567   3.132   1.972  47.729  0.3148  0.1927 -3.2047
15692TIP3    H268568   3.263   1.898  47.738  0.2440  0.3033 -0.1527
15693TIP3   OH268569   1.919   2.835  33.583  0.2919  0.8411  0.0215
15693TIP3    H168570   1.988   2.895  33.611 -0.1394  1.5521 -0.3962
15693TIP3    H268571   1.843   2.891  33.570 -0.1635  0.1764 -0.2461
15694TIP3   OH268572   3.865   1.215   6.261 -0.3638 -0.5304 -0.3260
15694TIP3    H168573   3.803   1.255   6.322 -0.4753  2.3404 -2.1210
15694TIP3    H268574   3.945   1.202   6.313 -0.5488  1.5038  0.5775
15695TIP3   OH268575   2.826   3.552  12.320  0.0005 -0.5087  0.1994
15695TIP3    H168576   2.809   3.478  12.262 -0.2169  0.7145 -1.3764
15695TIP3    H268577   2.901   3.597  12.280 -0.3984  0.5818  0.6542
15696TIP3   OH268578   3.126   4.059   1.555  0.3036  0.4101  0.2997
15696TIP3    H168579   3.171   4.123   1.500  0.7042  0.1824  0.3558
15696TIP3    H268580   3.163   4.072   1.642 -1.2283  1.6302  0.8207
15697TIP3   OH268581   1.136   0.072  13.468 -0.3416 -0.2179  0.0686
15697TIP3    H168582   1.051   0.060  13.512 -0.1490 -0.7200  0.3135
15697TIP3    H268583   1.188   0.124  13.530  0.0923 -1.3234  0.6740
15698TIP3   OH268584   1.599   1.936  43.017  0.1073 -0.3882 -0.4778
15698TIP3    H168585   1.526   1.994  42.995  0.7333  0.3796 -0.5913
15698TIP3    H268586   1.568   1.886  43.093 -0.1568  0.6959  0.1574
15699TIP3   OH268587   0.947   1.835  16.887 -0.6243 -0.0199  0.0283
15699TIP3    H168588   0.870   1.782  16.909  1.2257 -1.6530  3.2467
15699TIP3    H268589   0.915   1.925  16.887 -3.0638 -0.7703 -1.7787
15700TIP3   OH268590   2.435   0.683  13.089  0.6254 -0.0085  0.0642
15700TIP3    H168591   2.436   0.590  13.113 -0.8119 -0.1700 -0.3939
15700TIP3    H268592   2.480   0.727  13.161  1.0920 -1.0263  0.4161
15701TIP3   OH268593   2.575   2.596  35.873 -0.1831  0.0338  0.8641
15701TIP3    H168594   2.538   2.684  35.877 -1.1128 -0.3856  1.9155
15701TIP3    H268595   2.669   2.609  35.888 -0.1999  0.9097  0.2571
15702TIP3   OH268596   2.503   3.348  29.318 -0.1214  0.2445 -0.0179
15702TIP3    H168597   2.527   3.278  29.379  2.6152  0.1358 -1.0621
15702TIP3    H268598   2.529   3.429  29.362  0.7553  0.2435 -0.4938
15703TIP3   OH268599   0.714   1.871  42.693 -0.0031  0.4090 -0.5761
15703TIP3    H168600   0.672   1.788  42.714  1.3602 -0.1738 -0.0177
15703TIP3    H268601   0.737   1.864  42.601  1.6302 -0.5768 -0.1361
15704TIP3   OH268602   1.326   1.610  41.643  0.2151 -0.3150  0.3715
15704TIP3    H168603   1.260   1.619  41.574  1.3070  1.7615 -0.4616
15704TIP3    H268604   1.295   1.666  41.713  1.1161  0.7599 -0.0692
15705TIP3   OH268605   0.668   0.278  10.251 -0.6013  0.2224  0.8531
15705TIP3    H168606   0.610   0.298  10.178  1.3531  2.0773 -0.3051
15705TIP3    H268607   0.642   0.190  10.279 -1.1819 -0.7653 -2.3611
15706TIP3   OH268608   1.959   1.284   6.696 -0.0484 -0.3253 -0.5527
15706TIP3    H168609   2.028   1.232   6.655 -0.5875 -2.0422  0.5491
15706TIP3    H268610   1.883   1.274   6.638 -0.2063 -0.9890 -0.2496
15707TIP3   OH268611   1.215   0.768  40.885 -0.4486  0.1069 -0.1376
15707TIP3    H168612   1.221   0.792  40.792  0.1925 -1.5706 -0.5661
15707TIP3    H268613   1.121   0.756  40.900 -0.4956 -0.6800 -0.9002
15708TIP3   OH268614   2.626   3.359   4.325  0.7790  0.2164  0.0744
15708TIP3    H168615   2.704   3.303   4.331  0.5884 -0.0459  0.0984
15708TIP3    H268616   2.580   3.344   4.408  0.0850 -0.5410 -0.4298
15709TIP3   OH268617   0.033   3.754  12.369  0.2374 -0.6007 -0.0848
15709TIP3    H168618   0.075   3.670  12.388 -3.4954 -3.0826 -1.7621
15709TIP3    H268619   0.077   3.785  12.290  1.0640 -1.4408  0.0242
15710TIP3   OH268620   2.592   0.903  36.055 -0.1769  0.4729 -0.4304
15710TIP3    H168621   2.645   0.826  36.078 -1.3891  0.1596  1.5457
15710TIP3    H268622   2.654   0.976  36.055  0.5419 -0.1191  0.2654
15711TIP3   OH268623   3.312   2.492  34.004  0.1522  0.0527 -0.3990
15711TIP3    H168624   3.242   2.427  34.015  0.5186 -0.0434  1.7103
15711TIP3    H268625   3.272   2.574  34.033  0.5358  0.2542 -0.4405
15712TIP3   OH268626   3.958   0.039   3.405 -0.5624  0.2546  0.0682
15712TIP3    H168627   4.044  -0.005   3.409  0.1735  1.6054 -0.4214
15712TIP3    H268628   3.896  -0.030   3.428  0.6545 -0.7477  0.5199
15713TIP3   OH268629   4.072   0.845  44.843  0.3456  0.6021  0.3627
15713TIP3    H168630   4.137   0.817  44.908  0.0771  0.8383  0.7389
15713TIP3    H268631   4.121   0.901  44.784  0.7452 -0.1526 -0.0342
15714TIP3   OH268632   1.565   1.474  41.826  0.2295 -0.3572  0.2087
15714TIP3    H168633   1.584   1.563  41.857 -0.7846 -0.3383  0.8426
15714TIP3    H268634   1.485   1.450  41.873 -0.2583 -1.0919 -0.9645
15715TIP3   OH268635   1.461   3.486  42.625  0.0514  0.2772 -0.3091
15715TIP3    H168636   1.474   3.422  42.556 -0.9407  0.0137 -0.2612
15715TIP3    H268637   1.440   3.568  42.579 -0.4827  0.1324 -0.3222
15716TIP3   OH268638   4.001   1.939  38.292 -0.1996 -0.0838  0.0964
15716TIP3    H168639   4.086   1.953  38.334 -0.0004  0.5519 -0.4934
15716TIP3    H268640   3.948   1.894  38.357  1.3178 -2.6339 -0.3011
15717TIP3   OH268641   2.532   1.266  46.767 -0.0771 -0.2854  0.1811
15717TIP3    H168642   2.505   1.194  46.710  1.1731 -1.0742  0.5518
15717TIP3    H268643   2.471   1.337  46.746 -3.7428 -2.4922  2.3389
15718TIP3   OH268644   2.365   0.427   5.298  0.6446 -0.1333  0.1120
15718TIP3    H168645   2.372   0.344   5.249 -0.0037 -0.0698 -0.0969
15718TIP3    H268646   2.444   0.429   5.352  1.0355 -0.5372 -0.4219
15719TIP3   OH268647   0.320   1.923  36.088 -0.0270  0.1529  0.7485
15719TIP3    H168648   0.373   1.850  36.120  0.8696 -0.3354 -1.6236
15719TIP3    H268649   0.278   1.889  36.009  1.4485  2.5456 -1.1928
15720TIP3   OH268650   2.307   0.728  14.565  0.9664 -0.3554 -0.1857
15720TIP3    H168651   2.264   0.686  14.490 -1.0594  1.9286 -0.4325
15720TIP3    H268652   2.334   0.813  14.531  2.2426 -0.2441  1.0587
15721TIP3   OH268653   1.603   3.061  31.405 -0.1640  0.5302 -0.5669
15721TIP3    H168654   1.594   2.992  31.471 -1.9399  0.6893 -0.5999
15721TIP3    H268655   1.618   3.015  31.323  1.3328  0.3067 -0.1969
15722TIP3   OH268656   3.066   3.578  34.757 -0.3792 -0.4870 -0.1076
15722TIP3    H168657   3.133   3.541  34.814 -0.1174  0.1595  0.0117
15722TIP3    H268658   3.115   3.618  34.685 -0.4419  2.2325  1.2579
15723TIP3   OH268659   0.424   0.799  30.984  0.1828  0.3429 -0.1842
15723TIP3    H168660   0.406   0.827  30.895 -1.3125  1.6162  0.4633
15723TIP3    H268661   0.349   0.744  31.008  0.3591  0.3467  0.4061
15724TIP3   OH268662   2.995   3.935  37.794  0.3406 -0.2742 -0.3980
15724TIP3    H168663   3.038   3.965  37.714 -1.3796  0.3479 -1.1391
15724TIP3    H268664   2.977   3.843  37.778  0.4147 -0.2651 -0.5407
15725TIP3   OH268665   2.158   2.664  15.568 -0.8132  0.2232  0.5170
15725TIP3    H168666   2.167   2.749  15.610 -0.8125  1.3941 -1.6998
15725TIP3    H268667   2.063   2.649  15.565 -0.8791  0.7330 -0.1553
15726TIP3   OH268668   2.536   1.779   3.000 -0.4348  0.0557  0.4199
15726TIP3    H168669   2.600   1.792   2.931 -0.7343  1.4478  0.3742
15726TIP3    H268670   2.451   1.785   2.956 -0.6268  0.8871  0.8855
15727TIP3   OH268671   2.362   2.416  13.853 -0.1067  0.4079  0.4492
15727TIP3    H168672   2.270   2.435  13.870  0.2742  1.6175  1.2961
15727TIP3    H268673   2.406   2.500  13.860  1.1266 -0.2055  0.4278
15728TIP3   OH268674   2.940   3.879   8.729 -0.0239  0.2502  0.2548
15728TIP3    H168675   2.941   3.831   8.646  0.6190 -1.4810  1.1974
15728TIP3    H268676   3.032   3.899   8.745 -0.2497  1.4756  0.0801
15729TIP3   OH268677   0.009   2.787  12.253  0.1708 -0.3056 -0.2665
15729TIP3    H168678  -0.051   2.720  12.221 -2.0999  1.4540  0.0894
15729TIP3    H268679  -0.014   2.800  12.345 -0.1368  1.5941 -0.5570
15730TIP3   OH268680   3.423   1.297  32.931 -0.0114 -0.0465  0.1905
15730TIP3    H168681   3.401   1.384  32.963 -0.0540  1.1034 -2.6990
15730TIP3    H268682   3.474   1.257  33.002  0.3247  2.4492  1.4375
15731TIP3   OH268683   2.745   3.909  41.693  0.0201  0.4785  0.1554
15731TIP3    H168684   2.799   3.986  41.712 -0.5079  1.0552 -0.5995
15731TIP3    H268685   2.807   3.841  41.668  0.4555  0.8591  0.1854
15732TIP3   OH268686   1.020   2.684  15.379 -0.6375  0.2257 -0.5012
15732TIP3    H168687   1.085   2.622  15.413  1.1679  1.6259 -1.1741
15732TIP3    H268688   1.020   2.669  15.285 -1.7628 -0.1419 -0.4560
15733TIP3   OH268689   3.318   0.524  12.190  0.4030  0.5817 -0.4610
15733TIP3    H168690   3.256   0.587  12.228 -0.0160 -0.6460  0.9801
15733TIP3    H268691   3.402   0.544  12.231  0.1466 -0.1337  0.4585
15734TIP3   OH268692   3.297   0.776  47.366 -0.5321  0.3635 -0.7429
15734TIP3    H168693   3.205   0.803  47.373  0.1283  2.6428  0.0173
15734TIP3    H268694   3.346   0.856  47.386  1.6225 -0.7492 -1.4033
15735TIP3   OH268695   1.981   1.639  47.391  0.1135 -0.5646 -0.2757
15735TIP3    H168696   1.968   1.623  47.484  0.2399  1.4550  0.1201
15735TIP3    H268697   1.893   1.650  47.355  0.1052 -0.4401 -0.2169
15736TIP3   OH268698   1.197   0.644  26.354 -0.2519 -0.1603  0.0906
15736TIP3    H168699   1.205   0.555  26.319 -0.3993 -0.5558  1.0373
15736TIP3    H268700   1.108   0.670  26.334 -0.0811 -0.0627 -0.5583
15737TIP3   OH268701   3.504   1.281  43.005  0.1243  0.2627  0.2196
15737TIP3    H168702   3.586   1.232  43.005  1.4451  2.3938  1.1544
15737TIP3    H268703   3.458   1.250  43.083  0.3767 -0.3620  0.1272
15738TIP3   OH268704   1.274   0.334  28.337 -0.4639  0.2231 -0.1444
15738TIP3    H168705   1.306   0.416  28.300  0.6305  0.1734  0.6447
15738TIP3    H268706   1.186   0.324  28.301 -1.3152  2.6039  1.0172
15739TIP3   OH268707   1.806   1.462  13.331  0.0807 -0.4121 -0.1498
15739TIP3    H168708   1.794   1.526  13.262 -0.2163 -0.7171 -0.3864
15739TIP3    H268709   1.807   1.377  13.286  0.1105 -0.5986  0.1926
15740TIP3   OH268710   2.400   0.497   9.572 -0.6523  0.1866  0.0037
15740TIP3    H168711   2.386   0.527   9.482  0.3308  0.0707 -0.1930
15740TIP3    H268712   2.345   0.420   9.581  1.3974 -1.5580 -1.4553
15741TIP3   OH268713   4.045   2.820   4.442  0.4651  0.1663  0.0183
15741TIP3    H168714   4.138   2.807   4.424  0.2850  0.9440 -1.6459
15741TIP3    H268715   4.000   2.778   4.369 -0.4350  1.1468 -0.0188
15742TIP3   OH268716   1.954   3.201  47.462 -0.2503  0.4313 -0.3211
15742TIP3    H168717   1.915   3.128  47.510 -0.4527 -0.0014 -1.1269
15742TIP3    H268718   1.942   3.277  47.520 -0.0298 -0.1650  0.5276
15743TIP3   OH268719   2.040   0.483   3.820  0.0384 -0.1924 -0.3935
15743TIP3    H168720   2.134   0.478   3.836  0.0625 -2.0720 -0.8706
15743TIP3    H268721   2.000   0.486   3.907  0.4536 -2.2381 -0.1020
15744TIP3   OH268722   2.596   2.482   0.985  0.3091  0.2388  0.1132
15744TIP3    H168723   2.545   2.562   0.974 -0.8286 -0.8166 -3.7403
15744TIP3    H268724   2.535   2.411   0.966  1.9551 -1.4259  0.6932
15745TIP3   OH268725   4.065   2.781  42.552 -0.5752  0.4761 -0.0164
15745TIP3    H168726   4.138   2.726  42.580 -0.0973  2.0932  2.0976
15745TIP3    H268727   4.106   2.852  42.503 -0.8502  0.7662  0.1746
15746TIP3   OH268728   2.532   0.753  40.650  0.6557  0.1627 -0.0608
15746TIP3    H168729   2.466   0.782  40.587  1.0551 -0.7501 -0.9238
15746TIP3    H268730   2.527   0.817  40.721 -0.4614  0.6719 -0.5749
15747TIP3   OH268731   1.354   2.415  36.471  0.2365  0.4490 -0.0162
15747TIP3    H168732   1.429   2.406  36.412  0.5721 -0.6543  0.5451
15747TIP3    H268733   1.387   2.468  36.544 -0.2840  2.1311 -0.9428
15748TIP3   OH268734   2.497   0.263  14.420  0.3498  0.1837  0.1029
15748TIP3    H168735   2.547   0.344  14.410  1.4132 -0.5746 -1.0911
15748TIP3    H268736   2.441   0.278  14.496  1.7552  1.4144  0.9496
15749TIP3   OH268737   4.081   1.112  43.614 -0.1954  0.1180  0.1749
15749TIP3    H168738   4.085   1.208  43.620 -2.9906  0.2161  2.1854
15749TIP3    H268739   3.988   1.092  43.611  0.2179 -2.6414  2.1762
15750TIP3   OH268740   1.948   0.470  31.061 -0.2277  0.0366 -0.1809
15750TIP3    H168741   2.035   0.445  31.093 -0.1147  2.0354  1.2715
15750TIP3    H268742   1.888   0.445  31.131 -1.2111 -3.2129 -2.0054
15751TIP3   OH268743   1.393   2.861   9.424  0.2734  0.4008 -0.8645
15751TIP3    H168744   1.421   2.950   9.406 -0.2803  0.4792 -1.3751
15751TIP3    H268745   1.398   2.816   9.339 -1.4004  0.5030 -1.0460
15752TIP3   OH268746   2.904   3.499  36.741 -0.0178  0.6773 -0.3269
15752TIP3    H168747   2.878   3.578  36.692  2.6069  2.1230  0.4183
15752TIP3    H268748   2.988   3.475  36.704  0.2099 -0.5162  0.9011
15753TIP3   OH268749   3.202   2.064  13.940  0.2559 -0.3630  0.0824
15753TIP3    H168750   3.156   2.037  13.860  0.2012  0.1366 -0.0592
15753TIP3    H268751   3.183   2.157  13.948  2.2817  0.1755 -0.6914
15754TIP3   OH268752   2.774   1.969   1.395  0.3280  0.6920 -0.2330
15754TIP3    H168753   2.710   1.978   1.465  1.7978  0.8547  1.1423
15754TIP3    H268754   2.733   2.011   1.319 -1.0322  1.0873  0.6929
15755TIP3   OH268755   0.447   3.960  12.434  0.6598 -0.4375 -0.4298
15755TIP3    H168756   0.437   3.868  12.409  0.4306 -0.4335 -0.3485
15755TIP3    H268757   0.533   3.964  12.476  0.4102 -0.7321  0.1139
15756TIP3   OH268758   0.613   2.736   6.008 -0.0675  0.2566 -0.6531
15756TIP3    H168759   0.600   2.746   6.102  2.1485  2.6722 -0.4720
15756TIP3    H268760   0.526   2.722   5.972 -1.0155 -0.2256  1.6899
15757TIP3   OH268761   0.284   0.117  24.475 -0.1780 -1.2363 -0.0970
15757TIP3    H168762   0.349   0.083  24.537  0.1657 -1.6579 -0.6885
15757TIP3    H268763   0.217   0.049  24.472 -0.4424 -0.9916  0.1878
15758TIP3   OH268764   0.465   0.155  27.855  0.1517 -0.1054  0.1072
15758TIP3    H168765   0.462   0.192  27.943  2.3005 -1.4155  0.7945
15758TIP3    H268766   0.375   0.127  27.838 -0.6751  1.7854  1.1286
15759TIP3   OH268767   1.684   2.420  35.290 -0.2668  0.2412  0.0415
15759TIP3    H168768   1.664   2.384  35.376 -0.0934  2.2542  0.9975
15759TIP3    H268769   1.759   2.478  35.306  0.0576  0.2921 -1.5623
15760TIP3   OH268770   1.209   2.933  43.689  0.4336 -0.4672 -0.4907
15760TIP3    H168771   1.153   3.008  43.671 -0.2268 -0.7172  0.4585
15760TIP3    H268772   1.260   2.921  43.609 -0.1181  0.4158 -0.9847
15761TIP3   OH268773   0.506   3.676  43.551  0.2205 -0.7042  0.4035
15761TIP3    H168774   0.487   3.632  43.468 -0.6534  0.1035  0.1525
15761TIP3    H268775   0.476   3.615  43.618 -2.1130 -0.0521  0.0400
15762TIP3   OH268776   2.454   2.413  45.267 -0.1941  0.2866 -0.0079
15762TIP3    H168777   2.419   2.482  45.323 -2.0647 -0.2402 -0.4752
15762TIP3    H268778   2.432   2.440  45.178  0.0015 -0.4012 -0.2749
15763TIP3   OH268779   4.092   2.603   5.469  0.2526  0.1367  0.4083
15763TIP3    H168780   4.162   2.643   5.519 -0.4413  1.3491  0.4645
15763TIP3    H268781   4.129   2.588   5.382  0.1763  2.1364 -0.0073
15764TIP3   OH268782   2.312   1.230  35.183 -0.0829 -0.3998  0.2263
15764TIP3    H168783   2.257   1.193  35.251 -0.6906 -1.1263 -0.6352
15764TIP3    H268784   2.290   1.323  35.181  0.9716 -0.0741  1.9508
15765TIP3   OH268785   3.609   1.770   1.973  0.0986 -0.1223  0.1230
15765TIP3    H168786   3.534   1.714   1.995 -2.5362  1.5090 -3.6767
15765TIP3    H268787   3.586   1.856   2.008  1.1900 -0.0074  0.5939
15766TIP3   OH268788   1.982   2.568   6.589  0.1374 -0.3742  0.2131
15766TIP3    H168789   2.026   2.651   6.573 -1.0014  0.1483 -0.2576
15766TIP3    H268790   2.052   2.509   6.618  1.2551  0.2626 -1.1099
15767TIP3   OH268791   0.504   1.005   2.151  0.1861  0.1784  0.0489
15767TIP3    H168792   0.421   1.019   2.196  0.3936 -0.8478  0.7912
15767TIP3    H268793   0.541   1.093   2.141 -0.8402  0.6166 -0.0224
15768TIP3   OH268794   3.170   2.896  43.368  0.3098 -0.2076 -0.1069
15768TIP3    H168795   3.081   2.861  43.373  0.0720  0.0912 -1.6370
15768TIP3    H268796   3.198   2.905  43.459 -1.6074  0.6737  0.4445
15769TIP3   OH268797   0.701   3.993  34.021 -0.5068 -0.4620 -0.1198
15769TIP3    H168798   0.711   3.898  34.013 -2.0912 -0.6040 -0.8404
15769TIP3    H268799   0.638   4.016  33.953 -1.6934  0.8084  1.3360
15770TIP3   OH268800   4.056   2.497  19.875 -0.3440  0.2448  0.5039
15770TIP3    H168801   4.047   2.405  19.898 -0.7156  0.2366  0.3419
15770TIP3    H268802   4.055   2.498  19.779 -1.1909  0.4908  0.5072
15771TIP3   OH268803   1.379   4.003  34.063 -0.3373  0.3991  0.1816
15771TIP3    H168804   1.321   3.991  34.138 -0.4200  0.3513  0.1096
15771TIP3    H268805   1.466   4.014  34.102 -0.3769  0.3513  0.2846
15772TIP3   OH268806   0.882   1.155  42.517 -0.4560 -0.1474 -0.6027
15772TIP3    H168807   0.910   1.246  42.509  2.1944 -0.8953 -0.5845
15772TIP3    H268808   0.867   1.127  42.427  1.9930 -0.5836 -0.9325
15773TIP3   OH268809   0.768   0.888  44.682 -0.0902 -0.5777 -0.1628
15773TIP3    H168810   0.816   0.944  44.621 -0.2804 -0.1912  0.0455
15773TIP3    H268811   0.695   0.941  44.712  0.4209 -0.5087  0.9853
15774TIP3   OH268812   3.665   2.173  34.257 -0.0772 -0.9382 -0.5445
15774TIP3    H168813   3.733   2.168  34.189  2.4220  0.5720  1.6675
15774TIP3    H268814   3.643   2.266  34.263 -0.9850 -1.1763  0.0780
15775TIP3   OH268815   0.646   1.211  31.556 -0.0896  0.1063  0.0464
15775TIP3    H168816   0.582   1.263  31.604 -1.0939 -1.7051  0.7601
15775TIP3    H268817   0.725   1.265  31.555 -0.8478  1.3156  1.3920
15776TIP3   OH268818   0.606   0.633   7.074  0.2898 -0.1242  0.1524
15776TIP3    H168819   0.513   0.649   7.056  0.2728 -1.3788 -1.0485
15776TIP3    H268820   0.621   0.543   7.043  1.8053 -0.0952  0.7269
15777TIP3   OH268821   2.721   0.426  13.381 -0.3250  0.1056  0.6904
15777TIP3    H168822   2.722   0.504  13.325  0.7543  1.1772  2.1357
15777TIP3    H268823   2.645   0.439  13.438 -1.1483 -0.7588 -0.1703
15778TIP3   OH268824   1.223   4.092  37.401  0.3192  0.5273 -0.8589
15778TIP3    H168825   1.206   4.138  37.319  1.7360 -0.2383 -1.6024
15778TIP3    H268826   1.308   4.124  37.430  0.6808 -0.5668 -0.6586
15779TIP3   OH268827   3.559   3.892  44.403  0.1720 -0.2612  0.1180
15779TIP3    H168828   3.513   3.885  44.319 -1.4737  2.1196  0.7235
15779TIP3    H268829   3.489   3.892  44.468  1.1813  0.9533  1.2487
15780TIP3   OH268830   3.425   2.187  33.557 -0.4760  0.0483  0.1468
15780TIP3    H168831   3.335   2.219  33.550 -0.7502 -0.4092  1.2972
15780TIP3    H268832   3.449   2.206  33.648  0.8447  0.7917 -0.3269
15781TIP3   OH268833   2.300   0.314  14.112 -0.1753  0.8370 -0.5951
15781TIP3    H168834   2.353   0.389  14.139  1.6341 -0.7817  0.5752
15781TIP3    H268835   2.242   0.297  14.186  0.8863 -0.1885  0.0120
15782TIP3   OH268836   2.044   2.611  12.587 -0.1007  0.2963  0.5434
15782TIP3    H168837   1.968   2.618  12.529 -0.9143  0.2683  1.5788
15782TIP3    H268838   2.074   2.701  12.599 -0.7259  0.4350  1.1038
15783TIP3   OH268839   0.105   0.587  32.541  0.0289 -0.3792  0.1431
15783TIP3    H168840   0.051   0.511  32.562 -1.4354  0.6174  0.1385
15783TIP3    H268841   0.101   0.595  32.446 -1.6158  0.9224  0.2799
15784TIP3   OH268842   1.064   1.974  15.564 -0.4445  0.1124  0.1281
15784TIP3    H168843   1.097   1.976  15.653  0.1801  0.0450 -0.1025
15784TIP3    H268844   1.140   1.952  15.510 -1.0524 -1.0939 -0.2968
15785TIP3   OH268845   4.088   3.803  35.470  0.1167  0.4959  0.5158
15785TIP3    H168846   4.167   3.851  35.447  0.5002  0.4424  1.6421
15785TIP3    H268847   4.110   3.757  35.551 -0.6984 -0.4547  0.2280
15786TIP3   OH268848   1.119   0.736  45.487 -0.0436  0.5222  0.7778
15786TIP3    H168849   1.197   0.681  45.482 -1.1837 -1.2050  0.9300
15786TIP3    H268850   1.115   0.780  45.402  1.0883  0.6314  0.7732
15787TIP3   OH268851   3.792   3.638  10.432 -0.2982  0.5512  0.0831
15787TIP3    H168852   3.794   3.674  10.520 -0.0710 -0.1565  0.3717
15787TIP3    H268853   3.722   3.686  10.388 -2.2299 -0.8460  1.4286
15788TIP3   OH268854   3.263   2.457  39.085 -0.4900  0.6467  0.0450
15788TIP3    H168855   3.266   2.444  39.180  1.4911 -4.9810 -0.4160
15788TIP3    H268856   3.343   2.505  39.065 -1.3864  2.7381  1.1278
15789TIP3   OH268857   1.699   3.723  42.687 -0.3478 -0.4202  0.3071
15789TIP3    H168858   1.771   3.765  42.734 -1.3592 -2.6005  4.2413
15789TIP3    H268859   1.725   3.631  42.680 -0.5307 -0.3617 -3.1957
15790TIP3   OH268860   1.668   3.708  33.077  0.0708 -0.7673  0.1706
15790TIP3    H168861   1.644   3.796  33.047  0.8575 -0.9873 -1.1725
15790TIP3    H268862   1.669   3.716  33.173 -1.5126  0.2279  0.1521
15791TIP3   OH268863   0.818   0.585   2.902 -0.8133 -0.5868  0.1270
15791TIP3    H168864   0.837   0.611   2.992  0.8658 -0.0038 -0.3432
15791TIP3    H268865   0.846   0.494   2.896 -1.2334 -0.7263  0.2758
15792TIP3   OH268866   1.808   1.705  35.999  0.4659 -0.1834  0.2630
15792TIP3    H168867   1.746   1.728  36.068  1.3116  1.2121  0.5902
15792TIP3    H268868   1.769   1.741  35.919 -0.6878 -2.1062 -0.0956
15793TIP3   OH268869   0.519   3.236   1.603 -0.1225  0.0490 -0.6100
15793TIP3    H168870   0.444   3.182   1.631  0.2232 -0.0065  0.2535
15793TIP3    H268871   0.595   3.179   1.614  0.3211  0.8732  0.9158
15794TIP3   OH268872   0.020   3.737  39.108  0.5462 -0.0221 -0.0961
15794TIP3    H168873   0.103   3.698  39.082  0.4019  0.7640 -1.8402
15794TIP3    H268874   0.021   3.824  39.068 -1.1588 -0.0356 -0.2285
15795TIP3   OH268875   1.341   3.468  12.579 -0.4368  0.0153 -0.2124
15795TIP3    H168876   1.332   3.473  12.484 -2.8391 -1.3568 -0.1555
15795TIP3    H268877   1.353   3.375  12.598  0.4220  0.3117  0.8168
15796TIP3   OH268878   1.061   1.627   2.605 -0.2137  0.0136 -0.6108
15796TIP3    H168879   1.129   1.574   2.646 -0.8677 -1.2132 -1.0377
15796TIP3    H268880   1.017   1.566   2.545 -2.4067  0.4537  0.4656
15797TIP3   OH268881   2.347   1.864  34.743  0.1929  0.2929  0.1891
15797TIP3    H168882   2.315   1.817  34.665  1.8469  0.7605 -0.8450
15797TIP3    H268883   2.275   1.860  34.805 -1.0615 -0.4302 -1.2334
15798TIP3   OH268884   2.136   1.680  12.810 -0.0071 -0.2859  0.2428
15798TIP3    H168885   2.180   1.664  12.894 -0.5527  1.8154  1.0053
15798TIP3    H268886   2.075   1.751  12.829 -1.0775 -0.6367 -1.6629
15799TIP3   OH268887   0.598   2.234  12.771  0.6056  0.1504 -0.4512
15799TIP3    H168888   0.641   2.268  12.850 -0.5530 -0.3473  0.4353
15799TIP3    H268889   0.668   2.191  12.722  1.2336 -0.1302  0.6526
15800TIP3   OH268890   2.088   0.347  38.939  0.4994  0.2121  0.0638
15800TIP3    H168891   2.000   0.384  38.944 -0.4795 -2.0144  1.0276
15800TIP3    H268892   2.129   0.370  39.023  0.5018  0.5321 -0.0266
15801TIP3   OH268893   1.613   0.698  10.747 -0.0071 -0.2030 -0.8451
15801TIP3    H168894   1.622   0.621  10.690  2.2886 -0.0938 -0.7277
15801TIP3    H268895   1.556   0.668  10.818  1.9140 -2.3225 -0.0655
15802TIP3   OH268896   3.349   0.194  30.730  0.2964 -0.6872 -0.1047
15802TIP3    H168897   3.436   0.166  30.761  0.7358  2.2902  1.8617
15802TIP3    H268898   3.366   0.239  30.648  1.1192  1.8460  1.3321
15803TIP3   OH268899   0.285   2.397   3.643  0.0381  0.1795  0.1558
15803TIP3    H168900   0.288   2.311   3.601  0.3756  0.1477  0.2426
15803TIP3    H268901   0.316   2.457   3.576 -2.0062  0.5147 -0.5739
15804TIP3   OH268902   1.643   0.252  25.055 -0.1481  0.4596 -0.0919
15804TIP3    H168903   1.585   0.221  25.126  0.0911  0.1242 -0.0448
15804TIP3    H268904   1.695   0.321  25.096 -2.6620  3.0205 -0.9181
15805TIP3   OH268905   0.555   1.448   7.223 -0.3965 -0.3280 -0.1946
15805TIP3    H168906   0.503   1.505   7.279 -0.1895  0.8118 -1.1122
15805TIP3    H268907   0.644   1.456   7.256 -0.5172 -0.9359  0.3047
15806TIP3   OH268908   2.005   0.887  43.404  0.4200  0.1695 -0.0363
15806TIP3    H168909   1.972   0.953  43.465 -1.4814 -0.2234 -0.5421
15806TIP3    H268910   2.097   0.876  43.426  0.2647  1.4974  1.4008
15807TIP3   OH268911   2.148   3.238   0.799  0.0575 -0.1849 -0.3213
15807TIP3    H168912   2.061   3.206   0.774  0.7498 -3.6492  1.1910
15807TIP3    H268913   2.131   3.322   0.842 -2.5649 -0.8129  0.0555
15808TIP3   OH268914   3.342   1.377  12.595  0.4956 -0.1873  0.2330
15808TIP3    H168915   3.385   1.361  12.511 -2.0477 -0.4653 -1.0907
15808TIP3    H268916   3.349   1.294  12.642 -0.0669 -0.7601 -0.6688
15809TIP3   OH268917   1.822   0.923  47.348 -0.1868 -0.1846 -0.4174
15809TIP3    H168918   1.787   1.004  47.385 -0.7073  0.5272 -2.3633
15809TIP3    H268919   1.901   0.906  47.399 -0.1488  1.4706  0.1443
15810TIP3   OH268920   1.995   3.101   0.636  0.4881 -0.3562  0.3039
15810TIP3    H168921   1.933   3.041   0.678 -0.1074  0.7269  1.0361
15810TIP3    H268922   2.080   3.060   0.650  0.0970 -1.0401  0.7792
15811TIP3   OH268923   0.659   0.752  25.101  0.1541  0.1475 -0.2614
15811TIP3    H168924   0.742   0.705  25.096 -0.2285 -0.5984  0.2992
15811TIP3    H268925   0.683   0.838  25.136  0.7778  0.1819 -0.7516
15812TIP3   OH268926   1.502   3.135  35.293  0.1617  0.0787 -0.5218
15812TIP3    H168927   1.471   3.193  35.224  1.0462  1.1200 -0.0786
15812TIP3    H268928   1.595   3.155  35.301  0.0493  0.0673  1.0556
15813TIP3   OH268929   1.756   3.191   0.917 -1.0715 -0.5033  0.1984
15813TIP3    H168930   1.706   3.180   0.837  2.0564 -1.7634 -1.7860
15813TIP3    H268931   1.786   3.282   0.916 -1.5743 -0.3376  0.2916
15814TIP3   OH268932   2.055   3.616  42.571  0.0896 -0.7430  0.1114
15814TIP3    H168933   2.098   3.536  42.542  0.0125 -0.2483 -1.4607
15814TIP3    H268934   1.991   3.635  42.503  1.1027  1.4434 -0.3155
15815TIP3   OH268935   3.512   3.029  36.985  0.0935  0.1675  0.0723
15815TIP3    H168936   3.431   2.992  37.020  1.5624 -1.1334  2.4066
15815TIP3    H268937   3.491   3.120  36.966 -1.5702  0.2452  1.9707
15816TIP3   OH268938   1.367   1.683  45.751 -0.4519 -0.6003 -0.0619
15816TIP3    H168939   1.356   1.742  45.825  0.0576  1.2967 -1.4243
15816TIP3    H268940   1.460   1.688  45.730 -0.6755 -0.7376 -1.1211
15817TIP3   OH268941   0.951   2.839  46.337  0.2445  0.4563 -0.3398
15817TIP3    H168942   1.013   2.886  46.282 -0.0491  0.5039 -0.6306
15817TIP3    H268943   0.970   2.746  46.323  0.8905  0.4820  0.3071
15818TIP3   OH268944   0.021   0.187   3.738 -0.3217  0.1786  0.1421
15818TIP3    H168945   0.075   0.232   3.802  1.0266  0.9967 -1.4963
15818TIP3    H268946  -0.068   0.218   3.756  0.2282  1.5179  0.6775
15819TIP3   OH268947   2.094   1.405   8.338 -0.6738 -0.4398  0.2481
15819TIP3    H168948   2.141   1.403   8.421 -0.1210 -1.8660 -0.0561
15819TIP3    H268949   2.088   1.313   8.312 -1.3610 -0.0699 -1.0039
15820TIP3   OH268950   0.692   3.628  34.368 -0.0296  0.5407  0.0461
15820TIP3    H168951   0.673   3.541  34.332 -1.2642  0.6329  0.4356
15820TIP3    H268952   0.748   3.611  34.444  3.0785  0.3745 -2.1229
15821TIP3   OH268953   2.507   3.038  38.469  0.0046 -0.4294 -0.2732
15821TIP3    H168954   2.599   3.023  38.492 -0.0883  0.3508  0.6762
15821TIP3    H268955   2.491   2.979  38.396  1.2133 -0.7145 -0.3383
15822TIP3   OH268956   1.318   2.969  36.563 -0.3139  0.0611  0.4236
15822TIP3    H168957   1.268   3.042  36.525  0.8379  0.9905  0.6233
15822TIP3    H268958   1.267   2.891  36.541  0.2045  0.5132 -3.0046
15823TIP3   OH268959   0.428   1.899  33.170 -0.2746  0.0142 -0.0195
15823TIP3    H168960   0.333   1.908  33.158 -0.0599  0.7563 -1.2820
15823TIP3    H268961   0.455   1.981  33.210  0.1480  0.8075 -1.8319
15824TIP3   OH268962   3.796   2.996   8.337 -0.2276 -0.0052  0.2636
15824TIP3    H168963   3.887   3.008   8.313  0.2649 -0.7882  1.6335
15824TIP3    H268964   3.793   3.008   8.432 -1.8752  1.7454  0.0642
15825TIP3   OH268965   1.283   0.611   6.812  0.9017  0.2046 -0.3722
15825TIP3    H168966   1.281   0.624   6.717  2.0641  2.1284 -0.1812
15825TIP3    H268967   1.242   0.689   6.848 -0.5183 -0.9853  0.7371
15826TIP3   OH268968   0.718   0.613  26.373  0.1577  0.2735 -0.2237
15826TIP3    H168969   0.648   0.639  26.313  0.4149  1.4801 -0.0204
15826TIP3    H268970   0.799   0.638  26.328  0.4146 -0.1308  0.0060
15827TIP3   OH268971   3.721   2.680  34.685 -0.2407  0.2735 -0.0563
15827TIP3    H168972   3.745   2.680  34.592 -1.4012 -0.7937 -0.3990
15827TIP3    H268973   3.644   2.736  34.689 -1.9444 -1.8777 -0.3214
15828TIP3   OH268974   2.863   1.571  40.125  0.4775 -0.2019  0.4222
15828TIP3    H168975   2.901   1.485  40.107  0.3794 -0.6452  2.1431
15828TIP3    H268976   2.822   1.562  40.210 -0.4651  1.2699  0.1665
15829TIP3   OH268977   3.422   2.498  32.428  0.2132  0.2186 -0.8138
15829TIP3    H168978   3.431   2.428  32.363  0.5426  0.6709 -1.2615
15829TIP3    H268979   3.509   2.537  32.434  0.4231 -0.3661  0.5488
15830TIP3   OH268980   0.741   2.284  31.283 -0.8416 -0.0342 -0.1586
15830TIP3    H168981   0.746   2.316  31.193  0.2964  2.4048  0.6966
15830TIP3    H268982   0.651   2.254  31.292 -1.5580  1.5111 -1.5684
15831TIP3   OH268983   0.671   2.205  34.664  0.2933 -0.0188 -0.3241
15831TIP3    H168984   0.664   2.284  34.610 -1.5379 -0.3293 -0.5843
15831TIP3    H268985   0.710   2.236  34.746 -0.2536  1.1295 -0.4809
15832TIP3   OH268986   3.817   1.594  34.372 -0.0930  0.7809 -0.1764
15832TIP3    H168987   3.836   1.675  34.418 -2.7309  0.0845  2.4287
15832TIP3    H268988   3.820   1.526  34.439 -0.6900 -0.8498 -1.7130
15833TIP3   OH268989   2.666   0.881  43.256  0.3029  0.2215  0.5242
15833TIP3    H168990   2.682   0.820  43.328  1.5843 -1.6308 -1.2124
15833TIP3    H268991   2.575   0.866  43.232 -0.3446  1.3237  2.0845
15834TIP3   OH268992   0.363   1.709   0.057  0.5657 -0.1079  0.3136
15834TIP3    H168993   0.365   1.614   0.062  3.1274 -0.0910  1.1506
15834TIP3    H268994   0.396   1.729  -0.031 -1.3600  0.0513 -0.4223
15835TIP3   OH268995   1.375   3.434   7.900  0.3115 -0.5417 -0.3536
15835TIP3    H168996   1.398   3.344   7.879  0.8359 -0.2064 -1.2894
15835TIP3    H268997   1.303   3.427   7.962  0.1706 -1.6051 -0.6231
15836TIP3   OH268998   0.652   2.194  14.440  0.0545 -0.2844  0.4825
15836TIP3    H168999   0.578   2.177  14.382  0.9403  0.0062 -0.7809
15836TIP3    H269000   0.686   2.107  14.462 -0.6054 -0.4166  1.0351
15837TIP3   OH269001   3.768   1.579  15.463 -0.5488  0.0045 -0.5570
15837TIP3    H169002   3.725   1.665  15.458  0.4573  0.7961  2.3970
15837TIP3    H269003   3.806   1.567  15.375  0.8338  3.4940 -0.6464
15838TIP3   OH269004   3.779   1.282  42.639  0.0209 -0.1328  0.1888
15838TIP3    H169005   3.853   1.307  42.695  0.0118  2.0732 -0.6649
15838TIP3    H269006   3.761   1.191  42.662  3.5279 -1.0661 -0.1481
15839TIP3   OH269007   2.529   0.752  13.628  0.1925 -0.1391 -0.1324
15839TIP3    H169008   2.464   0.806  13.674 -1.6832 -1.2991 -1.2829
15839TIP3    H269009   2.541   0.795  13.544 -0.3245 -0.7825 -0.5463
15840TIP3   OH269010   1.287   1.305   6.227 -0.3483  0.4010  0.1138
15840TIP3    H169011   1.211   1.357   6.200 -2.0727 -0.6234  2.5502
15840TIP3    H269012   1.250   1.240   6.287  2.1467 -1.7672 -0.5612
15841TIP3   OH269013   3.173   2.748  40.168  0.6875  0.2379 -0.2432
15841TIP3    H169014   3.110   2.710  40.107  0.8239 -0.5726  0.1002
15841TIP3    H269015   3.200   2.674  40.223 -1.8480  1.4882  2.9952
15842TIP3   OH269016   0.844   0.722  35.604 -0.1070  0.0089  0.1887
15842TIP3    H169017   0.910   0.653  35.602 -1.5142 -1.3880 -1.1054
15842TIP3    H269018   0.869   0.783  35.535  1.0651  0.7575  1.2431
15843TIP3   OH269019   1.052   0.675  33.172 -0.5203 -0.5493  0.0127
15843TIP3    H169020   1.075   0.686  33.080  1.1189  0.9105  0.5460
15843TIP3    H269021   0.956   0.683  33.175 -0.5901 -0.6216 -1.5481
15844TIP3   OH269022   1.087   1.351   0.656 -0.5967  0.3677  0.4991
15844TIP3    H169023   1.028   1.424   0.672  1.3567  1.9883  0.6257
15844TIP3    H269024   1.105   1.354   0.562 -0.6059 -0.0435  0.4800
15845TIP3   OH269025   2.762   0.790  13.770 -0.1060  0.3451 -0.6967
15845TIP3    H169026   2.675   0.785  13.731 -0.7126  0.0848  0.6416
15845TIP3    H269027   2.751   0.757  13.859  1.4672 -0.1847 -0.6600
15846TIP3   OH269028   0.502   0.568   8.676 -0.1296  0.0921 -0.6196
15846TIP3    H169029   0.585   0.597   8.638  0.1711  0.0680  0.0005
15846TIP3    H269030   0.486   0.483   8.636 -0.4574  0.6120 -1.6246
15847TIP3   OH269031   4.018   2.071  41.582 -0.1416  0.3506  0.8412
15847TIP3    H169032   4.101   2.071  41.628 -1.0540 -0.0420  2.6030
15847TIP3    H269033   4.014   2.155  41.536  1.6040 -0.0313 -0.0833
15848TIP3   OH269034   0.801   3.152   9.004 -0.6499  0.1717 -0.6012
15848TIP3    H169035   0.822   3.224   9.064  0.7909 -1.0796  0.4792
15848TIP3    H269036   0.815   3.190   8.917 -1.2011  1.5635 -0.1113
15849TIP3   OH269037   3.655   0.763  41.231 -0.3057  0.0110 -0.5934
15849TIP3    H169038   3.718   0.731  41.166 -0.0331  0.6327 -0.6350
15849TIP3    H269039   3.709   0.805  41.298 -0.6971  1.1305 -0.9543
15850TIP3   OH269040   3.977   2.644  41.322  0.4132 -0.1828  0.0121
15850TIP3    H169041   4.062   2.641  41.366  0.6271 -1.3573 -0.4507
15850TIP3    H269042   3.918   2.596  41.380 -0.2265  1.5103  0.8490
15851TIP3   OH269043   1.243   3.695   8.878 -0.3868  0.2898  0.1214
15851TIP3    H169044   1.295   3.668   8.803 -2.1389  0.3301 -1.1869
15851TIP3    H269045   1.216   3.785   8.857  0.1301  0.7632  1.4080
15852TIP3   OH269046   0.090   2.621   9.416  0.2504 -0.3077 -0.1085
15852TIP3    H169047   0.032   2.680   9.369  0.4606 -0.8211 -1.0324
15852TIP3    H269048   0.067   2.633   9.508 -0.0585  0.8254 -0.3182
15853TIP3   OH269049   2.435   0.150  14.870 -0.1316 -0.0512  0.0106
15853TIP3    H169050   2.407   0.142  14.961  2.3642 -0.3108  0.8344
15853TIP3    H269051   2.529   0.164  14.875 -0.0682  0.9933 -2.5180
15854TIP3   OH269052   3.930   1.837  14.296  0.2038 -0.4948  0.1529
15854TIP3    H169053   3.998   1.787  14.343  0.2839 -2.4380 -1.8603
15854TIP3    H269054   3.867   1.859  14.364  0.4565 -2.9164  1.3143
15855TIP3   OH269055   1.705   2.004  14.298 -0.0727 -0.3156 -0.3316
15855TIP3    H169056   1.776   1.948  14.330  1.0524  2.0314  1.6571
15855TIP3    H269057   1.750   2.070  14.244 -0.9368  0.3405 -0.2672
15856TIP3   OH269058   1.068   0.282  31.414 -0.5073 -0.6074 -0.0953
15856TIP3    H169059   1.015   0.344  31.364  3.5153  0.6214 -3.3921
15856TIP3    H269060   1.071   0.204  31.359  0.2240 -1.0392  0.5417
15857TIP3   OH269061   0.210   2.217  34.215 -0.1452  0.0116  0.0488
15857TIP3    H169062   0.138   2.159  34.191  2.7350 -3.2424 -1.3962
15857TIP3    H269063   0.238   2.186  34.301  0.7757 -0.1139 -0.2840
15858TIP3   OH269064   3.927   1.490  47.038 -0.3835  0.4894  0.3392
15858TIP3    H169065   3.963   1.540  47.111  0.8599  1.8782 -1.1389
15858TIP3    H269066   3.832   1.495  47.050 -0.2812  2.5799  0.6980
15859TIP3   OH269067   0.255   1.110  33.414 -0.2286  0.1968 -0.2531
15859TIP3    H169068   0.199   1.046  33.371 -0.6257  0.7086 -0.5148
15859TIP3    H269069   0.217   1.195  33.390  1.9961  0.7142 -2.4306
15860TIP3   OH269070   1.334   0.517   5.596  0.3443  0.5831  0.3372
15860TIP3    H169071   1.252   0.476   5.568  1.8708 -1.3308 -1.6464
15860TIP3    H269072   1.341   0.596   5.542 -0.1822  0.7516  0.5098
15861TIP3   OH269073   1.088   1.723  45.380  0.5128  0.4930  0.3734
15861TIP3    H169074   1.183   1.714  45.386  0.3536 -0.7695  1.4604
15861TIP3    H269075   1.056   1.693  45.465 -0.8685  0.6395 -0.0828
15862TIP3   OH269076   3.169   0.681   3.648  0.2399  0.0246  0.8844
15862TIP3    H169077   3.190   0.735   3.572  1.4073 -0.8493  0.5533
15862TIP3    H269078   3.077   0.657   3.637  0.3711 -0.0068 -0.2017
15863TIP3   OH269079   2.208   1.689   4.914  0.2786 -0.2313  0.1010
15863TIP3    H169080   2.202   1.782   4.935  1.6587 -0.1375  0.1786
15863TIP3    H269081   2.247   1.686   4.826 -1.5726 -0.7207 -0.7695
15864TIP3   OH269082   2.628   3.235  40.818 -0.1873 -0.3125  0.0064
15864TIP3    H169083   2.702   3.248  40.759 -0.4062  1.2651  0.0272
15864TIP3    H269084   2.618   3.140  40.824  1.7289 -0.5652 -0.1040
15865TIP3   OH269085   2.287   1.877   5.599 -0.2890 -0.8810 -0.0383
15865TIP3    H169086   2.271   1.927   5.679 -3.6418 -0.1272 -1.0184
15865TIP3    H269087   2.239   1.924   5.531  0.6798 -2.6706 -2.0763
15866TIP3   OH269088   0.328   0.134  10.823  0.0562 -0.0748 -0.2949
15866TIP3    H169089   0.331   0.217  10.871 -1.5719 -0.0256 -0.2274
15866TIP3    H269090   0.403   0.138  10.763  0.7468  0.8731  0.6038
15867TIP3   OH269091   0.487   2.245   2.463 -0.2016 -0.0961  0.0613
15867TIP3    H169092   0.557   2.307   2.483 -0.1203 -0.3321  0.5186
15867TIP3    H269093   0.531   2.170   2.423 -0.2224 -0.1513  0.1430
15868TIP3   OH269094   1.993   1.179   8.671  0.0423  0.5182  0.2693
15868TIP3    H169095   1.940   1.258   8.676 -0.3352  0.2222  1.2809
15868TIP3    H269096   1.930   1.108   8.659  0.4850  0.4972 -2.6713
15869TIP3   OH269097   1.888   2.713   4.558 -0.3953  0.2426 -0.1701
15869TIP3    H169098   1.922   2.802   4.567 -1.6788  0.7421  0.0693
15869TIP3    H269099   1.960   2.657   4.585  0.6862  1.1720 -1.0420
15870TIP3   OH269100   2.033   2.140  14.261 -0.1393  0.0413 -0.5946
15870TIP3    H169101   2.006   2.161  14.351 -0.6542  0.8343 -0.9243
15870TIP3    H269102   1.957   2.164  14.208  0.8097  1.2874 -1.4327
15871TIP3   OH269103   3.266   2.022  33.969 -0.5321 -0.1699  0.8566
15871TIP3    H169104   3.239   1.953  33.908  2.3990 -0.7663  0.1145
15871TIP3    H269105   3.306   1.975  34.043  0.4380  0.6869  0.8934
15872TIP3   OH269106   2.449   3.330   4.828 -0.3517 -0.9175 -0.1215
15872TIP3    H169107   2.446   3.379   4.746 -2.2391  0.5221  0.7396
15872TIP3    H269108   2.409   3.245   4.808 -0.6533 -0.6336 -0.7275
15873TIP3   OH269109   3.040   1.662  46.132  0.0176 -0.3968 -0.1783
15873TIP3    H169110   3.081   1.660  46.045  0.1968  0.0626 -0.1082
15873TIP3    H269111   3.072   1.583  46.175  2.9109  1.1594  0.7934
15874TIP3   OH269112   3.134   0.089  31.717  0.1596  0.2844 -0.7477
15874TIP3    H169113   3.111   0.131  31.634 -0.6579  1.0383 -0.1520
15874TIP3    H269114   3.082   0.134  31.783 -0.2732 -1.2455  0.0128
15875TIP3   OH269115   0.348   2.432  18.523  0.3443 -0.1478 -0.0113
15875TIP3    H169116   0.392   2.517  18.524 -0.3090  0.2666 -2.1225
15875TIP3    H269117   0.355   2.401  18.613 -0.7250  2.8161  1.2370
15876TIP3   OH269118   2.385   1.844  31.269  0.4313  0.3856 -0.2934
15876TIP3    H169119   2.434   1.781  31.216 -0.3322  1.5535 -2.5279
15876TIP3    H269120   2.451   1.905  31.302  0.7612  0.5981 -1.3184
15877TIP3   OH269121   0.054   2.306  39.343  0.1115  0.4426  0.4598
15877TIP3    H169122   0.028   2.391  39.378  1.3518  1.1208 -0.2185
15877TIP3    H269123   0.037   2.311  39.250  0.8092  0.1904  0.3105
15878TIP3   OH269124   2.307   1.213  44.408  0.5101  0.3250 -0.7180
15878TIP3    H169125   2.233   1.167  44.448  0.8372 -0.7638 -1.3309
15878TIP3    H269126   2.379   1.200  44.469  0.6929 -0.2891 -1.0575
15879TIP3   OH269127   3.251   2.941  35.509 -0.6897  0.3839 -0.2977
15879TIP3    H169128   3.160   2.929  35.537 -0.5919 -0.3822 -0.2931
15879TIP3    H269129   3.251   2.922  35.416 -0.4166 -0.2809 -0.1677
15880TIP3   OH269130   3.862   3.867  40.311 -0.1351 -0.0689  0.1199
15880TIP3    H169131   3.839   3.807  40.383 -0.8161 -2.7443 -2.1157
15880TIP3    H269132   3.778   3.884  40.268  0.0470  2.6490  0.6724
15881TIP3   OH269133   2.074   0.831  35.641 -0.2043 -0.4277 -0.5378
15881TIP3    H169134   1.980   0.829  35.623 -0.2301  3.4521 -1.7891
15881TIP3    H269135   2.098   0.923  35.630  3.6760 -1.1952  0.2319
15882TIP3   OH269136   3.908   3.907  44.148  0.0010 -0.3227 -0.0318
15882TIP3    H169137   3.982   3.886  44.092  0.5980  0.3607  0.4781
15882TIP3    H269138   3.836   3.853  44.114 -0.5720  2.2508 -3.4307
15883TIP3   OH269139   1.507   2.284  13.039  0.3378  0.6056 -0.4558
15883TIP3    H169140   1.446   2.211  13.033 -0.3960  1.2131 -0.6281
15883TIP3    H269141   1.518   2.299  13.132  0.4833  0.2755 -0.4215
15884TIP3   OH269142   1.925   3.349   9.995 -0.0958  0.0595 -0.2271
15884TIP3    H169143   1.976   3.307   9.926  1.9460 -0.6279  1.5919
15884TIP3    H269144   1.892   3.276  10.048 -0.5259  0.6035  0.2754
15885TIP3   OH269145   3.418   3.180  30.733  0.0763  0.0588 -0.5512
15885TIP3    H169146   3.487   3.222  30.681  1.5049 -1.3871  0.0784
15885TIP3    H269147   3.390   3.247  30.795  0.5395  0.8374 -1.1619
15886TIP3   OH269148   0.095   2.759  40.703 -0.6316  0.2839 -0.2421
15886TIP3    H169149   0.115   2.853  40.709 -1.0932  0.2840  3.2058
15886TIP3    H269150   0.018   2.755  40.647  0.5209  1.7206 -2.0394
15887TIP3   OH269151   0.218   0.370  46.983  0.6292  0.5037 -0.1013
15887TIP3    H169152   0.155   0.382  47.053  0.3206  0.5769 -0.3898
15887TIP3    H269153   0.169   0.388  46.903  0.7157 -0.5030 -0.4019
15888TIP3   OH269154   2.563   2.580   4.898 -0.2498  0.6429  0.1803
15888TIP3    H169155   2.562   2.494   4.856  2.1228  0.1863  0.8530
15888TIP3    H269156   2.472   2.596   4.923 -0.8141 -1.5316 -0.2470
15889TIP3   OH269157   0.247   2.657  43.891 -0.0712 -0.0714 -0.1227
15889TIP3    H169158   0.168   2.628  43.846 -0.8889  1.1469  0.4678
15889TIP3    H269159   0.305   2.688  43.821 -0.2740 -0.5969 -0.5238
15890TIP3   OH269160   3.398   1.864  37.996  0.3863 -0.4283 -0.0129
15890TIP3    H169161   3.363   1.821  38.074 -0.2827 -2.0780 -1.1887
15890TIP3    H269162   3.431   1.792  37.942 -0.1688  0.5894 -1.7516
15891TIP3   OH269163   2.358   2.415  21.078 -0.2329 -0.1512 -0.4980
15891TIP3    H169164   2.424   2.421  21.147 -1.6098 -0.9021  0.9602
15891TIP3    H269165   2.390   2.473  21.009  2.0676 -0.7023  0.0095
15892TIP3   OH269166   0.002   2.950   7.032 -0.5629  0.2300  0.8830
15892TIP3    H169167   0.070   2.909   7.085 -0.0373 -0.3863 -0.2119
15892TIP3    H269168   0.039   2.953   6.944 -2.4842 -1.4626 -0.0617
15893TIP3   OH269169   3.346   1.611  36.231 -0.0209 -0.4997  0.1295
15893TIP3    H169170   3.437   1.635  36.253  0.2814 -0.9078 -0.6280
15893TIP3    H269171   3.342   1.517  36.247 -0.5093 -0.3715  0.7935
15894TIP3   OH269172   1.739   0.297  32.208  0.1337  0.5721 -0.4648
15894TIP3    H169173   1.731   0.362  32.139 -1.4518  0.9586  0.0354
15894TIP3    H269174   1.680   0.328  32.277  0.1106 -0.8689  0.1967
15895TIP3   OH269175   3.777   3.019  34.251  0.3392  0.2102  0.1317
15895TIP3    H169176   3.725   2.944  34.222  0.8397  0.0908 -0.4640
15895TIP3    H269177   3.866   3.000  34.222  0.2673  1.5793 -1.1587
15896TIP3   OH269178   3.672   3.376  10.390  0.2236  0.3949  0.3013
15896TIP3    H169179   3.699   3.432  10.462  1.3843  2.0982 -1.3568
15896TIP3    H269180   3.582   3.402  10.372  0.8825  2.1263 -0.7206
15897TIP3   OH269181   1.151   2.931   6.168  0.0870  0.4926  0.2109
15897TIP3    H169182   1.085   2.999   6.154 -0.5645 -0.2190 -0.2723
15897TIP3    H269183   1.175   2.902   6.080  0.4377  0.1699  0.4096
15898TIP3   OH269184   1.037   0.764  42.397  0.0986  0.0147 -0.4380
15898TIP3    H169185   1.010   0.741  42.308 -0.8475  2.8597 -0.9954
15898TIP3    H269186   1.115   0.818  42.385 -0.2012  0.6655  0.4443
15899TIP3   OH269187   4.040   2.772  16.494 -0.5446 -0.1345  0.4014
15899TIP3    H169188   3.973   2.745  16.556  0.7072 -1.3016  1.2958
15899TIP3    H269189   4.026   2.716  16.418 -1.2512  0.3956  0.1239
15900TIP3   OH269190   1.135   2.212  44.896  0.4698  0.4933 -0.4301
15900TIP3    H169191   1.208   2.157  44.868 -1.6280 -1.4860 -2.4641
15900TIP3    H269192   1.069   2.150  44.928 -0.8136  2.0853  0.1314
15901TIP3   OH269193   0.611   0.025   0.853  0.0532 -0.0537  0.3001
15901TIP3    H169194   0.543   0.040   0.920 -1.1682  0.7342 -1.0572
15901TIP3    H269195   0.645  -0.062   0.873 -0.6102 -0.0326  1.6605
15902TIP3   OH269196   3.142   4.010  32.731 -0.0210  0.6599 -0.1931
15902TIP3    H169197   3.175   4.006  32.820  2.3784 -0.5327 -1.0269
15902TIP3    H269198   3.182   4.089  32.694  0.5473  0.1404 -0.7201
15903TIP3   OH269199   0.781   1.561  38.682  1.1457 -0.2756 -0.3674
15903TIP3    H169200   0.723   1.565  38.758  0.8387 -0.0292 -0.6145
15903TIP3    H269201   0.791   1.652  38.654  1.5962 -0.3218 -0.3671
15904TIP3   OH269202   2.051   4.063  13.221 -0.1810  0.0994  0.7779
15904TIP3    H169203   2.014   4.097  13.140 -1.3379 -2.8533 -0.0602
15904TIP3    H269204   2.128   4.013  13.195 -1.5567 -2.3708  1.1596
15905TIP3   OH269205   0.320   2.805   8.741  0.1153 -0.5840 -0.0797
15905TIP3    H169206   0.262   2.732   8.766 -2.5614  1.4065 -0.0247
15905TIP3    H269207   0.280   2.882   8.781  1.6506  1.2286 -1.8377
15906TIP3   OH269208   0.843   2.670  34.427 -0.5798 -0.7934  0.0505
15906TIP3    H169209   0.781   2.597  34.433 -1.4772 -0.0135  0.5829
15906TIP3    H269210   0.812   2.733  34.492  0.2191  0.0368 -0.3496
15907TIP3   OH269211   2.526   0.286   4.385 -0.3785 -0.4129  0.2148
15907TIP3    H169212   2.542   0.237   4.465  0.3393 -0.7197 -0.1060
15907TIP3    H269213   2.612   0.320   4.361 -1.0619  2.3895  1.2993
15908TIP3   OH269214   2.298   1.096  46.103  0.3628 -0.1854  0.1677
15908TIP3    H169215   2.268   1.014  46.141 -0.9399 -0.6096 -1.6678
15908TIP3    H269216   2.393   1.095  46.117  0.1340 -1.0292  1.9267
15909TIP3   OH269217   0.845   0.820   0.437 -0.2590 -0.0942  0.2323
15909TIP3    H169218   0.849   0.915   0.439  0.1247 -0.0738 -0.7846
15909TIP3    H269219   0.816   0.795   0.525 -0.4769  0.9582  0.4725
15910TIP3   OH269220   0.492   1.695   4.798 -0.5225 -0.6844  0.1508
15910TIP3    H169221   0.587   1.699   4.795 -0.5251 -0.8830 -0.3707
15910TIP3    H269222   0.468   1.631   4.730 -1.1076  0.9036 -1.2106
15911TIP3   OH269223   1.942   0.864  39.762 -0.2096  0.4886 -0.0975
15911TIP3    H169224   1.872   0.922  39.792 -0.7487 -0.0737 -0.2581
15911TIP3    H269225   1.901   0.778  39.755  0.0951  0.4376 -1.6867
15912TIP3   OH269226   0.136   2.968  38.007  0.0795  0.3667  0.7905
15912TIP3    H169227   0.183   2.954  37.924  0.1973  2.2203  0.4753
15912TIP3    H269228   0.147   2.887  38.055 -1.4075 -1.4286 -1.6751
15913TIP3   OH269229   1.301   3.568   9.394  0.3292 -0.2657  0.1905
15913TIP3    H169230   1.266   3.491   9.440 -0.7848  0.6488  0.9402
15913TIP3    H269231   1.364   3.606   9.455  0.0432  0.0378  0.3032
15914TIP3   OH269232   2.244   1.584   3.191 -0.1824  0.3309 -0.1358
15914TIP3    H169233   2.338   1.581   3.208 -0.0192  0.5775 -0.9454
15914TIP3    H269234   2.220   1.493   3.174 -0.0210  0.3129 -0.2732
15915TIP3   OH269235   1.686   2.900  44.769 -0.2732 -0.1154  0.3633
15915TIP3    H169236   1.664   2.880  44.678  0.1646  0.2288  0.1765
15915TIP3    H269237   1.616   2.958  44.798  0.2791  0.8450 -0.1756
15916TIP3   OH269238   1.297   2.637  10.381  0.2397  0.1999 -0.1610
15916TIP3    H169239   1.356   2.701  10.341 -0.7784 -0.0520 -2.1842
15916TIP3    H269240   1.354   2.567  10.411  1.1164  0.7495 -0.5149
15917TIP3   OH269241   2.759   3.465   3.258  0.3808  0.1060 -0.0116
15917TIP3    H169242   2.792   3.376   3.245 -3.4034 -1.6390  0.7776
15917TIP3    H269243   2.718   3.488   3.175  1.1742  1.1095 -0.1486
15918TIP3   OH269244   0.897   2.188  20.445  0.4612  0.0207 -0.0492
15918TIP3    H169245   0.807   2.169  20.472  0.3183  0.4706 -0.1907
15918TIP3    H269246   0.904   2.153  20.356  0.5800 -0.4538  0.1474
15919TIP3   OH269247   2.307   1.801  40.420  0.0764 -0.2636 -0.3104
15919TIP3    H169248   2.364   1.726  40.403  0.9516  0.4048 -0.3840
15919TIP3    H269249   2.274   1.787  40.509  2.4522  0.6331  0.7818
15920TIP3   OH269250   0.227   3.260  35.199  0.0095 -0.5880 -0.2748
15920TIP3    H169251   0.145   3.213  35.186 -0.0859 -0.2712 -0.8485
15920TIP3    H269252   0.281   3.200  35.251 -0.3370 -1.0737 -0.4658
15921TIP3   OH269253   1.146   3.977  46.792 -0.2159 -0.0431 -0.0159
15921TIP3    H169254   1.055   4.000  46.774  0.4542  2.1112 -1.0583
15921TIP3    H269255   1.175   3.930  46.714 -0.8287 -2.2010  0.9943
15922TIP3   OH269256   0.981   1.405   2.418 -0.8023 -0.4338  0.0511
15922TIP3    H169257   1.008   1.313   2.420  1.5246  0.1799  0.1787
15922TIP3    H269258   1.027   1.442   2.342 -1.7592  0.6088 -0.0487
15923TIP3   OH269259   4.080   2.055   8.851  0.0575 -0.0680 -0.3272
15923TIP3    H169260   3.992   2.043   8.815 -0.4350 -0.7881  1.0705
15923TIP3    H269261   4.112   1.967   8.868  1.5054  0.1128 -1.7651
15924TIP3   OH269262   3.912   3.569  27.440  0.4850  0.3034 -0.2917
15924TIP3    H169263   3.848   3.602  27.377  1.0165  1.1105 -0.4250
15924TIP3    H269264   3.994   3.613  27.416  0.8131  0.2098  0.6341
15925TIP3   OH269265   1.294   1.846  46.861 -0.6386 -0.5399 -0.1485
15925TIP3    H169266   1.340   1.823  46.941 -2.2577 -2.5649  0.2867
15925TIP3    H269267   1.284   1.941  46.865 -0.8023 -0.5958  2.1274
15926TIP3   OH269268   0.955   4.078  43.185  0.3128  0.4994  0.0077
15926TIP3    H169269   0.971   4.044  43.273  0.8805 -0.2893 -0.3838
15926TIP3    H269270   0.862   4.064  43.170  0.7340 -2.1260 -0.6100
15927TIP3   OH269271   0.202   0.549  42.731 -0.5341 -0.3039  0.8557
15927TIP3    H169272   0.221   0.467  42.776 -0.6082 -1.2494 -0.7302
15927TIP3    H269273   0.256   0.545  42.652 -1.0673  0.8624  0.4172
15928TIP3   OH269274   1.992   3.347  45.731 -0.3706  0.1638 -0.2047
15928TIP3    H169275   2.011   3.335  45.824 -0.1553  1.1872 -0.1017
15928TIP3    H269276   2.075   3.330  45.687 -0.9860 -2.6131 -0.4660
15929TIP3   OH269277   3.734   0.555  12.031  0.4272 -0.4212 -0.4285
15929TIP3    H169278   3.790   0.565  12.109 -0.1600 -0.0407 -0.0509
15929TIP3    H269279   3.791   0.579  11.958  1.4103 -2.0696 -0.2784
15930TIP3   OH269280   2.910   1.314  46.221 -0.6341 -0.0534 -0.5176
15930TIP3    H169281   2.929   1.235  46.271  2.1205  0.1482 -1.1091
15930TIP3    H269282   2.970   1.380  46.255 -0.4475  0.8015 -2.3632
15931TIP3   OH269283   1.277   0.184  41.745  0.0167  0.4811  0.2021
15931TIP3    H169284   1.359   0.185  41.696 -0.4547 -1.5723 -0.7232
15931TIP3    H269285   1.208   0.194  41.679 -0.6373 -2.5488  0.3006
15932TIP3   OH269286   0.793   2.355  12.004  0.0867  0.7555 -0.1964
15932TIP3    H169287   0.756   2.315  11.926 -1.2311 -0.3520  0.9365
15932TIP3    H269288   0.881   2.318  12.011 -0.2791 -0.1718 -0.4359
15933TIP3   OH269289   3.773   1.051  32.790  0.3043 -0.4004 -0.0722
15933TIP3    H169290   3.828   1.108  32.845 -0.6684 -0.3041  0.8304
15933TIP3    H269291   3.717   1.112  32.742 -0.7812 -0.5755  0.9395
15934TIP3   OH269292   3.181   1.529  40.636 -0.1073 -0.0046 -0.2116
15934TIP3    H169293   3.153   1.518  40.545 -2.2955  0.8265  0.2958
15934TIP3    H269294   3.120   1.476  40.687  0.1669  0.6964  0.8956
15935TIP3   OH269295   2.594   0.086  43.444  0.1932  0.1409 -0.5058
15935TIP3    H169296   2.514   0.094  43.392  0.7510 -0.2433 -1.4543
15935TIP3    H269297   2.568   0.035  43.521 -0.7679  1.1688 -0.1243
15936TIP3   OH269298   1.836   1.923  17.817  0.2420 -0.3139 -0.0979
15936TIP3    H169299   1.875   1.884  17.895 -0.3448 -0.5482  0.0815
15936TIP3    H269300   1.750   1.953  17.846  0.6107  0.9954 -0.2573
15937TIP3   OH269301   3.651   1.626  47.444 -0.1397  0.1993  0.1455
15937TIP3    H169302   3.580   1.570  47.412 -1.1754  1.8574 -0.5868
15937TIP3    H269303   3.659   1.604  47.537 -1.6594  0.0167  0.2584
15938TIP3   OH269304   2.809   2.934  13.697 -0.0560  0.0061 -0.1710
15938TIP3    H169305   2.810   2.921  13.602  2.9224 -0.4010 -0.1785
15938TIP3    H269306   2.722   2.969  13.716 -1.0450 -0.7318 -2.9136
15939TIP3   OH269307   2.005   3.103  14.461  0.8295 -0.0273  0.0256
15939TIP3    H169308   1.981   3.162  14.389  0.3681 -1.0624 -0.6874
15939TIP3    H269309   2.022   3.162  14.535 -0.9099  0.9612 -0.2872
15940TIP3   OH269310   2.164   1.660   3.757 -0.6316 -0.3457 -0.2373
15940TIP3    H169311   2.197   1.691   3.674  0.0590  0.1583  0.2194
15940TIP3    H269312   2.138   1.739   3.804 -0.2120 -0.5606  0.3663
15941TIP3   OH269313   0.255   0.705  46.791  0.3420 -0.2790 -0.4886
15941TIP3    H169314   0.210   0.641  46.736 -0.2333  0.5765 -1.0475
15941TIP3    H269315   0.208   0.702  46.875  2.1414 -2.6509  0.5457
15942TIP3   OH269316   2.307   3.556  36.566 -0.2649 -0.0359  0.1436
15942TIP3    H169317   2.388   3.604  36.552 -0.1855  0.1130  1.0477
15942TIP3    H269318   2.240   3.623  36.574 -0.8653 -0.1897 -2.6276
15943TIP3   OH269319   2.955   1.083  34.074  0.3466  0.1404  0.1093
15943TIP3    H169320   2.996   1.164  34.043  1.6059 -1.4140 -2.7827
15943TIP3    H269321   3.024   1.037  34.122  0.2647 -0.0576  0.0420
15944TIP3   OH269322   2.120   0.156  32.261 -0.4613 -0.4082  0.5324
15944TIP3    H169323   2.067   0.217  32.211 -0.3842 -1.1061 -0.4256
15944TIP3    H269324   2.138   0.201  32.343 -0.7667  0.6683  0.0165
15945TIP3   OH269325   1.915   1.745   1.256 -0.3788 -0.2035 -0.5112
15945TIP3    H169326   1.876   1.702   1.180  0.1133  1.3026 -1.6671
15945TIP3    H269327   1.894   1.837   1.244 -1.3085 -0.0695  1.8323
15946TIP3   OH269328   0.602   1.921   1.319  0.1818  0.1944 -0.0414
15946TIP3    H169329   0.565   1.833   1.326  0.5997 -0.2566 -2.4925
15946TIP3    H269330   0.531   1.974   1.282  0.6316  0.3152 -0.7535
15947TIP3   OH269331   0.617   0.166   0.155 -0.2226 -0.0453  0.1568
15947TIP3    H169332   0.658   0.120   0.229 -0.9618 -0.2105  0.4757
15947TIP3    H269333   0.603   0.098   0.090  0.7340  0.1608 -0.2889
15948TIP3   OH269334   3.267   0.564  31.918 -0.1876  0.0577 -0.8054
15948TIP3    H169335   3.328   0.491  31.930 -2.6947 -2.1931 -0.6578
15948TIP3    H269336   3.244   0.561  31.825  0.2997  1.2344 -0.9822
15949TIP3   OH269337   2.109   2.024   7.208 -0.2062  0.5280  0.2684
15949TIP3    H169338   2.018   2.042   7.234  0.2698 -1.2534  3.7930
15949TIP3    H269339   2.160   2.093   7.252  0.3199  0.3385 -0.0378
15950TIP3   OH269340   3.505   1.478  37.427 -0.9291  0.6833  0.1638
15950TIP3    H169341   3.431   1.501  37.482 -1.0299  0.9802 -0.0870
15950TIP3    H269342   3.490   1.527  37.346 -1.4184 -0.6891 -0.6006
15951TIP3   OH269343   3.254   3.784  45.149  0.2646  0.0942 -0.2080
15951TIP3    H169344   3.229   3.767  45.239  0.9108  0.4364  0.0434
15951TIP3    H269345   3.340   3.743  45.139  1.0463  1.6360 -0.1003
15952TIP3   OH269346   3.474   3.043   8.045 -0.5293 -0.4216  0.4414
15952TIP3    H169347   3.529   3.078   7.975  0.0012 -0.0351  1.0382
15952TIP3    H269348   3.405   2.995   8.000  0.3708 -1.0308 -0.3185
15953TIP3   OH269349   2.056   2.582   0.492 -0.5980  0.4862 -0.1071
15953TIP3    H169350   2.105   2.592   0.410 -0.2579 -0.2041  0.0077
15953TIP3    H269351   2.071   2.664   0.539 -0.4125  0.6983 -0.5318
15954TIP3   OH269352   4.084   3.496   9.523 -0.2131 -0.1076  0.0174
15954TIP3    H169353   4.107   3.455   9.440  1.6478  0.1003  0.3963
15954TIP3    H269354   4.014   3.557   9.501 -0.4433 -0.7869 -1.2037
15955TIP3   OH269355   0.821   1.716  33.716  0.4511  0.3883  0.2207
15955TIP3    H169356   0.897   1.698  33.773 -0.3654  1.1438  1.6170
15955TIP3    H269357   0.838   1.803  33.681  0.3167  0.4828  0.3884
15956TIP3   OH269358   2.925   1.983   7.986 -0.1958  0.0410 -0.2072
15956TIP3    H169359   2.865   2.054   7.967  0.2072  0.8531  1.4306
15956TIP3    H269360   3.011   2.024   7.992 -0.1437 -0.2794  2.2088
15957TIP3   OH269361   3.824   2.891  10.953 -0.1392  0.7715 -0.9658
15957TIP3    H169362   3.793   2.822  11.012 -2.3720  2.0212 -0.5744
15957TIP3    H269363   3.819   2.852  10.866 -0.0257 -0.0023 -0.6378
15958TIP3   OH269364   1.612   1.956  41.809  0.3556 -0.0366 -0.1479
15958TIP3    H169365   1.558   2.023  41.767 -1.3978 -0.6580  1.0152
15958TIP3    H269366   1.682   2.005  41.852 -0.9746  1.1136  0.8177
15959TIP3   OH269367   2.148   2.852  12.666 -0.3614  0.7191  0.1099
15959TIP3    H169368   2.234   2.880  12.697 -0.9338  0.5353  2.0127
15959TIP3    H269369   2.091   2.859  12.743 -1.9508  0.3969 -0.9791
15960TIP3   OH269370   4.074   1.249   1.710 -0.3964  0.2042 -0.2437
15960TIP3    H169371   4.108   1.268   1.797 -0.0186 -1.8715  0.1083
15960TIP3    H269372   4.089   1.330   1.660  0.0664  1.1707  1.3799
15961TIP3   OH269373   1.436   3.254  41.031 -0.1232 -0.1337 -0.4410
15961TIP3    H169374   1.374   3.201  41.081  0.4189 -0.8686 -0.5198
15961TIP3    H269375   1.389   3.276  40.950 -0.6712  0.2813 -0.0143
15962TIP3   OH269376   0.121   1.614   2.904  0.2962  0.1695  0.4332
15962TIP3    H169377   0.127   1.660   2.988 -0.9775  0.0747  0.6093
15962TIP3    H269378   0.116   1.683   2.839  1.5060  0.2440  0.3988
15963TIP3   OH269379   1.521   1.320  35.410  0.2068  0.1131 -0.0921
15963TIP3    H169380   1.435   1.352  35.384  0.9472  0.9186 -1.6820
15963TIP3    H269381   1.583   1.376  35.363  1.6348  0.1032  1.6641
15964TIP3   OH269382   3.570   3.998   6.095 -0.3508 -1.1744 -0.5756
15964TIP3    H169383   3.481   3.989   6.062 -0.1583 -0.2197 -1.4317
15964TIP3    H269384   3.621   3.933   6.046 -0.6629 -2.0950  0.3061
15965TIP3   OH269385   1.691   2.502  41.793  0.6239 -0.1978  0.1914
15965TIP3    H169386   1.704   2.563  41.721  0.6109  0.8968  1.0902
15965TIP3    H269387   1.739   2.540  41.866 -1.6226  0.2210  1.5613
15966TIP3   OH269388   3.431   3.309  44.937  0.1311 -0.3878  0.2806
15966TIP3    H169389   3.363   3.367  44.971  0.0697 -0.6943  0.6860
15966TIP3    H269390   3.513   3.348  44.968  0.1513  0.0138 -0.2579
15967TIP3   OH269391   0.422   1.228  34.575 -0.2971 -0.0331  0.2809
15967TIP3    H169392   0.392   1.274  34.496  0.4786 -0.2243 -0.1386
15967TIP3    H269393   0.346   1.178  34.604 -0.6630  0.2326 -0.2048
15968TIP3   OH269394   0.225   0.781  43.143 -0.0557  0.3497 -0.5213
15968TIP3    H169395   0.219   0.802  43.237  0.1687  2.0021 -0.8428
15968TIP3    H269396   0.312   0.744  43.133  0.3311  1.1383 -0.2249
15969TIP3   OH269397   0.669   2.532  37.650  0.1759 -0.1004  0.1214
15969TIP3    H169398   0.688   2.456  37.706 -1.8463 -1.8074 -1.3848
15969TIP3    H269399   0.730   2.523  37.576  0.8535  0.5498  0.5777
15970TIP3   OH269400   0.995   2.839  31.163 -0.3398  0.1410 -0.7123
15970TIP3    H169401   0.931   2.768  31.168  1.1579 -1.1739  1.1860
15970TIP3    H269402   1.045   2.821  31.084 -2.2335  1.2049 -2.2452
15971TIP3   OH269403   2.982   2.252  38.171 -0.0426 -0.1605 -0.3358
15971TIP3    H169404   3.071   2.276  38.197 -0.7558  0.0864  2.1803
15971TIP3    H269405   2.991   2.164  38.134  1.1434 -0.5417  0.7768
15972TIP3   OH269406   0.863   0.016  28.273  0.1519 -0.2311  0.1383
15972TIP3    H169407   0.785  -0.022  28.231 -0.2278  1.2317 -0.5353
15972TIP3    H269408   0.883  -0.044  28.345 -0.6428 -1.4860 -0.6522
15973TIP3   OH269409   2.509   2.729  37.121 -0.0795  0.5082 -0.1862
15973TIP3    H169410   2.537   2.642  37.150  1.0705  1.1608  0.7137
15973TIP3    H269411   2.461   2.765  37.196 -1.6745  0.1910 -1.0027
15974TIP3   OH269412   1.344   2.280  11.756  0.5558 -0.0751  0.0534
15974TIP3    H169413   1.368   2.204  11.703 -2.0205 -0.3012 -0.9312
15974TIP3    H269414   1.308   2.342  11.693  1.3911  1.4473  1.0228
15975TIP3   OH269415   2.703   3.826  31.954  0.0787 -0.1071 -0.3480
15975TIP3    H169416   2.629   3.870  31.995  1.1191  1.3510  0.0434
15975TIP3    H269417   2.706   3.862  31.865  1.9814  2.0526  0.5002
15976TIP3   OH269418   4.077   3.143   4.630 -0.5181 -0.1114 -0.5384
15976TIP3    H169419   4.083   3.193   4.548 -2.5719  0.5313 -0.3452
15976TIP3    H269420   3.991   3.102   4.627  0.4055 -2.2377  0.1439
15977TIP3   OH269421   1.304   4.015   7.836 -0.3069  0.1663 -0.5125
15977TIP3    H169422   1.237   4.080   7.819  0.2327  1.3111  1.3979
15977TIP3    H269423   1.297   3.997   7.930 -0.4762 -2.6131 -0.9503
15978TIP3   OH269424   2.650   1.944  16.087  0.0718 -0.3532  0.0848
15978TIP3    H169425   2.637   1.852  16.066  0.2064  0.0120 -1.8185
15978TIP3    H269426   2.739   1.948  16.122  0.0418 -0.9435  0.2356
15979TIP3   OH269427   0.638   1.726  46.196  0.3935  0.2424  0.2573
15979TIP3    H169428   0.580   1.686  46.261  0.6988 -0.0198  0.3698
15979TIP3    H269429   0.591   1.804  46.167 -0.6817 -0.7219 -0.7203
15980TIP3   OH269430   3.863   1.440  39.485 -0.0301  0.4007  0.0669
15980TIP3    H169431   3.870   1.363  39.429 -1.6087  1.2444 -1.4004
15980TIP3    H269432   3.923   1.423  39.558 -0.6592 -2.3999  0.0503
15981TIP3   OH269433   2.302   3.297  12.780 -0.0420 -0.2157  0.6777
15981TIP3    H169434   2.208   3.291  12.764 -0.1433 -2.9997  1.7000
15981TIP3    H269435   2.310   3.304  12.875  0.7608 -0.7089  0.6581
15982TIP3   OH269436   3.534   3.612  36.956  0.2494  0.8934  0.3719
15982TIP3    H169437   3.551   3.518  36.952 -2.2195  0.3095  1.3795
15982TIP3    H269438   3.499   3.635  36.870  1.1643  0.9868  0.0181
15983TIP3   OH269439   0.570   0.172  13.749 -0.4825 -0.1075 -0.1040
15983TIP3    H169440   0.588   0.081  13.726  1.5759  0.3402 -0.4761
15983TIP3    H269441   0.569   0.219  13.665  1.5148  0.6480  0.2385
15984TIP3   OH269442   1.044   3.984  32.568 -0.4222 -0.4452  0.0986
15984TIP3    H169443   0.980   3.916  32.548  0.1701 -1.7143  2.1799
15984TIP3    H269444   1.129   3.943  32.552 -0.0565 -0.2985  1.4551
15985TIP3   OH269445   3.643   1.726  15.951  0.6940  0.0533  0.1312
15985TIP3    H169446   3.660   1.761  15.864  1.6765 -1.0663 -0.1477
15985TIP3    H269447   3.623   1.634  15.937  0.1784  0.0115  1.0372
15986TIP3   OH269448   0.509   0.034   2.426  0.1467  0.5861  0.2656
15986TIP3    H169449   0.487   0.076   2.509  1.1145  0.6415  0.5078
15986TIP3    H269450   0.425   0.006   2.390 -0.3791  1.4314  0.7913
15987TIP3   OH269451   3.696   3.681  35.013  0.1596 -0.4652 -0.2807
15987TIP3    H169452   3.775   3.731  34.993 -0.8281  1.5263  0.5107
15987TIP3    H269453   3.656   3.664  34.928  0.9194 -0.6461 -0.6125
15988TIP3   OH269454   3.726   2.191  44.479 -0.0818 -0.1520 -0.4062
15988TIP3    H169455   3.796   2.138  44.516 -0.9387 -0.0812  1.3932
15988TIP3    H269456   3.721   2.268  44.536 -1.7889 -0.2767 -0.3420
15989TIP3   OH269457   0.575   3.716  42.419  0.1357 -0.3234 -0.2514
15989TIP3    H169458   0.632   3.791  42.438 -1.1075  0.9162 -1.2667
15989TIP3    H269459   0.631   3.640  42.434  0.8173  0.6560  3.0727
15990TIP3   OH269460   2.858   3.715  37.712 -0.0999 -0.1615  0.2327
15990TIP3    H169461   2.893   3.698  37.625 -1.8594  0.7768 -0.7136
15990TIP3    H269462   2.821   3.631  37.740 -0.4327 -0.2110 -0.3541
15991TIP3   OH269463   4.095   2.490   0.885 -0.1632 -0.2174 -0.0225
15991TIP3    H169464   4.138   2.462   0.804  1.4086  0.5173  0.5305
15991TIP3    H269465   4.104   2.585   0.886  0.1967 -0.2495  1.2154
15992TIP3   OH269466   2.392   0.740  31.034 -0.4769 -0.6200  0.5861
15992TIP3    H169467   2.460   0.804  31.055 -0.1903 -0.6341 -0.2450
15992TIP3    H269468   2.310   0.788  31.045 -0.2340  0.4720 -1.7082
15993TIP3   OH269469   1.134   3.390   1.020 -0.0677  0.1766  0.2295
15993TIP3    H169470   1.136   3.473   1.068  0.6780 -0.2254  0.9300
15993TIP3    H269471   1.133   3.415   0.928 -0.0380  0.9642  0.4358
15994TIP3   OH269472   1.142   3.024  37.419  0.1760 -0.7392  0.0981
15994TIP3    H169473   1.111   2.934  37.406  0.1146 -0.5849 -0.8671
15994TIP3    H269474   1.069   3.079  37.392 -0.0186 -0.3779  1.2851
15995TIP3   OH269475   2.294   0.051  27.768 -0.5363  0.5296  0.3488
15995TIP3    H169476   2.375   0.092  27.798 -0.2217  0.6723 -0.6527
15995TIP3    H269477   2.318  -0.042  27.756 -0.7671  0.3951  0.9074
15996TIP3   OH269478   2.963   1.224   8.450  0.2463  0.0878  0.4848
15996TIP3    H169479   2.946   1.288   8.380 -0.6827  0.2014  0.7973
15996TIP3    H269480   2.903   1.249   8.520 -0.3279 -1.2749  0.5145
15997TIP3   OH269481   3.987   0.053   5.948 -0.4011 -0.1776 -0.6547
15997TIP3    H169482   3.995   0.021   5.858 -0.3848 -1.4939 -0.2029
15997TIP3    H269483   3.909   0.108   5.947  0.6061  1.3173 -1.8754
15998TIP3   OH269484   1.706   1.203  12.064 -0.0621  0.2384 -0.0410
15998TIP3    H169485   1.674   1.114  12.053 -1.5471  0.8388 -1.0131
15998TIP3    H269486   1.699   1.220  12.158  0.9009 -0.8750  0.2539
15999TIP3   OH269487   1.418   3.742  41.184 -0.6998  0.0864 -0.2829
15999TIP3    H169488   1.401   3.693  41.265 -0.0014 -0.2222 -0.3160
15999TIP3    H269489   1.338   3.732  41.133 -1.0593  0.0880  0.2734
16000TIP3   OH269490   0.881   3.438  35.731  0.6164 -0.1077 -0.3257
16000TIP3    H169491   0.946   3.502  35.700 -0.4067  0.6393 -0.9781
16000TIP3    H269492   0.914   3.354  35.700  2.0898  0.0462  0.7152
16001TIP3   OH269493   2.908   2.781   2.373 -0.6604 -0.2478 -0.4066
16001TIP3    H169494   2.920   2.782   2.278  0.2187 -0.0234 -0.3011
16001TIP3    H269495   2.818   2.811   2.385 -0.2229  1.4736 -1.0982
16002TIP3   OH269496   1.813   3.252  47.231  0.4329  0.0191  0.6194
16002TIP3    H169497   1.860   3.259  47.314  0.6091 -2.2482  0.7834
16002TIP3    H269498   1.740   3.192  47.249 -0.9581  1.3683 -0.2993
16003TIP3   OH269499   1.755   1.243   2.971  0.4404 -0.0209 -0.4850
16003TIP3    H169500   1.683   1.248   2.908 -0.2845 -1.5208  0.1905
16003TIP3    H269501   1.712   1.227   3.055  1.4690  0.9047  0.2475
16004TIP3   OH269502   3.985   1.770   5.104  0.2997  0.0146 -0.4943
16004TIP3    H169503   4.029   1.729   5.178  0.4007  0.3912 -0.3452
16004TIP3    H269504   4.055   1.809   5.053  0.4686 -1.9099 -1.8717
16005TIP3   OH269505   2.006   1.949  33.738  0.0447  0.1645 -0.5401
16005TIP3    H169506   2.059   1.952  33.659  1.0940  0.2693  0.1479
16005TIP3    H269507   2.058   1.899  33.801 -0.2376  1.0946  0.4690
16006TIP3   OH269508   1.854   3.106  39.394 -0.7025  0.4454 -0.0458
16006TIP3    H169509   1.941   3.104  39.434  0.4240 -0.6076 -2.3507
16006TIP3    H269510   1.831   3.199  39.390  0.2858  0.7346  0.6069
16007TIP3   OH269511   2.878   2.206  16.975 -0.2875 -0.0447 -0.1082
16007TIP3    H169512   2.861   2.216  16.881 -0.1940  0.1161 -0.1093
16007TIP3    H269513   2.812   2.260  17.018 -0.6404 -0.5130 -0.0651
16008TIP3   OH269514   2.703   1.649  10.240  0.1392  0.3800 -0.2854
16008TIP3    H169515   2.780   1.643  10.297  0.2103 -0.2499 -0.4326
16008TIP3    H269516   2.726   1.717  10.176  0.8230 -0.1968 -0.6790
16009TIP3   OH269517   3.322   3.810   1.617 -0.3824  0.1996 -0.1928
16009TIP3    H169518   3.353   3.898   1.636 -1.0540  0.6922 -1.2502
16009TIP3    H269519   3.240   3.823   1.569 -0.7619 -1.0071  0.0776
16010TIP3   OH269520   1.779   3.480  37.300 -0.3543 -0.1466  0.4178
16010TIP3    H169521   1.864   3.445  37.274 -0.3532 -0.7081  1.1516
16010TIP3    H269522   1.717   3.410  37.278 -0.4823 -0.1907  0.8972
16011TIP3   OH269523   3.215   3.046  10.864  0.0708 -0.2875 -0.2334
16011TIP3    H169524   3.146   3.040  10.930  1.3489 -0.0179  1.1985
16011TIP3    H269525   3.250   3.134  10.874  1.6548 -0.9314  0.1881
16012TIP3   OH269526   2.531   0.286   9.136  0.0304 -0.2652 -0.2108
16012TIP3    H169527   2.613   0.242   9.158  0.0892 -0.7767 -1.3571
16012TIP3    H269528   2.559   0.365   9.089 -0.0922  0.7391  1.3338
16013TIP3   OH269529   2.382   4.087   9.733  0.1302  0.4596 -0.3842
16013TIP3    H169530   2.343   4.035   9.663  0.6827 -1.7889  0.8749
16013TIP3    H269531   2.448   4.141   9.690  0.8399 -1.2600 -1.5663
16014TIP3   OH269532   1.074   2.468  40.332 -0.8752  0.2639  0.5194
16014TIP3    H169533   1.103   2.483  40.422  0.8093 -0.3091  0.1052
16014TIP3    H269534   1.106   2.543  40.283 -0.2002 -0.2999  0.0786
16015TIP3   OH269535   2.132   2.531  33.281 -0.3502 -0.3230  0.1611
16015TIP3    H169536   2.193   2.489  33.341 -0.2393  0.1309  0.3679
16015TIP3    H269537   2.064   2.567  33.336 -0.5554 -0.4104 -0.0330
16016TIP3   OH269538   0.304   2.099  20.865  0.1270 -0.0332  0.4329
16016TIP3    H169539   0.322   2.161  20.794 -0.3045 -0.7674 -0.3391
16016TIP3    H269540   0.327   2.014  20.828 -2.7421 -0.7774  0.1402
16017TIP3   OH269541   4.018   2.164  14.914 -0.3722  0.3312  0.2202
16017TIP3    H169542   3.975   2.186  14.997 -0.6610 -1.7561  0.6743
16017TIP3    H269543   4.111   2.178  14.931 -0.3349 -0.9932  1.2283
16018TIP3   OH269544   1.166   1.470  36.736 -0.5789 -0.4000  0.3041
16018TIP3    H169545   1.148   1.558  36.702 -0.0719  0.5451  2.3204
16018TIP3    H269546   1.257   1.453  36.713 -0.6903 -0.4336 -0.1246
16019TIP3   OH269547   1.781   2.266  46.189 -0.3693 -0.7208  0.1504
16019TIP3    H169548   1.740   2.179  46.180  1.0436 -1.3909  0.0056
16019TIP3    H269549   1.738   2.304  46.265 -1.0774 -1.5109  0.1616
16020TIP3   OH269550   2.026   2.056   6.061  0.3201  0.5822 -0.2071
16020TIP3    H169551   2.045   1.989   6.127  2.1094  1.4183  0.1875
16020TIP3    H269552   1.934   2.041   6.038  0.6395 -2.0041 -0.1577
16021TIP3   OH269553   2.940   0.980  41.783  0.1557 -0.7096 -0.2219
16021TIP3    H169554   2.962   1.055  41.728  1.6875 -1.1713 -0.2784
16021TIP3    H269555   3.000   0.986  41.857 -1.2275 -0.6445  0.9440
16022TIP3   OH269556   2.003   3.878   7.693  1.0366 -0.5740  0.0499
16022TIP3    H169557   1.981   3.866   7.600 -0.3309 -3.2152  0.6314
16022TIP3    H269558   1.918   3.889   7.736  1.7267  2.6547  0.8745
16023TIP3   OH269559   0.427   1.350  31.678  0.1734 -0.5508  0.2852
16023TIP3    H169560   0.401   1.426  31.625  2.1007 -0.7109 -0.9967
16023TIP3    H269561   0.383   1.364  31.762  0.3817  1.9807  0.0770
16024TIP3   OH269562   2.656   0.031  31.569  0.0526  0.1689  0.5732
16024TIP3    H169563   2.636   0.109  31.518 -0.4332  0.6650  1.4820
16024TIP3    H269564   2.600   0.038  31.646 -0.1113 -1.1680  0.5955
16025TIP3   OH269565   2.073   1.766  10.218 -0.3146  0.4215 -0.6566
16025TIP3    H169566   2.157   1.802  10.189  0.7045 -0.6494  0.7691
16025TIP3    H269567   2.062   1.686  10.166  0.7418 -0.6654  0.6913
16026TIP3   OH269568   2.266   1.129  13.618  0.0395 -0.3965  0.0275
16026TIP3    H169569   2.190   1.140  13.677 -0.0351  0.9911 -0.3030
16026TIP3    H269570   2.233   1.155  13.532  0.5773 -0.9555 -0.3549
16027TIP3   OH269571   2.060   3.861  41.673 -0.3745  0.3112 -0.6414
16027TIP3    H169572   2.130   3.812  41.629 -0.1801  1.7243 -2.0022
16027TIP3    H269573   2.077   3.849  41.766  1.5843  0.4748 -0.9412
16028TIP3   OH269574   0.515   0.521  11.571  0.4465  0.8660  0.3642
16028TIP3    H169575   0.571   0.459  11.616 -3.0346 -0.4514  3.4296
16028TIP3    H269576   0.553   0.607  11.590  3.2524 -0.0037 -0.7845
16029TIP3   OH269577   1.410   3.696   7.189 -0.1208  0.3000  0.1018
16029TIP3    H169578   1.486   3.742   7.153 -0.5328  1.3406  0.5054
16029TIP3    H269579   1.408   3.612   7.143  1.1175  0.3592 -0.0989
16030TIP3   OH269580   2.329   4.099  25.368 -0.4321  0.3844  0.7242
16030TIP3    H169581   2.361   4.172  25.315  0.2630 -1.7332 -1.9943
16030TIP3    H269582   2.391   4.028  25.352 -1.3438 -1.0178  2.8757
16031TIP3   OH269583   3.488   0.841   9.460 -0.5500  0.2055 -0.5146
16031TIP3    H169584   3.506   0.934   9.478 -0.4093  0.0149  0.3787
16031TIP3    H269585   3.501   0.798   9.544 -0.4092 -0.6631 -0.9735
16032TIP3   OH269586   2.008   0.334  26.396  0.1138  0.3156  0.2558
16032TIP3    H169587   2.103   0.338  26.407  0.0920 -2.1708  2.3874
16032TIP3    H269588   1.973   0.343  26.484 -1.4950 -0.8307 -0.2232
16033TIP3   OH269589   3.113   3.515  11.411 -0.5284 -0.2085 -0.3463
16033TIP3    H169590   3.064   3.490  11.333 -0.2214  0.6067 -0.8116
16033TIP3    H269591   3.124   3.609  11.403  0.4901 -0.2791  0.1164
16034TIP3   OH269592   1.643   3.138  37.464  0.0903 -0.6246  0.2846
16034TIP3    H169593   1.600   3.104  37.385 -1.2550 -0.7682  1.0520
16034TIP3    H269594   1.733   3.105  37.458  0.3166  0.1944 -1.6699
16035TIP3   OH269595   0.422   0.549   6.838 -0.2175  0.2641  0.1236
16035TIP3    H169596   0.420   0.638   6.803 -1.0529  0.9182  1.7260
16035TIP3    H269597   0.340   0.541   6.887 -0.6865 -1.7859 -0.8904
16036TIP3   OH269598   0.129   2.597  15.318  0.2550 -0.1865  0.3855
16036TIP3    H169599   0.147   2.504  15.328 -0.3852 -0.2691  0.8417
16036TIP3    H269600   0.033   2.603  15.316  0.2796  0.2808 -1.4041
16037TIP3   OH269601   3.571   2.800  39.303  0.0883 -0.5564  0.2170
16037TIP3    H169602   3.619   2.883  39.295  1.6962 -1.4697 -0.0296
16037TIP3    H269603   3.482   2.821  39.275  0.2938  1.2233  0.7650
16038TIP3   OH269604   0.664   2.951  42.843 -0.1425 -0.3459  0.1733
16038TIP3    H169605   0.597   2.982  42.781 -0.4872  0.3456  0.8681
16038TIP3    H269606   0.645   2.858  42.854 -1.0178 -0.1599  0.3642
16039TIP3   OH269607   2.719   1.756   8.287  0.1597  0.2751 -0.0503
16039TIP3    H169608   2.635   1.736   8.246 -0.0916  1.4991 -0.1704
16039TIP3    H269609   2.784   1.729   8.222 -0.0563 -1.6442  0.4488
16040TIP3   OH269610   0.584   1.653  13.070 -0.3378 -0.4449  0.2749
16040TIP3    H169611   0.610   1.732  13.022 -1.3543  0.1298  0.6542
16040TIP3    H269612   0.606   1.671  13.161 -0.6714 -0.5540  0.3786
16041TIP3   OH269613   0.124   0.506  24.668  0.0532 -0.2472 -0.1245
16041TIP3    H169614   0.104   0.422  24.626 -0.7708  0.4368 -1.1488
16041TIP3    H269615   0.039   0.548  24.681  0.3960  0.0707  1.1637
16042TIP3   OH269616   3.760   0.998   9.756  0.0576  0.7291 -0.2136
16042TIP3    H169617   3.759   0.929   9.823 -0.6699 -0.0536 -0.9972
16042TIP3    H269618   3.808   1.070   9.796  1.6073 -0.5464  0.3226
16043TIP3   OH269619   3.563   1.829   2.680 -0.2855 -0.1565 -0.0812
16043TIP3    H169620   3.579   1.924   2.678  1.2543 -0.3285  1.3822
16043TIP3    H269621   3.472   1.820   2.708 -0.6579  0.8811 -0.9016
16044TIP3   OH269622   2.564   0.695   5.986  0.1062 -0.3323 -0.2626
16044TIP3    H169623   2.505   0.637   6.034  1.0620 -0.9630  0.1962
16044TIP3    H269624   2.640   0.705   6.044 -0.1074  1.5607 -0.2332
16045TIP3   OH269625   2.531   0.512   7.085 -0.2135  0.0895 -0.3334
16045TIP3    H169626   2.563   0.562   7.161  1.0017 -0.1231 -0.6839
16045TIP3    H269627   2.611   0.476   7.045 -0.9582 -0.9797 -0.8893
16046TIP3   OH269628   1.361   3.860  29.856 -0.4467  0.5551  0.7422
16046TIP3    H169629   1.305   3.836  29.929 -1.1913  1.5629  0.5285
16046TIP3    H269630   1.303   3.905  29.794  0.0986 -0.5554 -0.6305
16047TIP3   OH269631   0.263   3.525  39.727 -0.1300  0.4117 -0.7834
16047TIP3    H169632   0.317   3.474  39.666  0.4308  2.2552 -1.8999
16047TIP3    H269633   0.280   3.616  39.704 -4.2896  1.1299 -1.7028
16048TIP3   OH269634   2.800   0.190  44.135 -0.6631 -0.2552  0.2210
16048TIP3    H169635   2.829   0.151  44.052 -1.6123 -1.2654  0.3334
16048TIP3    H269636   2.875   0.182  44.193 -0.7444 -1.7723  0.1690
16049TIP3   OH269637   0.178   0.420  15.261 -0.4872 -0.3706 -0.8543
16049TIP3    H169638   0.231   0.431  15.341 -2.7557 -0.7982  0.8152
16049TIP3    H269639   0.207   0.337  15.224  1.7359  0.5995 -1.4703
16050TIP3   OH269640   0.814   1.771  12.191  0.2360 -0.5748  0.1917
16050TIP3    H169641   0.720   1.763  12.207  0.3385 -1.5475  0.3904
16050TIP3    H269642   0.853   1.702  12.245  0.8228 -2.1585 -2.1074
16051TIP3   OH269643   0.087   0.592  39.352  0.6115 -0.4152 -0.3012
16051TIP3    H169644   0.120   0.648  39.422  1.2958  2.1286 -2.5132
16051TIP3    H269645   0.060   0.511  39.397  0.5201  1.2377  2.9192
16052TIP3   OH269646   0.527   1.393  10.391  0.3504 -1.0205  0.6455
16052TIP3    H169647   0.494   1.367  10.478  0.4206 -0.9607  0.6893
16052TIP3    H269648   0.466   1.460  10.362  1.5386  0.5341  1.5739
16053TIP3   OH269649   1.322   0.574  39.218  0.0564  0.2060 -0.4322
16053TIP3    H169650   1.233   0.607  39.205 -0.1487 -0.5230 -0.9251
16053TIP3    H269651   1.372   0.610  39.145  0.3444  1.1879  0.2230
16054TIP3   OH269652   2.237   1.619  18.965  0.1331  0.5571 -0.5913
16054TIP3    H169653   2.192   1.600  19.047 -0.1091 -0.3733 -0.9291
16054TIP3    H269654   2.327   1.589  18.979  0.2613  1.0126 -0.4369
16055TIP3   OH269655   0.006   1.457  13.696 -0.2249 -0.5076  0.2405
16055TIP3    H169656  -0.035   1.456  13.610  2.6965 -0.5490 -1.2813
16055TIP3    H269657   0.061   1.536  13.695 -1.1460  0.2645  2.6657
16056TIP3   OH269658   2.707   1.480   2.845  0.2237 -0.1697 -0.0477
16056TIP3    H169659   2.787   1.467   2.794 -0.4321  0.2171 -1.1977
16056TIP3    H269660   2.712   1.571   2.874 -0.4052  0.2355 -1.1964
16057TIP3   OH269661   2.337   0.468  15.886  0.2385 -0.1717 -0.2335
16057TIP3    H169662   2.382   0.529  15.945 -0.2064  0.0896 -0.1593
16057TIP3    H269663   2.349   0.506  15.799 -0.7559  0.4793 -0.0973
16058TIP3   OH269664   0.377   3.895   2.012  0.1334 -0.3005 -0.2104
16058TIP3    H169665   0.394   3.846   1.931  0.5807 -0.1239 -0.2251
16058TIP3    H269666   0.456   3.885   2.064 -0.7583 -1.7878  0.9322
16059TIP3   OH269667   0.204   1.767  39.100 -0.0579  0.4523  0.8442
16059TIP3    H169668   0.182   1.820  39.177 -0.0269  0.1021  1.0968
16059TIP3    H269669   0.264   1.700  39.134  1.5782  1.4846  0.1644
16060TIP3   OH269670   2.470   1.795   7.385 -0.0225  0.0805  0.0196
16060TIP3    H169671   2.391   1.742   7.371  0.3227 -0.4168 -0.0414
16060TIP3    H269672   2.479   1.800   7.480 -0.7047  1.0108  0.0618
16061TIP3   OH269673   0.667   0.615  36.261 -0.3740  0.0109 -0.2397
16061TIP3    H169674   0.756   0.628  36.292 -0.3491  1.2498 -0.7746
16061TIP3    H269675   0.644   0.527  36.289  0.8962 -0.1945  0.1944
16062TIP3   OH269676   1.629   2.808   9.565 -0.3915  0.2270 -0.6505
16062TIP3    H169677   1.544   2.835   9.530 -0.1020  2.4618  0.1940
16062TIP3    H269678   1.692   2.870   9.527  0.3301  0.8292  1.3424
16063TIP3   OH269679   4.010   0.837  32.357 -0.2236 -0.0688 -0.0537
16063TIP3    H169680   3.983   0.745  32.346  0.5697 -0.5921  1.8614
16063TIP3    H269681   3.969   0.863  32.440  0.8171  0.8035  0.2011
16064TIP3   OH269682   3.361   1.107   7.395  0.0607 -0.4555  0.0417
16064TIP3    H169683   3.387   1.134   7.484 -1.7900 -0.3243  0.6013
16064TIP3    H269684   3.419   1.034   7.374  1.5149  0.4404  0.7445
16065TIP3   OH269685   3.814   3.286  26.232 -0.4822  0.0245  0.0640
16065TIP3    H169686   3.899   3.302  26.272  0.1883 -0.8170 -0.9479
16065TIP3    H269687   3.822   3.321  26.144 -1.2335  0.0620  0.0041
16066TIP3   OH269688   2.910   0.984  43.450 -0.1909  0.2023 -0.0252
16066TIP3    H169689   2.929   1.077  43.453 -0.3201  0.2412 -0.3449
16066TIP3    H269690   2.975   0.947  43.390 -1.3870  0.4158 -1.5094
16067TIP3   OH269691   3.016   0.965  45.819 -0.0213 -0.1324 -0.5263
16067TIP3    H169692   3.094   1.020  45.819  0.6939 -1.0155  1.9356
16067TIP3    H269693   3.043   0.884  45.775 -0.3135  0.4607 -1.8426
16068TIP3   OH269694   3.294   1.454  16.885 -0.6036 -0.3230 -0.1005
16068TIP3    H169695   3.369   1.418  16.837 -0.5658 -0.6521  0.1994
16068TIP3    H269696   3.325   1.537  16.920 -0.5903 -0.1394 -0.5286
16069TIP3   OH269697   0.207   2.932  34.947 -0.4244 -0.0121  0.0495
16069TIP3    H169698   0.124   2.884  34.951 -0.6237  0.3746  0.6655
16069TIP3    H269699   0.182   3.023  34.934 -0.1349  0.2043  0.9217
16070TIP3   OH269700   2.464   1.997  11.793  0.1796 -0.0348 -0.2939
16070TIP3    H169701   2.478   2.023  11.701 -1.9495  0.6747 -0.4733
16070TIP3    H269702   2.439   1.905  11.788 -0.2348  0.0840 -0.4720
16071TIP3   OH269703   2.954   1.638  13.035  0.3075  0.3373  0.0765
16071TIP3    H169704   2.946   1.587  12.954 -1.9971 -2.2151  1.7517
16071TIP3    H269705   3.041   1.617  13.068  0.1852 -0.8742 -0.3408
16072TIP3   OH269706   2.628   2.779  36.228 -0.4640  0.2348 -0.1239
16072TIP3    H169707   2.670   2.703  36.187  0.6039  0.6525  0.1607
16072TIP3    H269708   2.636   2.763  36.322  0.8021  1.2053 -0.0348
16073TIP3   OH269709   2.125   4.098  39.615  0.3489 -0.5384 -0.1886
16073TIP3    H169710   2.061   4.133  39.554  0.1021  0.3533  0.5524
16073TIP3    H269711   2.207   4.140  39.590  0.3977 -0.7401 -0.3657
16074TIP3   OH269712   0.977   2.198  35.221  0.2178 -0.0929  0.0750
16074TIP3    H169713   1.035   2.136  35.177  0.8121  0.7545 -0.3764
16074TIP3    H269714   0.987   2.279  35.172  0.2976  0.6694  1.3002
16075TIP3   OH269715   1.380   1.411  16.205  1.1209 -0.5546 -0.1115
16075TIP3    H169716   1.423   1.476  16.150  0.6055  0.1422  0.2883
16075TIP3    H269717   1.321   1.364  16.146  1.1158 -0.3069 -0.3041
16076TIP3   OH269718   0.928   2.382   1.644  0.0988  0.1680 -0.2687
16076TIP3    H169719   0.884   2.452   1.691  0.6379 -0.0360  0.5666
16076TIP3    H269720   1.020   2.390   1.670  0.3951 -0.0189 -1.2133
16077TIP3   OH269721   1.040   3.762  42.204  0.4139  0.1187 -0.0674
16077TIP3    H169722   1.084   3.677  42.205  2.3700  1.0571  1.1239
16077TIP3    H269723   1.058   3.799  42.291  0.8780  2.3245 -1.0271
16078TIP3   OH269724   1.691   3.961  25.776  0.2663  0.1300 -0.3838
16078TIP3    H169725   1.652   3.987  25.693 -0.5026 -0.8968 -0.3677
16078TIP3    H269726   1.782   3.991  25.771 -0.2944  1.9012 -0.7301
16079TIP3   OH269727   3.661   1.254  42.373  0.6840  0.3372 -0.4106
16079TIP3    H169728   3.709   1.188  42.423 -0.8964 -0.2722  0.3825
16079TIP3    H269729   3.659   1.330  42.432  0.0889  0.1192 -0.1417
16080TIP3   OH269730   3.130   2.313  43.152  0.6828 -0.5149  0.6665
16080TIP3    H169731   3.200   2.376  43.139 -0.1463  0.5660  1.2827
16080TIP3    H269732   3.061   2.363  43.195 -1.0811 -1.1418 -1.2700
16081TIP3   OH269733   0.477   1.075  42.769 -0.4251  0.2253  0.2148
16081TIP3    H169734   0.464   1.007  42.704  2.9079  0.8879 -1.3981
16081TIP3    H269735   0.572   1.085  42.774 -0.6788  2.6756  2.6157
16082TIP3   OH269736   0.415   0.792  34.648  0.2402  0.7383  0.3008
16082TIP3    H169737   0.490   0.736  34.671  0.6894  2.9549  5.5486
16082TIP3    H269738   0.455   0.867  34.605  0.2046 -0.5189 -2.0974
16083TIP3   OH269739   0.986   4.068  45.647 -0.1468  0.2311 -0.0241
16083TIP3    H169740   0.901   4.025  45.643 -0.2357  0.1666  1.6454
16083TIP3    H269741   1.047   3.999  45.675 -0.0715  0.8624  1.4715
16084TIP3   OH269742   3.686   3.399  46.705  0.5449  0.0121  0.5236
16084TIP3    H169743   3.629   3.451  46.649 -0.8409 -0.0778  1.7678
16084TIP3    H269744   3.769   3.393  46.658  0.0155  1.4569 -0.6515
16085TIP3   OH269745   3.630   2.034  36.616  0.1125  0.0036  0.1412
16085TIP3    H169746   3.649   1.982  36.538  3.4597  0.8085  0.2908
16085TIP3    H269747   3.640   2.125  36.587 -1.6745  0.4632  0.8318
16086TIP3   OH269748   3.599   1.420   2.817  0.5265  0.1951  0.1684
16086TIP3    H169749   3.655   1.474   2.761  1.5131 -0.6857  0.2635
16086TIP3    H269750   3.653   1.344   2.838  0.1825  0.4416  2.2379
16087TIP3   OH269751   2.693   3.783  35.094  0.2423 -0.3013 -0.6853
16087TIP3    H169752   2.755   3.774  35.022 -0.4285  1.9051 -1.5928
16087TIP3    H269753   2.620   3.833  35.058  0.0681  1.2349  1.5897
16088TIP3   OH269754   0.915   0.128  41.225 -0.2157 -0.3478 -0.1892
16088TIP3    H169755   0.845   0.184  41.256 -0.1157 -1.1238  1.5752
16088TIP3    H269756   0.876   0.040  41.222  0.3819 -0.6210 -0.1540
16089TIP3   OH269757   0.017   1.422  37.918  0.1502 -0.0076  0.1279
16089TIP3    H169758  -0.045   1.352  37.941  1.2053 -1.7447 -1.8996
16089TIP3    H269759   0.101   1.390  37.950  0.4578  1.0414  0.4122
16090TIP3   OH269760   1.409   3.542  38.074 -0.3909  0.8546 -0.6248
16090TIP3    H169761   1.329   3.515  38.118  1.7532 -1.8909  1.9455
16090TIP3    H269762   1.403   3.501  37.987 -1.6714  0.6178 -0.4483
16091TIP3   OH269763   3.400   2.092   2.687  0.3084 -0.2553  0.4050
16091TIP3    H169764   3.315   2.070   2.649  0.1370  0.4490  0.3618
16091TIP3    H269765   3.459   2.102   2.612 -0.1646  1.7090  0.2363
16092TIP3   OH269766   3.250   2.355  14.859  0.0166 -0.9455  0.4208
16092TIP3    H169767   3.182   2.409  14.900 -1.1169 -0.7336 -1.6173
16092TIP3    H269768   3.210   2.269  14.851  0.0808 -0.8988 -0.5139
16093TIP3   OH269769   2.446   0.530   5.713  0.0422 -0.0088 -0.4527
16093TIP3    H169770   2.354   0.551   5.733  0.2334 -0.5691  1.1682
16093TIP3    H269771   2.483   0.612   5.681 -0.6677  0.6059  0.2678
16094TIP3   OH269772   3.054   4.084  13.303  0.0885 -0.4552 -0.0507
16094TIP3    H169773   3.124   4.041  13.351  0.0536 -1.3305 -0.7466
16094TIP3    H269774   3.084   4.083  13.212  0.3054  1.4582 -0.0416
16095TIP3   OH269775   3.450   1.028  13.187  0.3216 -0.6201  0.0805
16095TIP3    H169776   3.492   0.983  13.259  1.3363 -1.3172 -0.9120
16095TIP3    H269777   3.440   0.961  13.119  0.0271  0.1717 -0.6862
16096TIP3   OH269778   2.174   2.505   6.319  0.2155 -0.3427  0.0100
16096TIP3    H169779   2.163   2.412   6.303  0.1853 -0.3182 -0.1093
16096TIP3    H269780   2.201   2.510   6.411 -2.3947 -0.2913  0.8478
16097TIP3   OH269781   2.514   1.701   6.221  0.9767 -0.2734 -0.1530
16097TIP3    H169782   2.528   1.695   6.315  2.0316 -0.6373 -0.3157
16097TIP3    H269783   2.514   1.795   6.203 -0.1038 -0.1707  0.3178
16098TIP3   OH269784   3.384   0.804  46.715 -0.0387 -0.4771 -0.4886
16098TIP3    H169785   3.297   0.842  46.717 -0.0434 -0.3303 -2.2195
16098TIP3    H269786   3.369   0.710  46.699  0.1031 -0.5871  0.0024
16099TIP3   OH269787   2.445   1.808  20.110 -0.7000 -0.3161 -0.4570
16099TIP3    H169788   2.437   1.729  20.164 -2.7211 -1.6205 -2.5069
16099TIP3    H269789   2.377   1.866  20.143  0.3321  0.3392  0.5933
16100TIP3   OH269790   3.587   3.393   5.669  0.9020  0.0418  0.0245
16100TIP3    H169791   3.613   3.389   5.761 -0.5980  1.2563  0.5559
16100TIP3    H269792   3.583   3.302   5.641  0.1315 -0.4214  1.5476
16101TIP3   OH269793   2.090   1.886  20.684 -0.1199  0.1134  0.1391
16101TIP3    H169794   2.086   1.882  20.779 -1.6672 -0.0809  0.0934
16101TIP3    H269795   2.020   1.946  20.659 -0.7405 -0.9932 -0.9281
16102TIP3   OH269796   4.063   2.301  46.531  0.2641 -0.1021 -0.2385
16102TIP3    H169797   3.988   2.360  46.531  0.6932  0.5436 -2.4470
16102TIP3    H269798   4.038   2.229  46.474  0.9137 -0.4233 -0.1307
16103TIP3   OH269799   2.105   2.816  46.803 -0.0571  0.2359  0.0556
16103TIP3    H169800   2.073   2.782  46.887  0.3088  0.2533  0.2055
16103TIP3    H269801   2.097   2.743  46.742 -0.8504  0.3921 -0.0319
16104TIP3   OH269802   3.387   1.501  33.107 -0.1633 -0.5621 -0.2606
16104TIP3    H169803   3.342   1.488  33.191  0.5006  0.3569  0.2449
16104TIP3    H269804   3.316   1.521  33.046 -0.3679  2.7934  0.9118
16105TIP3   OH269805   0.861   1.302  32.170 -0.4055  0.6404 -0.1630
16105TIP3    H169806   0.793   1.290  32.103  0.4611  1.2434 -1.1913
16105TIP3    H269807   0.885   1.394  32.162 -0.8492  0.9402  1.5732
16106TIP3   OH269808   1.768   0.786  44.970 -0.2779 -0.1804  0.1816
16106TIP3    H169809   1.804   0.870  45.000  0.3968 -0.1263 -0.7332
16106TIP3    H269810   1.820   0.764  44.893 -0.5845 -1.3492  0.2870
16107TIP3   OH269811   0.710   2.472   1.211 -0.2565 -0.4481  0.0558
16107TIP3    H169812   0.725   2.461   1.117  1.4837 -0.0601  0.2478
16107TIP3    H269813   0.639   2.535   1.217 -1.5850 -1.7741 -0.9863
16108TIP3   OH269814   0.954   0.833  11.183  0.3710  0.0880  0.3598
16108TIP3    H169815   0.899   0.885  11.124 -0.6046 -1.6989 -0.3668
16108TIP3    H269816   0.892   0.788  11.240  1.1930 -0.4097  0.8841
16109TIP3   OH269817   1.496   0.661  39.006  0.7546 -0.0784 -0.2144
16109TIP3    H169818   1.469   0.669  38.914  0.3562  0.7001 -0.0382
16109TIP3    H269819   1.493   0.750  39.040 -0.1607 -0.4935  0.8569
16110TIP3   OH269820   2.179   1.689  40.661  0.3590 -0.8683 -0.5325
16110TIP3    H169821   2.108   1.717  40.719  0.3917 -1.1232 -0.3695
16110TIP3    H269822   2.240   1.642  40.718  1.6490  1.0243 -0.2677
16111TIP3   OH269823   3.721   0.929  39.678  0.8155  0.9360  0.5193
16111TIP3    H169824   3.802   0.909  39.725  1.6921  0.4938 -1.0909
16111TIP3    H269825   3.665   0.971  39.743  1.9611  0.3632  1.9331
16112TIP3   OH269826   2.686   3.308  15.240 -0.4570 -0.6632 -0.0867
16112TIP3    H169827   2.620   3.373  15.217  0.6761  0.9435  0.9980
16112TIP3    H269828   2.636   3.228  15.259 -1.9749  0.2077 -0.2766
16113TIP3   OH269829   3.109   3.246  44.664  0.0663  0.4540  0.2442
16113TIP3    H169830   3.016   3.229  44.646  0.0529 -1.3322  1.6620
16113TIP3    H269831   3.124   3.207  44.751  1.8086  2.0267  0.7200
16114TIP3   OH269832   1.756   2.085   9.754  0.1727 -0.0070  0.1068
16114TIP3    H169833   1.755   2.044   9.841  0.4989  0.2978  0.2591
16114TIP3    H269834   1.671   2.128   9.747  0.6912  1.2271  0.9032
16115TIP3   OH269835   1.110   3.627  24.437 -0.2413  0.3693  0.3962
16115TIP3    H169836   1.114   3.658  24.527 -1.7038  2.0051 -0.0505
16115TIP3    H269837   1.028   3.663  24.403 -0.5263 -1.5396 -1.1188
16116TIP3   OH269838   1.476   3.857   4.397 -0.3224 -0.1490 -0.1718
16116TIP3    H169839   1.517   3.781   4.437 -0.4166 -1.1125 -1.7966
16116TIP3    H269840   1.430   3.901   4.468 -0.0740 -1.4896  0.8468
16117TIP3   OH269841   2.702   1.879  20.133 -0.0095  0.1771 -0.3409
16117TIP3    H169842   2.737   1.789  20.134  0.8942  0.5086 -1.0491
16117TIP3    H269843   2.615   1.871  20.094 -0.5241 -0.5777  0.8829
16118TIP3   OH269844   0.341   0.768  32.952 -0.7984  0.4680  0.0983
16118TIP3    H169845   0.305   0.683  32.926 -1.2547  0.1468  1.6633
16118TIP3    H269846   0.435   0.752  32.965 -0.5418  0.6560 -1.3196
16119TIP3   OH269847   1.143   1.250  37.401 -0.1492  0.3332 -0.5557
16119TIP3    H169848   1.201   1.197  37.347 -1.5057 -0.9611 -0.8222
16119TIP3    H269849   1.063   1.258  37.349 -0.7668  0.7537  0.4261
16120TIP3   OH269850   3.193   2.017   7.368  0.8297 -0.4592  0.1937
16120TIP3    H169851   3.161   2.105   7.347  1.8501 -0.1828 -0.2917
16120TIP3    H269852   3.150   1.995   7.450  1.1686  0.8365  0.7528
16121TIP3   OH269853   2.522   3.073   9.371  0.0142 -0.0429  0.2156
16121TIP3    H169854   2.525   2.983   9.338 -1.1651 -0.1593  0.3856
16121TIP3    H269855   2.513   3.127   9.293 -0.5307 -0.1585  0.1995
16122TIP3   OH269856   2.722   1.106   6.994 -0.2122  0.5063  0.3499
16122TIP3    H169857   2.796   1.074   6.943  0.1844  1.3977  0.3478
16122TIP3    H269858   2.756   1.116   7.083 -0.6902 -0.2945  0.6412
16123TIP3   OH269859   1.471   2.440   6.685 -0.0559  0.2621 -0.1486
16123TIP3    H169860   1.560   2.474   6.682 -0.6796  1.9605 -0.5073
16123TIP3    H269861   1.459   2.394   6.602  0.4157  0.1710 -0.1685
16124TIP3   OH269862   1.169   3.846  39.043 -0.0691 -0.7296  0.7102
16124TIP3    H169863   1.160   3.831  38.949 -0.9512 -0.0339  0.6772
16124TIP3    H269864   1.082   3.830  39.078 -0.0135  0.1167  1.2566
16125TIP3   OH269865   3.221   0.587   1.414 -0.2568  0.4203  1.0142
16125TIP3    H169866   3.261   0.592   1.327 -0.7781 -2.0680  0.5509
16125TIP3    H269867   3.240   0.671   1.455  2.2826  0.6802 -0.5321
16126TIP3   OH269868   1.753   3.188  34.908  0.2729  0.2889 -0.1710
16126TIP3    H169869   1.723   3.167  34.997  1.3094 -1.9643 -0.2656
16126TIP3    H269870   1.830   3.243  34.921  2.4482 -2.6576  0.6165
16127TIP3   OH269871   1.601   1.359   6.846 -0.0915 -0.3003 -0.1196
16127TIP3    H169872   1.528   1.421   6.849 -0.1012 -0.2903 -0.5459
16127TIP3    H269873   1.599   1.324   6.757  0.1574 -0.6221  0.0013
16128TIP3   OH269874   2.857   2.048  40.695 -0.2271  0.1580  0.1367
16128TIP3    H169875   2.846   2.144  40.692 -2.4803 -0.0471 -0.1856
16128TIP3    H269876   2.847   2.027  40.788  1.7303  0.3391  0.4184
16129TIP3   OH269877   3.936   1.539  15.672  0.1219  0.0739  0.5159
16129TIP3    H169878   3.904   1.545  15.762  0.4749 -0.3755  0.6732
16129TIP3    H269879   3.861   1.566  15.618 -0.8442 -1.8346  0.8382
16130TIP3   OH269880   2.421   1.610  40.241  0.5515 -0.9129 -0.1507
16130TIP3    H169881   2.392   1.684  40.188  0.4037  1.0159  2.4381
16130TIP3    H269882   2.360   1.540  40.219 -1.0502  0.5835 -0.7145
16131TIP3   OH269883   4.054   1.462  12.257 -0.3985 -0.0561 -0.3616
16131TIP3    H169884   4.012   1.493  12.337  1.0912  0.0817  0.4137
16131TIP3    H269885   3.983   1.428  12.203 -1.3687 -0.7275  1.2870
16132TIP3   OH269886   3.858   2.206  39.609 -0.0470 -0.6296 -0.1764
16132TIP3    H169887   3.928   2.203  39.674  0.4194 -0.7866 -0.6817
16132TIP3    H269888   3.791   2.146  39.643 -0.5093  0.4761  0.9334
16133TIP3   OH269889   1.646   3.140  38.136  0.3700  0.2036  0.4099
16133TIP3    H169890   1.680   3.197  38.067  0.5074  0.2207  0.4908
16133TIP3    H269891   1.551   3.150  38.130  0.2695 -1.1212 -0.9233
16134TIP3   OH269892   1.928   2.380   9.873  0.4144 -0.5201  0.1118
16134TIP3    H169893   1.924   2.460   9.820  1.3000  1.1692  2.4099
16134TIP3    H269894   1.986   2.321   9.825  0.4423  0.5683 -1.2277
16135TIP3   OH269895   1.854   3.852   3.663  0.2983 -0.4041  0.4176
16135TIP3    H169896   1.765   3.862   3.696 -0.4057  0.8053 -1.7192
16135TIP3    H269897   1.909   3.886   3.734 -0.9781 -0.0816  1.2924
16136TIP3   OH269898   4.066   2.882   5.836  0.0426  0.0866 -0.0529
16136TIP3    H169899   4.073   2.934   5.917 -0.1475 -0.9256  0.6307
16136TIP3    H269900   4.100   2.796   5.860 -2.9565 -1.2483 -0.0727
16137TIP3   OH269901   0.155   2.443   3.328 -0.6156  0.1376  0.1058
16137TIP3    H169902   0.081   2.424   3.387 -1.0762  2.5116  0.4139
16137TIP3    H269903   0.118   2.439   3.240 -0.0866 -2.7431 -0.0560
16138TIP3   OH269904   0.113   3.779  26.922 -0.2029 -0.2198  0.4516
16138TIP3    H169905   0.134   3.688  26.942 -0.5977 -0.2466  0.7689
16138TIP3    H269906   0.044   3.802  26.985 -2.1002 -0.5485 -1.3820
16139TIP3   OH269907   0.657   1.502  19.427 -0.4426  0.3356 -0.4598
16139TIP3    H169908   0.743   1.460  19.425 -0.8079 -0.4331 -0.5097
16139TIP3    H269909   0.647   1.541  19.340  0.8079  2.4528  0.2644
16140TIP3   OH269910   3.509   3.200  46.299 -0.4661 -0.0264  0.2642
16140TIP3    H169911   3.458   3.258  46.355 -0.1956  2.6596 -2.0681
16140TIP3    H269912   3.523   3.250  46.219  4.0072 -1.4301 -0.0712
16141TIP3   OH269913   3.685   2.588  32.951  0.3449  0.2449  0.1848
16141TIP3    H169914   3.757   2.538  32.912 -0.8720 -1.0832 -0.4434
16141TIP3    H269915   3.622   2.597  32.880  0.4041  2.4929  0.3675
16142TIP3   OH269916   1.357   0.829   9.384 -0.4369 -0.0321 -0.1873
16142TIP3    H169917   1.309   0.893   9.436 -0.3109  0.0890 -0.2184
16142TIP3    H269918   1.335   0.851   9.293 -1.0689 -0.5715 -0.1679
16143TIP3   OH269919   1.154   2.519  46.621 -0.0779  0.0266 -0.0801
16143TIP3    H169920   1.237   2.477  46.598 -0.3937  0.6057 -2.5147
16143TIP3    H269921   1.124   2.471  46.699  1.0038 -2.3096 -1.0026
16144TIP3   OH269922   3.682   2.490   0.800 -0.5138 -0.1049 -0.3638
16144TIP3    H169923   3.631   2.547   0.742 -0.6018  1.4693  1.1702
16144TIP3    H269924   3.618   2.429   0.836 -0.6255 -0.4851 -1.1909
16145TIP3   OH269925   3.920   0.938   1.021  0.1991  0.0398  0.1002
16145TIP3    H169926   3.879   0.989   1.091 -0.0555 -2.0465  1.6071
16145TIP3    H269927   3.878   0.851   1.028  2.2770 -1.0907 -0.7003
16146TIP3   OH269928   1.385   1.468  19.119 -0.4472  0.3152  0.2380
16146TIP3    H169929   1.457   1.530  19.108  1.0551 -1.4474 -0.3108
16146TIP3    H269930   1.400   1.400  19.054 -3.1861  0.3421 -0.5613
16147TIP3   OH269931   3.749   3.525  40.222  0.1068 -0.7791  0.7992
16147TIP3    H169932   3.790   3.503  40.139  0.0313  1.6868  0.0485
16147TIP3    H269933   3.821   3.524  40.285  1.0811  1.6503 -0.1635
16148TIP3   OH269934   3.179   2.136   0.703  0.2745  0.1586 -0.3718
16148TIP3    H169935   3.150   2.062   0.757  0.0048  1.3981  1.2670
16148TIP3    H269936   3.153   2.213   0.753  0.5919  1.3723 -2.0172
16149TIP3   OH269937   1.624   0.498  25.679 -0.2944 -0.1964  0.1176
16149TIP3    H169938   1.626   0.483  25.584 -1.5505 -0.0321  0.0531
16149TIP3    H269939   1.649   0.590  25.689  1.3646 -0.6172  0.0748
16150TIP3   OH269940   2.846   0.463  39.956  0.1966  0.6156 -0.2331
16150TIP3    H169941   2.907   0.446  40.029  0.4171  0.9594 -0.3370
16150TIP3    H269942   2.771   0.408  39.975  0.7395 -0.1896 -0.3509
16151TIP3   OH269943   3.425   1.327   8.954  0.0036 -0.2855  0.4104
16151TIP3    H169944   3.351   1.365   8.907  1.0908 -1.1074 -2.1658
16151TIP3    H269945   3.389   1.250   8.998 -0.6165 -1.0857 -1.3770
16152TIP3   OH269946   3.984   4.062  34.301 -0.2995  0.2455 -0.7654
16152TIP3    H169947   3.969   4.040  34.393 -0.6775  4.0491  0.2223
16152TIP3    H269948   3.906   4.029  34.256 -1.8290  1.3594  0.9169
16153TIP3   OH269949   2.367   2.169  38.907 -0.2692 -0.1504  0.1486
16153TIP3    H169950   2.342   2.103  38.842  1.7087  0.3186 -1.1717
16153TIP3    H269951   2.462   2.166  38.909 -0.1292  2.2804  0.4571
16154TIP3   OH269952   3.710   0.873  39.986 -0.0463  0.5821  0.0974
16154TIP3    H169953   3.747   0.919  40.061  0.3378  0.8208 -0.2408
16154TIP3    H269954   3.770   0.801  39.970 -1.0727 -0.5661  1.1442
16155TIP3   OH269955   2.519   3.857   6.758  0.1891 -0.3933 -0.9082
16155TIP3    H169956   2.576   3.781   6.747 -0.4940 -0.9331 -0.7842
16155TIP3    H269957   2.575   3.923   6.799  0.5844 -1.0959 -0.2902
16156TIP3   OH269958   3.305   1.312  10.804 -0.3656  0.1448 -0.4111
16156TIP3    H169959   3.374   1.248  10.787 -0.3914  0.3953 -1.5641
16156TIP3    H269960   3.317   1.378  10.736  0.2617  1.8919  1.3049
16157TIP3   OH269961   2.111   2.652  14.765 -0.0128  0.6944  0.5797
16157TIP3    H169962   2.185   2.697  14.725  0.6282 -0.3484  0.5679
16157TIP3    H269963   2.139   2.634  14.855  0.8232 -1.9885 -0.1359
16158TIP3   OH269964   1.403   0.830  26.977  0.0428 -0.2458  0.4653
16158TIP3    H169965   1.374   0.742  26.953 -0.0390  0.1726 -1.0818
16158TIP3    H269966   1.452   0.860  26.901  0.0728  1.0489  0.9787
16159TIP3   OH269967   0.134   1.566   9.852 -0.4581 -0.1886 -0.3822
16159TIP3    H169968   0.127   1.659   9.830  2.3888 -0.0543 -1.1352
16159TIP3    H269969   0.100   1.520   9.775  0.0825  0.2557 -0.8926
16160TIP3   OH269970   3.038   3.190   5.736  0.0179  0.1935  0.1073
16160TIP3    H169971   3.039   3.140   5.654 -2.3559  0.2446 -0.0291
16160TIP3    H269972   2.978   3.262   5.719 -0.0060  0.5758  1.6845
16161TIP3   OH269973   1.105   2.962   1.753 -0.1031 -0.0575 -0.2455
16161TIP3    H169974   1.033   2.901   1.736 -0.2037 -0.1233  0.3636
16161TIP3    H269975   1.064   3.048   1.747 -0.4342 -0.1141  0.8934
16162TIP3   OH269976   0.683   0.600  31.050  0.2091  0.3226 -0.0129
16162TIP3    H169977   0.624   0.673  31.067  0.9638  1.0694 -0.5002
16162TIP3    H269978   0.632   0.540  30.996 -0.4803  0.4080  0.5397
16163TIP3   OH269979   0.570   0.286  25.419  0.4352 -0.1418  0.0099
16163TIP3    H169980   0.628   0.343  25.470  1.9549 -1.9569  0.4011
16163TIP3    H269981   0.593   0.304  25.328  1.1168 -0.3032  0.1397
16164TIP3   OH269982   2.991   0.119  10.818 -0.1322 -0.3383  0.6443
16164TIP3    H169983   3.085   0.139  10.820 -0.0782 -0.6010  0.7557
16164TIP3    H269984   2.986   0.024  10.826 -0.2898 -0.6082 -1.7377
16165TIP3   OH269985   1.582   1.809  33.335  0.1119  0.3219 -0.4764
16165TIP3    H169986   1.540   1.850  33.411  0.1979 -0.7764  0.1805
16165TIP3    H269987   1.510   1.767  33.288  0.0544  1.0299 -1.0346
16166TIP3   OH269988   2.366   3.291  12.248 -0.1795  0.0325 -0.0831
16166TIP3    H169989   2.305   3.237  12.196 -1.9610  1.7689  0.0606
16166TIP3    H269990   2.354   3.261  12.338  0.0940 -0.4555 -0.2087
16167TIP3   OH269991   2.848   0.247  37.703 -0.5193  0.1778 -0.0185
16167TIP3    H169992   2.860   0.299  37.624  1.8133  0.5845  0.5434
16167TIP3    H269993   2.757   0.265  37.729 -0.3198  2.7020 -0.7580
16168TIP3   OH269994   3.245   3.137  45.469  0.3048 -0.0042 -0.1228
16168TIP3    H169995   3.196   3.110  45.546  0.3454  0.4418  0.0621
16168TIP3    H269996   3.185   3.123  45.396  0.1259 -0.0461  0.0325
16169TIP3   OH269997   2.074   3.677  32.291 -0.3499 -0.5033 -0.1458
16169TIP3    H169998   2.109   3.753  32.337  0.2275 -1.1832  0.5846
16169TIP3    H269999   2.049   3.709  32.205 -0.1560  0.5141  0.1721
16170TIP3   OH270000   3.750   3.701  12.479  0.3613  0.1147  0.3297
16170TIP3    H170001   3.677   3.762  12.479  0.2284 -0.0434  0.4028
16170TIP3    H270002   3.777   3.695  12.388 -1.2575 -1.6567 -0.1147
16171TIP3   OH270003   1.413   2.889   7.835 -0.2100  0.1664 -0.5824
16171TIP3    H170004   1.406   2.835   7.914 -0.5686  0.3737 -0.4686
16171TIP3    H270005   1.453   2.831   7.770  1.3603  0.4117  0.1333
16172TIP3   OH270006   3.722   2.675   1.215  0.0652 -0.1875 -0.2427
16172TIP3    H170007   3.633   2.647   1.195  0.5941 -2.0613 -0.1354
16172TIP3    H270008   3.768   2.670   1.131  0.2534  0.0330 -0.1541
16173TIP3   OH270009   0.538   2.359  15.105 -0.4927  0.2179 -0.5585
16173TIP3    H170010   0.460   2.409  15.126 -0.8284 -0.7525  0.6420
16173TIP3    H270011   0.576   2.337  15.190  0.5183 -0.1917 -1.0968
16174TIP3   OH270012   0.712   1.528   8.986 -0.3559 -0.3862 -0.2328
16174TIP3    H170013   0.783   1.465   8.981 -0.2830 -0.3850  0.5946
16174TIP3    H270014   0.695   1.554   8.896 -0.2965 -1.4853 -0.5698
16175TIP3   OH270015   2.325   0.547  40.753 -0.1844 -0.4891 -0.1268
16175TIP3    H170016   2.254   0.578  40.698  1.6923 -1.0049 -3.0696
16175TIP3    H270017   2.399   0.536  40.693  2.4921  0.2322  2.7676
16176TIP3   OH270018   3.823   3.428   9.390 -0.2873  0.0217  0.7284
16176TIP3    H170019   3.763   3.455   9.320  1.2273 -0.8461 -0.9681
16176TIP3    H270020   3.782   3.462   9.470 -0.6096  3.6793 -0.7946
16177TIP3   OH270021   3.602   1.680   8.984  0.6895 -0.7095 -0.1397
16177TIP3    H170022   3.554   1.751   9.027  2.2288  0.4143 -0.2004
16177TIP3    H270023   3.557   1.666   8.901 -1.8588 -2.3683  1.3877
16178TIP3   OH270024   2.227   3.279  13.135  0.6225  0.3739  0.5616
16178TIP3    H170025   2.162   3.225  13.089  1.1126  0.5583 -0.3657
16178TIP3    H270026   2.311   3.243  13.108  0.9682  1.7402 -0.2832
16179TIP3   OH270027   1.636   0.288   2.458  0.2819  0.2996 -0.2837
16179TIP3    H170028   1.541   0.296   2.461  0.2856  0.2523 -0.0635
16179TIP3    H270029   1.669   0.354   2.519  0.4154  0.7532 -0.8314
16180TIP3   OH270030   2.701   3.813   8.888  0.2555 -0.6073 -0.1889
16180TIP3    H170031   2.779   3.865   8.871  0.2441 -0.1525  1.0370
16180TIP3    H270032   2.629   3.877   8.886  0.0642 -0.8189 -0.1220
16181TIP3   OH270033   0.904   3.143   3.950  0.2937  0.4758 -0.6467
16181TIP3    H170034   0.993   3.107   3.951  0.4050  0.6123  1.6919
16181TIP3    H270035   0.909   3.217   3.890  2.4749  1.9717  1.1555
16182TIP3   OH270036   2.013   3.909  31.780  0.0461  0.1816 -0.2577
16182TIP3    H170037   1.974   3.855  31.712 -0.0689 -0.9266  0.6599
16182TIP3    H270038   1.971   3.995  31.769 -2.4292 -0.8403  0.4121
16183TIP3   OH270039   1.421   2.669   6.953 -0.3891  0.1665 -0.0581
16183TIP3    H170040   1.359   2.597   6.943 -0.6205  0.1524  1.2887
16183TIP3    H270041   1.388   2.738   6.895  0.5580 -1.2214 -2.3816
16184TIP3   OH270042   1.113   1.099   9.190  0.0314 -0.6844 -0.4866
16184TIP3    H170043   1.045   1.110   9.257  0.6106  0.1007 -0.0040
16184TIP3    H270044   1.086   1.157   9.119  0.0765 -0.5430 -0.3893
16185TIP3   OH270045   1.716   1.076   4.205  0.6150 -0.0858 -0.2364
16185TIP3    H170046   1.782   1.063   4.274 -0.2696 -2.0017  0.3269
16185TIP3    H270047   1.714   0.992   4.158 -1.2503  0.0005 -0.3765
16186TIP3   OH270048   0.556   1.617  15.354  0.7352  0.1836  0.4053
16186TIP3    H170049   0.624   1.638  15.418  1.7904 -0.5177 -0.4458
16186TIP3    H270050   0.580   1.531  15.321  0.8823  0.9830 -1.7417
16187TIP3   OH270051   3.666   2.284  36.572  0.4897  0.3567  0.0071
16187TIP3    H170052   3.600   2.348  36.599 -0.6567 -0.1689 -1.4095
16187TIP3    H270053   3.741   2.337  36.545  0.8712  0.9442  2.1024
16188TIP3   OH270054   2.082   3.417  40.927 -0.4701  0.4072 -0.1656
16188TIP3    H170055   1.996   3.432  40.966 -0.7738 -0.8102 -0.3302
16188TIP3    H270056   2.133   3.377  40.998  0.2451  1.8821  0.1956
16189TIP3   OH270057   2.433   3.253   0.837  0.0798 -0.4576 -0.2534
16189TIP3    H170058   2.345   3.261   0.799  0.0884 -0.2179 -0.2247
16189TIP3    H270059   2.426   3.179   0.898 -0.7296  1.0087  1.5151
16190TIP3   OH270060   1.017   1.985  38.451 -0.0553 -0.1287  0.0449
16190TIP3    H170061   1.104   1.957  38.422 -0.1590  1.2032 -1.7144
16190TIP3    H270062   1.033   2.032  38.533  0.8651 -0.0621 -0.1626
16191TIP3   OH270063   1.475   2.311  12.650 -0.1114  0.2978 -0.2159
16191TIP3    H170064   1.539   2.381  12.633  1.2170 -0.7395  0.3644
16191TIP3    H270065   1.429   2.340  12.729 -0.9317  1.4160 -1.0642
16192TIP3   OH270066   2.164   3.098   8.492  0.3803  0.6482 -0.2348
16192TIP3    H170067   2.070   3.083   8.479  0.2763  1.1533 -0.0704
16192TIP3    H270068   2.169   3.181   8.539  0.9073  0.5670 -0.1432
16193TIP3   OH270069   0.482   2.680   1.895  0.2820 -0.1258  0.6559
16193TIP3    H170070   0.423   2.712   1.827 -0.7452 -1.8953  0.6452
16193TIP3    H270071   0.567   2.718   1.873 -0.2907  0.3159 -0.9031
16194TIP3   OH270072   0.073   0.401   8.264 -0.4489 -0.6642 -0.0915
16194TIP3    H170073   0.035   0.422   8.179 -0.1027 -0.9200 -0.3122
16194TIP3    H270074   0.055   0.478   8.318 -1.7475 -0.9931 -0.0297
16195TIP3   OH270075   1.110   1.358  47.524 -0.2977  0.1009  0.2391
16195TIP3    H170076   1.053   1.286  47.499 -0.2589  0.5222 -1.1386
16195TIP3    H270077   1.191   1.341  47.476 -0.3950  1.2175 -0.3343
16196TIP3   OH270078   2.578   1.736   3.978  0.0662 -0.8125  0.2825
16196TIP3    H170079   2.580   1.799   3.906  0.8703  1.5013  2.2312
16196TIP3    H270080   2.511   1.672   3.951 -0.8269  0.8644 -1.7616
16197TIP3   OH270081   0.053   1.866  46.451  0.0024 -0.0073 -0.4633
16197TIP3    H170082   0.104   1.801  46.498 -0.5213 -1.3249 -1.6582
16197TIP3    H270083  -0.030   1.823  46.433 -0.0252  0.6395 -2.0727
16198TIP3   OH270084   0.653   3.257  13.915  0.3648  0.4260  0.1827
16198TIP3    H170085   0.681   3.242  13.824 -0.6260  1.6852 -0.3510
16198TIP3    H270086   0.633   3.169  13.948  0.2963 -0.0085 -0.9604
16199TIP3   OH270087   2.502   4.098  29.989  0.1251  0.2844  0.4131
16199TIP3    H170088   2.463   4.123  29.905 -1.5147  0.9973  1.3406
16199TIP3    H270089   2.481   4.171  30.048 -1.2737 -1.3916  2.1596
16200TIP3   OH270090   3.757   4.085  41.931  0.0994  0.7154  0.0888
16200TIP3    H170091   3.675   4.130  41.949  0.7785  2.1128 -0.1270
16200TIP3    H270092   3.816   4.155  41.902  0.4378 -0.6632 -2.9513
16201TIP3   OH270093   1.983   2.129  15.675  0.5285  0.2288  0.5207
16201TIP3    H170094   2.077   2.146  15.671  0.4605  0.5979  0.4361
16201TIP3    H270095   1.948   2.200  15.729  0.4561 -0.5836  1.5775
16202TIP3   OH270096   0.337   2.781  33.876 -0.5359 -0.1197  0.2462
16202TIP3    H170097   0.416   2.753  33.829 -1.3186 -2.6750  0.2966
16202TIP3    H270098   0.266   2.764  33.814 -1.1144  2.0462  0.2396
16203TIP3   OH270099   3.082   1.426  42.440 -0.0373  1.0932 -0.2729
16203TIP3    H170100   3.077   1.484  42.364  0.3201 -0.1697 -1.2966
16203TIP3    H270101   3.009   1.364  42.427  0.6403  0.2455 -0.1426
16204TIP3   OH270102   2.630   3.586  14.802  0.5351  0.4879 -0.2062
16204TIP3    H170103   2.703   3.647  14.812  1.6798 -1.1153  1.8354
16204TIP3    H270104   2.593   3.578  14.890 -0.7875 -0.3542 -0.8114
16205TIP3   OH270105   2.057   3.787  34.251  0.8129  0.1785 -0.1927
16205TIP3    H170106   2.033   3.878  34.234  0.4158 -0.1248 -1.3822
16205TIP3    H270107   2.149   3.791  34.277  1.6861  0.7383 -2.9566
16206TIP3   OH270108   2.519   0.778   7.806  0.0506 -0.6742 -0.7221
16206TIP3    H170109   2.515   0.683   7.801  0.4392 -0.7535  0.3092
16206TIP3    H270110   2.486   0.799   7.893  0.1070  0.1275 -0.8876
16207TIP3   OH270111   0.377   1.354  44.095  0.1790  0.2921  0.0685
16207TIP3    H170112   0.305   1.316  44.145  0.3507  0.9595  0.8550
16207TIP3    H270113   0.371   1.448  44.113  0.2848  0.5410 -1.1401
16208TIP3   OH270114   1.234   0.279   9.072 -0.4914  0.0976 -0.1127
16208TIP3    H170115   1.242   0.365   9.114  0.8144 -0.9688  1.9940
16208TIP3    H270116   1.153   0.242   9.107 -1.0234  0.4149 -0.9756
16209TIP3   OH270117   3.613   0.097  43.670  0.6160 -0.3737  0.0771
16209TIP3    H170118   3.688   0.098  43.729  0.2324  0.4089  0.5742
16209TIP3    H270119   3.538   0.115  43.727  0.3720  1.7708 -0.8207
16210TIP3   OH270120   2.592   2.551  46.438 -0.8171 -0.0957  0.1072
16210TIP3    H170121   2.526   2.609  46.476 -1.3216 -0.6609  0.1084
16210TIP3    H270122   2.588   2.472  46.492 -0.4295 -0.2961 -0.1548
16211TIP3   OH270123   0.273   3.386   3.343  0.7357 -0.1019  0.5183
16211TIP3    H170124   0.181   3.396   3.316  1.2446 -0.0037 -1.3585
16211TIP3    H270125   0.268   3.354   3.432 -1.1451 -0.8134  0.2149
16212TIP3   OH270126   3.013   3.020   9.840 -0.1235 -0.0980 -0.1372
16212TIP3    H170127   2.940   3.064   9.796  0.7618  0.3760 -1.1836
16212TIP3    H270128   3.058   2.973   9.770 -0.2647 -1.6273  0.7420
16213TIP3   OH270129   3.961   3.368  25.482 -0.0320  0.3358 -0.1552
16213TIP3    H170130   3.888   3.320  25.443 -0.8921  0.5848  1.0775
16213TIP3    H270131   3.979   3.321  25.564  1.4200  0.0929 -0.5873
16214TIP3   OH270132   1.373   0.544  45.037  0.4475 -0.1770 -0.0204
16214TIP3    H170133   1.410   0.472  44.986 -1.3444 -0.8407 -0.4514
16214TIP3    H270134   1.352   0.505  45.121 -2.3769 -0.7652 -0.9073
16215TIP3   OH270135   0.689   0.513   0.846  0.4595  0.0517 -0.5027
16215TIP3    H170136   0.617   0.451   0.850 -1.2440  1.9538  0.0562
16215TIP3    H270137   0.724   0.505   0.758 -1.4492  0.1310 -1.3116
16216TIP3   OH270138   2.771   0.380  47.285 -0.0891 -0.0257 -0.2855
16216TIP3    H170139   2.780   0.453  47.224 -0.9993  0.3643  0.0316
16216TIP3    H270140   2.853   0.331  47.276  0.3047  0.7231 -0.8970
16217TIP3   OH270141   0.747   0.194   9.841 -0.1744 -0.1963 -1.0893
16217TIP3    H170142   0.683   0.239   9.897 -1.4989 -1.7734 -1.2599
16217TIP3    H270143   0.762   0.254   9.768  0.4576  1.2580  0.1811
16218TIP3   OH270144   0.025   2.034   5.211 -0.3017  0.3830  0.4775
16218TIP3    H170145   0.043   1.974   5.139  0.9374  1.1944  0.0760
16218TIP3    H270146   0.056   2.119   5.180 -0.4309  0.8956  1.6804
16219TIP3   OH270147   4.090   2.723  42.853 -0.1168 -0.3841  0.0905
16219TIP3    H170148   4.174   2.677  42.860 -0.2708 -0.4866  1.3484
16219TIP3    H270149   4.110   2.814  42.876 -0.0630 -0.0655 -1.1483
16220TIP3   OH270150   3.108   4.023  39.705 -0.1047  0.4707  0.1406
16220TIP3    H170151   3.070   3.960  39.644  0.0860  0.2359  0.2653
16220TIP3    H270152   3.188   3.981  39.736 -0.2375  0.5613  0.6077
16221TIP3   OH270153   0.496   2.773  34.414 -0.2274 -0.3308  0.1750
16221TIP3    H170154   0.456   2.853  34.380  0.4521  0.1650  0.5050
16221TIP3    H270155   0.426   2.708  34.413 -0.9296  0.4099  0.3732
16222TIP3   OH270156   0.345   1.434   3.732  0.9473 -1.0894 -0.0526
16222TIP3    H170157   0.284   1.425   3.659 -0.5515  0.6195  0.9106
16222TIP3    H270158   0.432   1.428   3.691  0.1501 -0.8216 -1.8875
16223TIP3   OH270159   2.858   3.535  40.800 -0.2726 -0.9504  0.3580
16223TIP3    H170160   2.835   3.451  40.760  0.3561 -1.1671  0.4455
16223TIP3    H270161   2.777   3.564  40.842 -1.1216 -0.4449 -1.5061
16224TIP3   OH270162   2.023   3.514   0.973  0.7614 -0.6491  0.3199
16224TIP3    H170163   1.976   3.597   0.978  1.2117  0.0643 -3.9044
16224TIP3    H270164   2.111   3.533   1.005  0.7931  0.4918 -0.3993
16225TIP3   OH270165   3.582   3.287  42.333 -0.3698 -0.2681  0.1069
16225TIP3    H170166   3.513   3.328  42.385 -1.0613 -1.2617 -0.0088
16225TIP3    H270167   3.585   3.196  42.364 -1.2540 -1.0762 -2.0226
16226TIP3   OH270168   1.634   3.775  36.983  0.0765  0.0548  1.0127
16226TIP3    H170169   1.719   3.820  36.977 -0.5035  1.2142  1.1912
16226TIP3    H270170   1.627   3.728  36.900  0.9430 -0.1433  1.0370
16227TIP3   OH270171   0.614   4.066   5.017  0.6069 -0.4042  0.1006
16227TIP3    H170172   0.594   4.100   5.105 -0.7798 -0.5954 -0.1195
16227TIP3    H270173   0.599   4.141   4.959  3.7385  0.4244  0.1731
16228TIP3   OH270174   2.333   0.153   4.591  0.1043 -0.4493 -0.0949
16228TIP3    H170175   2.415   0.131   4.547 -0.3972  0.5595 -1.5886
16228TIP3    H270176   2.291   0.216   4.534 -1.9473 -1.2855  0.4168
16229TIP3   OH270177   1.542   2.071  44.325 -0.1393  0.2486  0.3136
16229TIP3    H170178   1.520   2.073  44.232 -1.9948 -1.1031  0.6673
16229TIP3    H270179   1.612   2.136  44.334 -1.2483  1.8434 -1.6629
16230TIP3   OH270180   1.471   0.446   7.366 -0.6005 -0.1078  0.3107
16230TIP3    H170181   1.467   0.389   7.289 -2.6065 -1.7977  1.5657
16230TIP3    H270182   1.507   0.529   7.332 -0.2604 -1.1703 -2.1626
16231TIP3   OH270183   3.040   0.556  40.570 -0.2333  0.5829  0.5751
16231TIP3    H170184   3.099   0.630  40.562 -0.5665  0.7370 -0.8211
16231TIP3    H270185   2.954   0.592  40.550 -0.6072  0.0864  1.2428
16232TIP3   OH270186   1.033   1.133  13.368 -0.5053  0.1007  0.5437
16232TIP3    H170187   0.954   1.085  13.394 -0.0412 -0.8796  0.2064
16232TIP3    H270188   1.084   1.069  13.319  0.9988  0.3896  1.6926
16233TIP3   OH270189   2.032   0.789   7.514 -1.2827 -0.3552 -0.5830
16233TIP3    H170190   2.124   0.764   7.518 -1.1963 -0.4929 -2.4003
16233TIP3    H270191   2.028   0.852   7.442 -2.8320 -1.4965 -1.5636
16234TIP3   OH270192   1.304   0.769   5.443  0.4259 -0.0054 -0.4732
16234TIP3    H170193   1.348   0.823   5.377  1.3054 -1.1707 -0.8803
16234TIP3    H270194   1.217   0.752   5.407 -0.2468  1.9075  0.1081
16235TIP3   OH270195   2.984   4.020   7.071 -0.1921 -0.3775 -0.3483
16235TIP3    H170196   2.989   4.052   6.981  0.7702  0.1363 -0.1369
16235TIP3    H270197   2.964   4.099   7.123  1.0395 -0.3017  0.0571
16236TIP3   OH270198   3.116   2.424  43.997 -0.6441  0.6617  0.0719
16236TIP3    H170199   3.061   2.432  44.075 -1.1002  0.1435 -0.1881
16236TIP3    H270200   3.116   2.330  43.978  2.1598  0.3004  1.3753
16237TIP3   OH270201   0.941   0.284  10.191  0.0484  0.1178 -0.3761
16237TIP3    H170202   0.988   0.283  10.275 -0.3491 -0.5329 -0.1514
16237TIP3    H270203   0.850   0.268  10.215 -0.2457  1.0167 -0.8412
16238TIP3   OH270204   2.440   0.533  14.202  0.0890  0.5261 -0.4114
16238TIP3    H170205   2.484   0.617  14.210 -0.9675  1.0404  0.2387
16238TIP3    H270206   2.379   0.530  14.275  0.2045 -0.8808 -0.3359
16239TIP3   OH270207   1.184   3.906  45.165 -0.3361 -0.3518  0.2350
16239TIP3    H170208   1.199   4.001  45.172 -0.7767 -0.3596  1.7438
16239TIP3    H270209   1.209   3.884  45.075  0.7932  1.0088  0.1789
16240TIP3   OH270210   2.692   2.491   5.135  0.7505 -0.7410 -0.5470
16240TIP3    H170211   2.677   2.575   5.179  0.5482 -1.2276  0.3143
16240TIP3    H270212   2.653   2.504   5.048  4.5578  1.5824 -2.1754
16241TIP3   OH270213   0.511   3.470  40.205 -0.4047  0.2482  0.1642
16241TIP3    H170214   0.431   3.517  40.181 -1.2961  0.2135  2.7388
16241TIP3    H270215   0.500   3.384  40.166 -1.4612  0.3690  0.1573
16242TIP3   OH270216   1.506   2.331   9.927 -0.2607 -0.0479  0.4696
16242TIP3    H170217   1.439   2.346   9.993  0.8437 -0.5324  1.7442
16242TIP3    H270218   1.588   2.353   9.971  0.7532 -2.7257  0.0721
16243TIP3   OH270219   0.319   3.341  13.770 -0.0636 -0.2111  0.9273
16243TIP3    H170220   0.263   3.302  13.703 -0.7968  1.2996  0.6130
16243TIP3    H270221   0.407   3.339  13.732 -0.3959  0.1773  0.1016
16244TIP3   OH270222   3.769   3.292  32.176  0.2292  0.3574  0.1970
16244TIP3    H170223   3.707   3.359  32.149 -1.1869 -0.0533  2.2332
16244TIP3    H270224   3.815   3.330  32.250  1.6879  0.2335 -0.6040
16245TIP3   OH270225   0.919   1.086   0.454 -0.4680  0.9334  0.6579
16245TIP3    H170226   0.905   1.098   0.548  0.9452  1.2288  0.8500
16245TIP3    H270227   0.881   1.164   0.414 -2.7415 -0.0390  0.7880
16246TIP3   OH270228   1.432   1.402   3.977  0.2607  0.0201  0.0816
16246TIP3    H170229   1.429   1.497   3.965 -0.7969 -0.0768 -0.6395
16246TIP3    H270230   1.520   1.377   3.949  1.2664  0.9806  2.1469
16247TIP3   OH270231   3.741   0.200   5.917  0.3758  0.5412  0.1100
16247TIP3    H170232   3.647   0.202   5.897  0.4138 -1.1996 -0.4333
16247TIP3    H270233   3.781   0.255   5.851 -0.1073 -0.2267 -0.8509
16248TIP3   OH270234   1.041   3.379  36.522  0.0705  0.1668 -0.1507
16248TIP3    H170235   1.030   3.406  36.431  0.4970  1.5710  0.2054
16248TIP3    H270236   1.036   3.460  36.573  0.9041 -0.4669  0.9849
16249TIP3   OH270237   1.943   1.835   8.713 -0.0953 -0.3324 -0.4313
16249TIP3    H170238   1.984   1.808   8.631  1.4598  2.1107 -0.5517
16249TIP3    H270239   1.852   1.852   8.689 -0.2784 -1.9710 -1.0614
16250TIP3   OH270240   2.555   1.421  18.905  0.4638  0.0937  0.9594
16250TIP3    H170241   2.507   1.402  18.986 -0.5438 -0.1255  0.3187
16250TIP3    H270242   2.637   1.461  18.935  0.1394 -0.0601  2.0902
16251TIP3   OH270243   0.087   0.046  42.406 -0.0158 -0.3283  0.2324
16251TIP3    H170244   0.105   0.128  42.452  0.9385 -0.7741  0.6646
16251TIP3    H270245   0.135  -0.021  42.455  0.8409 -0.8511 -1.2637
16252TIP3   OH270246   1.476   0.006  46.306 -0.1899  0.6694  0.4709
16252TIP3    H170247   1.477   0.054  46.389 -0.4113 -0.0132  0.8768
16252TIP3    H270248   1.437  -0.078  46.328  0.6750  0.1013 -0.1095
16253TIP3   OH270249   0.616   3.373  11.993  0.4153  0.3025 -0.5460
16253TIP3    H170250   0.698   3.337  11.961  0.0384 -1.3274  0.2029
16253TIP3    H270251   0.585   3.309  12.057 -1.8256  0.4671 -1.3788
16254TIP3   OH270252   1.014   3.266  35.230  0.2002  0.6386 -0.1036
16254TIP3    H170253   0.996   3.358  35.212  3.9522  1.8470  1.3889
16254TIP3    H270254   1.108   3.256  35.214  0.4696 -2.2480  2.3298
16255TIP3   OH270255   1.225   3.732  28.325  0.2323 -0.0200 -0.2947
16255TIP3    H170256   1.190   3.804  28.378 -0.8067 -0.9464  0.3276
16255TIP3    H270257   1.253   3.774  28.244 -1.9272  0.8953 -0.6456
16256TIP3   OH270258   2.103   2.237   8.426 -0.1542 -0.1758  0.5714
16256TIP3    H170259   2.113   2.142   8.433 -1.4761 -0.3964 -0.1554
16256TIP3    H270260   2.009   2.252   8.434 -0.3613  0.7517 -2.3352
16257TIP3   OH270261   2.642   2.291  46.155 -0.2832  0.1768 -0.0038
16257TIP3    H170262   2.590   2.312  46.077 -0.7484  1.3781  0.6170
16257TIP3    H270263   2.664   2.198  46.144 -0.5960  0.2450 -1.4116
16258TIP3   OH270264   1.001   2.555  45.433 -0.1761  0.0277  0.2609
16258TIP3    H170265   1.002   2.460  45.439 -0.4559  0.0956  2.0219
16258TIP3    H270266   1.004   2.574  45.340 -1.1679 -1.7183 -0.1586
16259TIP3   OH270267   0.340   3.074   7.240 -0.3505  0.4506  0.1342
16259TIP3    H170268   0.265   3.024   7.271 -0.5063  0.8488  0.4185
16259TIP3    H270269   0.416   3.019   7.259 -0.6191 -0.3007 -0.8742
16260TIP3   OH270270   3.410   1.065  10.533 -0.0281 -0.0997 -0.1369
16260TIP3    H170271   3.456   1.107  10.461 -0.9410  0.9163 -0.1622
16260TIP3    H270272   3.457   1.093  10.612 -0.5253  0.8578 -0.1664
16261TIP3   OH270273   0.244   3.544   0.997 -0.2927  0.3360 -0.5725
16261TIP3    H170274   0.201   3.575   1.077  0.8941  2.8827 -0.8319
16261TIP3    H270275   0.200   3.592   0.927  0.1947 -0.1756 -1.2352
16262TIP3   OH270276   2.565   1.899  17.097  0.3651 -0.6524  0.1612
16262TIP3    H170277   2.533   1.978  17.054  3.5381  0.7460  0.0718
16262TIP3    H270278   2.488   1.864  17.143 -1.8315  0.8318 -2.1099
16263TIP3   OH270279   3.650   3.543   6.378  0.0730  0.4224 -0.2127
16263TIP3    H170280   3.652   3.452   6.408  0.0619 -0.0664 -1.6317
16263TIP3    H270281   3.738   3.561   6.346  0.0708  0.9176  0.0372
16264TIP3   OH270282   0.310   3.710  45.137 -0.2578 -0.0177 -0.9120
16264TIP3    H170283   0.300   3.804  45.145 -0.4239  0.0240 -1.5840
16264TIP3    H270284   0.400   3.693  45.166 -0.6421  0.1761  0.4881
16265TIP3   OH270285   4.097   2.959  46.648  0.2400  0.0560  0.3804
16265TIP3    H170286   4.087   2.887  46.711  1.3702  1.9705  2.9142
16265TIP3    H270287   4.162   2.928  46.586  0.2136 -1.3574  1.0170
16266TIP3   OH270288   2.115   2.721   4.859  0.4771  0.8423 -0.0996
16266TIP3    H170289   2.179   2.734   4.929  0.3261  0.2069  0.1677
16266TIP3    H270290   2.161   2.669   4.793 -0.1077 -0.6837  0.6448
16267TIP3   OH270291   0.051   0.407  41.885 -0.3631 -0.4389  0.1506
16267TIP3    H170292   0.097   0.371  41.960  0.3923  1.6434  0.7427
16267TIP3    H270293  -0.040   0.413  41.913  0.1658  1.8465  1.5732
16268TIP3   OH270294   0.592   1.567  44.733 -0.2831  0.0620 -0.4305
16268TIP3    H170295   0.581   1.643  44.790 -0.6919 -1.4165  1.5952
16268TIP3    H270296   0.510   1.560  44.685 -1.0643 -0.2688  0.9106
16269TIP3   OH270297   2.052   3.239  37.531 -0.9610  0.0269 -0.2537
16269TIP3    H170298   2.131   3.292  37.544 -0.7207  0.3233 -2.4315
16269TIP3    H270299   2.003   3.248  37.613  1.2373 -0.1724  1.1575
16270TIP3   OH270300   3.899   0.299  39.395  0.0458  0.2451  0.0265
16270TIP3    H170301   3.876   0.354  39.470  1.0251 -0.2211  0.6921
16270TIP3    H270302   3.852   0.217  39.410  1.0437 -0.2275  0.6984
16271TIP3   OH270303   1.145   2.134  31.781  0.5169 -0.0495 -0.2211
16271TIP3    H170304   1.139   2.052  31.732 -0.4328 -0.5131  0.6379
16271TIP3    H270305   1.231   2.169  31.758 -0.4205  0.4809 -3.2932
16272TIP3   OH270306   3.618   1.669  32.309 -0.6383 -0.0669 -0.0823
16272TIP3    H170307   3.596   1.577  32.320  2.7966 -0.8957  1.1126
16272TIP3    H270308   3.670   1.692  32.387 -1.6431  3.0172 -0.1553
16273TIP3   OH270309   0.700   3.271  37.029 -0.0576 -0.4722 -0.3583
16273TIP3    H170310   0.691   3.298  37.120 -1.1848  1.8234 -1.0661
16273TIP3    H270311   0.633   3.204  37.017 -0.3299 -0.3347  0.3582
16274TIP3   OH270312   2.903   0.672  44.968  0.4879  0.5185  0.3314
16274TIP3    H170313   2.865   0.589  44.939 -0.0693  1.5054 -1.9624
16274TIP3    H270314   2.902   0.728  44.891 -1.4797  3.5685  2.3245
16275TIP3   OH270315   3.502   0.672  38.711 -0.0527  0.0466  0.3045
16275TIP3    H170316   3.443   0.597  38.702  0.7639 -0.6660  0.7982
16275TIP3    H270317   3.462   0.726  38.780  1.4709 -2.0496  3.0280
16276TIP3   OH270318   1.680   0.465   5.849 -0.2286 -0.3775  0.3709
16276TIP3    H170319   1.741   0.443   5.919 -1.3151 -2.1904  0.8107
16276TIP3    H270320   1.707   0.411   5.775  0.8431  1.4423 -0.6346
16277TIP3   OH270321   0.811   0.787  42.109  0.3965  0.1156 -0.3165
16277TIP3    H170322   0.778   0.836  42.034 -0.6017  0.0306  0.0599
16277TIP3    H270323   0.823   0.698  42.077  0.1880  0.1305 -0.4331
16278TIP3   OH270324   3.757   2.961   9.299  0.5446 -0.0797  0.4306
16278TIP3    H170325   3.748   2.995   9.210  0.2797 -1.3856 -0.0569
16278TIP3    H270326   3.668   2.936   9.324  0.7941 -0.8054  0.6102
16279TIP3   OH270327   0.790   0.603  41.327 -0.4945  0.3897 -0.0745
16279TIP3    H170328   0.835   0.625  41.245  0.8884 -0.1107  0.5177
16279TIP3    H270329   0.703   0.641  41.318 -0.1005  1.0126 -1.4542
16280TIP3   OH270330   1.497   1.211   2.808  0.1288 -0.3758 -0.0483
16280TIP3    H170331   1.546   1.200   2.727 -0.3254 -0.5115 -0.3132
16280TIP3    H270332   1.456   1.125   2.822 -0.3707 -0.1416 -0.0614
16281TIP3   OH270333   0.092   2.870  32.021 -0.6342 -0.5981 -0.2015
16281TIP3    H170334   0.015   2.824  32.055 -0.7106  1.6773  3.1998
16281TIP3    H270335   0.057   2.951  31.985  0.0011 -0.5415 -0.7142
16282TIP3   OH270336   2.721   3.526  44.501 -0.2998 -0.1120  0.2721
16282TIP3    H170337   2.656   3.459  44.482  0.1260 -0.3486 -0.3740
16282TIP3    H270338   2.778   3.527  44.424  1.4039 -0.9918  1.4659
16283TIP3   OH270339   3.133   2.539  44.871  0.3623  0.2757  0.0933
16283TIP3    H170340   3.069   2.606  44.892  0.2746  0.2297 -0.0312
16283TIP3    H270341   3.200   2.584  44.819 -0.2361  0.0359 -0.9116
16284TIP3   OH270342   1.162   3.403  35.448 -0.1505 -0.1027  0.2098
16284TIP3    H170343   1.133   3.313  35.460 -2.3995  0.6146  0.6810
16284TIP3    H270344   1.209   3.402  35.365 -1.8496 -1.3696 -0.8114
16285TIP3   OH270345   1.582   1.084   5.479  0.6760  0.1146  0.0400
16285TIP3    H170346   1.509   1.070   5.419  0.9463 -2.4197  0.2048
16285TIP3    H270347   1.574   1.014   5.544  2.0731  1.0256  1.2695
16286TIP3   OH270348   1.084   1.766  41.547  0.0836 -0.8666 -0.2608
16286TIP3    H170349   1.110   1.844  41.596 -1.1616 -0.9293  0.5257
16286TIP3    H270350   1.137   1.770  41.467  0.4349  0.4898  0.0143
16287TIP3   OH270351   2.017   3.619  10.000 -0.1318 -0.0197  0.1654
16287TIP3    H170352   1.973   3.534   9.991 -1.6998  0.7445  0.2130
16287TIP3    H270353   2.013   3.657   9.913 -0.2734  0.3868  0.3483
16288TIP3   OH270354   1.668   3.092   5.950 -0.4647 -0.4093  0.4359
16288TIP3    H170355   1.593   3.044   5.986 -0.3566 -0.0265  1.1898
16288TIP3    H270356   1.744   3.055   5.996 -0.3598  0.3162  0.8594
16289TIP3   OH270357   1.986   0.836   2.834  0.1131  0.0412  0.2542
16289TIP3    H170358   2.072   0.794   2.830  0.1318 -0.0663  1.4099
16289TIP3    H270359   2.006   0.929   2.844  0.1861 -0.2141  3.2669
16290TIP3   OH270360   2.371   0.529  42.291  0.3084  0.1432 -0.3653
16290TIP3    H170361   2.351   0.466  42.361 -0.3637  1.5110  0.7176
16290TIP3    H270362   2.320   0.498  42.216 -0.3817 -0.3498  0.2970
16291TIP3   OH270363   0.024   3.740   2.759  0.4148  0.3522 -0.0627
16291TIP3    H170364   0.105   3.738   2.810  1.3509 -2.9802 -1.3985
16291TIP3    H270365  -0.038   3.689   2.810  0.6673 -1.0910 -1.1422
16292TIP3   OH270366   2.319   3.460   0.300  0.4007 -0.0515  0.4575
16292TIP3    H170367   2.325   3.395   0.371 -0.2302 -1.0115 -0.3426
16292TIP3    H270368   2.229   3.453   0.269  0.8292 -0.0781 -0.8279
16293TIP3   OH270369   0.033   2.068  43.362  0.5032 -0.0081 -0.2273
16293TIP3    H170370   0.077   1.986  43.339  1.2874 -0.5239  2.6780
16293TIP3    H270371   0.100   2.135  43.350  0.0827  0.1649 -1.8873
16294TIP3   OH270372   3.723   0.245  26.356 -0.2337  0.1139  0.2956
16294TIP3    H170373   3.660   0.252  26.285  1.1943  1.5666 -0.9160
16294TIP3    H270374   3.756   0.155  26.351 -0.3262  0.1303 -0.7338
16295TIP3   OH270375   2.022   2.037  12.758 -0.1366 -0.0505  0.3169
16295TIP3    H170376   2.030   2.052  12.852 -1.0800 -0.1857  0.4306
16295TIP3    H270377   1.966   2.108  12.726 -1.2687 -0.9794  0.1717
16296TIP3   OH270378   2.590   1.361  12.161 -0.4553 -0.4000 -0.1263
16296TIP3    H170379   2.642   1.328  12.087 -0.6416 -2.4966  0.6130
16296TIP3    H270380   2.634   1.441  12.187  0.6593 -0.5631 -1.4019
16297TIP3   OH270381   1.213   1.815   9.009  0.0867  0.0648 -0.2609
16297TIP3    H170382   1.194   1.772   9.092 -2.3082  0.5623 -0.4754
16297TIP3    H270383   1.308   1.817   9.004  0.3408  1.0102  2.9773
16298TIP3   OH270384   1.294   3.355  46.370  0.3226 -0.1794  0.3095
16298TIP3    H170385   1.301   3.450  46.382 -0.1504 -0.2395  1.1529
16298TIP3    H270386   1.263   3.344  46.280  1.2839  0.4273 -0.1102
16299TIP3   OH270387   2.066   0.755  15.083  0.6567 -0.3536 -0.1936
16299TIP3    H170388   2.104   0.825  15.030  1.5580 -1.0179 -0.4485
16299TIP3    H270389   1.990   0.796  15.126  2.0722  1.2360  0.9295
16300TIP3   OH270390   3.270   3.533   1.299  0.3842 -0.7112 -0.3583
16300TIP3    H170391   3.285   3.525   1.393 -0.2568  0.2433 -0.1555
16300TIP3    H270392   3.237   3.623   1.287 -0.5992 -1.1642 -1.3411
16301TIP3   OH270393   1.196   0.415  39.492  0.5404 -0.1191  0.3956
16301TIP3    H170394   1.268   0.422  39.429  0.3584 -0.3391  0.1632
16301TIP3    H270395   1.223   0.345  39.551  0.1714 -0.7166 -0.1425
16302TIP3   OH270396   3.587   2.641   7.548 -0.0328 -0.5958  0.0748
16302TIP3    H170397   3.562   2.707   7.613  1.7264  0.1078  0.0919
16302TIP3    H270398   3.620   2.568   7.601  0.3817 -0.4665 -0.0081
16303TIP3   OH270399   1.532   1.931  15.379  0.2221 -0.2275  0.0188
16303TIP3    H170400   1.569   1.967  15.460  0.1985  0.2144 -0.1662
16303TIP3    H270401   1.542   1.836  15.389  1.6745 -0.1093 -0.1496
16304TIP3   OH270402   0.650   3.904   8.668 -0.3507  0.4579  0.5602
16304TIP3    H170403   0.679   3.898   8.759  0.1211 -1.2671  0.3293
16304TIP3    H270404   0.556   3.915   8.674 -0.3541  0.1282  1.2743
16305TIP3   OH270405   1.843   0.672  12.906 -0.4209  0.5577 -0.8441
16305TIP3    H170406   1.829   0.724  12.985  1.4556  0.3864 -0.3543
16305TIP3    H270407   1.915   0.716  12.860  0.8961 -1.2740 -0.6556
16306TIP3   OH270408   2.279   3.969   0.165 -0.0403 -0.2225  0.2320
16306TIP3    H170409   2.276   4.065   0.164 -0.3724 -0.2342  0.0178
16306TIP3    H270410   2.208   3.942   0.107  0.6076 -0.5863 -0.4059
16307TIP3   OH270411   2.257   3.280  13.768  0.1178  0.0044  0.0208
16307TIP3    H170412   2.216   3.234  13.695 -2.0123  1.3763  0.2591
16307TIP3    H270413   2.337   3.318  13.731 -0.3758 -0.2111 -1.3088
16308TIP3   OH270414   3.122   1.483  46.315 -0.2713  0.2655 -0.0226
16308TIP3    H170415   3.113   1.504  46.408  1.1077  1.1088 -0.0487
16308TIP3    H270416   3.216   1.490  46.299 -0.5111  0.2287 -1.5050
16309TIP3   OH270417   4.090   0.927   7.722 -0.1854 -0.0231 -0.6775
16309TIP3    H170418   4.167   0.872   7.704 -0.5594 -0.2982 -1.4789
16309TIP3    H270419   4.125   1.016   7.724  0.4737 -0.2740  0.8998
16310TIP3   OH270420   0.946   2.511  11.505  0.1281  0.0852 -0.4420
16310TIP3    H170421   0.933   2.548  11.593  0.5921 -4.7089  1.9714
16310TIP3    H270422   0.867   2.461  11.488 -0.3728  1.6848 -3.3758
16311TIP3   OH270423   3.041   3.128  11.821  0.0362  0.1636  0.2028
16311TIP3    H170424   2.964   3.179  11.799  1.7826  1.2368 -4.7262
16311TIP3    H270425   3.010   3.038  11.825 -1.5849  0.5630 -1.7652
16312TIP3   OH270426   2.289   2.763   8.957 -0.1887  0.2490  0.5644
16312TIP3    H170427   2.234   2.794   8.885  0.5592  1.3318  0.4419
16312TIP3    H270428   2.324   2.680   8.925 -1.2507 -0.1577  0.4032
16313TIP3   OH270429   2.725   0.264  40.677  0.1381  0.2240 -0.0573
16313TIP3    H170430   2.761   0.338  40.725  1.8861 -1.2148  0.9820
16313TIP3    H270431   2.786   0.250  40.604  0.3731 -0.7745  0.3160
16314TIP3   OH270432   3.326   0.850  34.705 -0.0894  0.5260  0.4647
16314TIP3    H170433   3.311   0.849  34.800  2.1383 -0.2837  0.8735
16314TIP3    H270434   3.300   0.938  34.679 -1.0555  0.6642  1.7628
16315TIP3   OH270435   0.225   0.195  37.906  0.0571  0.1269  0.0197
16315TIP3    H170436   0.253   0.141  37.832  0.1249 -1.8404  1.4027
16315TIP3    H270437   0.220   0.284  37.870  1.5602 -0.5079 -1.9435
16316TIP3   OH270438   0.367   2.429  21.020 -0.5724  0.0754  0.0636
16316TIP3    H170439   0.368   2.505  20.961  0.5665 -0.8076 -1.0915
16316TIP3    H270440   0.400   2.463  21.103  0.1304  0.8072 -0.4978
16317TIP3   OH270441   0.117   3.521  35.509  0.3137 -0.0221 -0.3489
16317TIP3    H170442   0.080   3.469  35.581 -0.7057  0.0609 -0.8058
16317TIP3    H270443   0.180   3.579  35.552  0.1266 -0.3603  0.4063
16318TIP3   OH270444   1.878   0.831   6.638 -0.2162  0.2409  0.2303
16318TIP3    H170445   1.803   0.888   6.652  0.0562  0.4682  0.8158
16318TIP3    H270446   1.910   0.853   6.551 -1.4241 -0.5641 -0.4551
16319TIP3   OH270447   1.703   3.891  31.881 -0.3574 -0.2746 -0.3294
16319TIP3    H170448   1.672   3.954  31.816  2.6334  2.0689  0.2755
16319TIP3    H270449   1.739   3.819  31.829 -1.3837 -0.2547 -1.1044
16320TIP3   OH270450   3.751   3.919  44.962  0.0330 -0.0567 -0.2422
16320TIP3    H170451   3.748   3.894  44.870  0.5851 -0.8126 -0.0619
16320TIP3    H270452   3.791   3.845  45.006  0.7428  0.7232  0.4653
16321TIP3   OH270453   1.645   3.583  44.493 -0.1262  0.0546 -0.0794
16321TIP3    H170454   1.619   3.491  44.494 -0.4621  0.1343  1.1277
16321TIP3    H270455   1.651   3.607  44.401 -1.2708 -0.8364 -0.3980
16322TIP3   OH270456   0.782   2.801  33.792 -0.9177  0.3411  0.5184
16322TIP3    H170457   0.828   2.743  33.853 -0.2327  0.8820  0.5326
16322TIP3    H270458   0.707   2.750  33.763 -0.3985 -0.5112  0.6256
16323TIP3   OH270459   0.065   1.912   4.961 -0.9149 -0.8526  0.1566
16323TIP3    H170460   0.150   1.922   5.002 -1.3952 -0.4419  1.0849
16323TIP3    H270461   0.065   1.977   4.890 -0.4162 -0.9264  0.0916
16324TIP3   OH270462   2.661   0.317   3.860 -0.5091  0.3722 -0.2394
16324TIP3    H170463   2.622   0.333   3.945  0.1693 -0.2924  0.2149
16324TIP3    H270464   2.591   0.278   3.808 -0.3308 -1.3274  0.7357
16325TIP3   OH270465   1.547   2.862  11.465  0.0120 -0.1601  1.0572
16325TIP3    H170466   1.508   2.939  11.423 -1.3542 -1.3066  0.1391
16325TIP3    H270467   1.535   2.791  11.402  1.9397 -0.9894  1.5664
16326TIP3   OH270468   0.181   3.425   3.636  0.6887 -0.1338  0.5734
16326TIP3    H170469   0.193   3.394   3.726 -1.1758  0.5736  1.0970
16326TIP3    H270470   0.087   3.425   3.623  0.9495 -1.8347 -1.9933
16327TIP3   OH270471   3.573   0.407  43.853  0.4461  0.0265 -0.6013
16327TIP3    H170472   3.516   0.332  43.870  0.7937  0.1607  1.3865
16327TIP3    H270473   3.518   0.483  43.869  0.0270  0.2568 -2.8457
16328TIP3   OH270474   1.058   1.724   8.815  0.0812  0.4774  0.0810
16328TIP3    H170475   1.085   1.745   8.904  1.9005 -1.5878  0.0817
16328TIP3    H270476   1.119   1.772   8.759  1.0962 -0.7999  0.0372
16329TIP3   OH270477   4.067   2.594   3.146  0.0946 -0.0424  0.4615
16329TIP3    H170478   4.075   2.689   3.133 -1.0602 -0.1920 -2.0234
16329TIP3    H270479   4.018   2.585   3.227  2.4582  1.3473  2.1917
16330TIP3   OH270480   3.198   2.716  47.415 -0.0849 -0.2756  0.3611
16330TIP3    H170481   3.184   2.749  47.504 -0.1231  0.4856  0.0848
16330TIP3    H270482   3.201   2.621  47.424 -1.0346 -0.2501  1.0440
16331TIP3   OH270483   2.982   1.445  35.735  0.5767  0.4064 -0.3990
16331TIP3    H170484   3.053   1.474  35.677 -0.2522  1.3285 -1.0032
16331TIP3    H270485   2.957   1.524  35.783 -0.0086  0.0828 -0.1597
16332TIP3   OH270486   1.172   1.959  45.682 -0.1644 -0.4875  0.1669
16332TIP3    H170487   1.127   1.958  45.597  0.4972  0.7822 -0.2186
16332TIP3    H270488   1.264   1.943  45.661 -0.0187 -0.3085  0.6636
16333TIP3   OH270489   3.171   3.256   5.087  0.3462  0.1258  0.6174
16333TIP3    H170490   3.094   3.306   5.060  0.5627 -0.1300 -0.5141
16333TIP3    H270491   3.168   3.176   5.034  2.6576  1.1609 -1.2728
16334TIP3   OH270492   3.662   2.219  39.052 -0.2088  0.0087  0.3225
16334TIP3    H170493   3.673   2.245  39.143 -0.8936  1.3233  0.0642
16334TIP3    H270494   3.590   2.156  39.054 -0.5219  0.3674  0.6581
16335TIP3   OH270495   0.613   3.318  47.324  0.2316 -0.0814  0.2899
16335TIP3    H170496   0.658   3.234  47.334 -0.2284 -0.2876  0.6690
16335TIP3    H270497   0.595   3.324  47.230 -0.2245 -0.6734  0.3302
16336TIP3   OH270498   1.884   3.590  26.929  0.3004  0.0618 -0.2990
16336TIP3    H170499   1.817   3.609  26.994  1.0968 -0.4100  0.6918
16336TIP3    H270500   1.878   3.496  26.915 -0.2016  0.2343 -1.3016
16337TIP3   OH270501   0.158   1.024   4.404 -0.3997  0.1482  0.3490
16337TIP3    H170502   0.233   0.987   4.358 -1.1081  0.3509 -1.0054
16337TIP3    H270503   0.087   1.025   4.340 -2.0071 -1.3418  1.9698
16338TIP3   OH270504   3.703   3.569  39.346 -0.3482  0.3207  0.1119
16338TIP3    H170505   3.739   3.602  39.264 -0.9875  0.6690 -0.0338
16338TIP3    H270506   3.771   3.586  39.411  0.0425  0.3031 -0.2906
16339TIP3   OH270507   1.080   3.422   3.448 -0.3176  0.2175  0.3735
16339TIP3    H170508   1.121   3.403   3.364  0.6946  1.1473  0.6325
16339TIP3    H270509   1.059   3.335   3.484 -1.4176 -0.1707 -1.1159
16340TIP3   OH270510   0.992   1.972   5.167  0.7015  0.4858 -0.1878
16340TIP3    H170511   1.001   1.948   5.075 -1.2816  2.2948 -0.9330
16340TIP3    H270512   0.958   2.061   5.166  1.3757  0.8585  2.3367
16341TIP3   OH270513   2.973   1.589  33.232  0.1920  0.4572 -0.3130
16341TIP3    H170514   2.934   1.554  33.311  1.2380  1.2125  0.5672
16341TIP3    H270515   3.015   1.514  33.190 -1.5135 -0.2134 -0.8866
16342TIP3   OH270516   2.666   1.119   1.966 -0.1278 -0.1375  0.3442
16342TIP3    H170517   2.651   1.193   2.025  0.3576  0.1020  0.1703
16342TIP3    H270518   2.735   1.068   2.007  1.2918  0.8380 -0.7260
16343TIP3   OH270519   1.207   3.943   6.600 -0.2278 -0.3225  0.0226
16343TIP3    H170520   1.258   4.024   6.588 -0.7900  0.2310  1.2289
16343TIP3    H270521   1.126   3.972   6.641 -0.6191 -1.4632  0.0767
16344TIP3   OH270522   3.430   2.382  42.424 -0.3575 -0.4402 -0.2669
16344TIP3    H170523   3.441   2.288  42.439 -1.5040 -0.6799 -0.8372
16344TIP3    H270524   3.358   2.389  42.361 -0.4878  0.8402 -0.0114
16345TIP3   OH270525   2.911   2.344   7.568 -0.1676 -0.0246  0.8913
16345TIP3    H170526   2.847   2.274   7.556 -0.3570  0.5080 -1.8229
16345TIP3    H270527   2.984   2.302   7.613 -0.4860 -1.8731 -0.2072
16346TIP3   OH270528   0.046   2.247  44.660 -0.1834 -0.2491 -0.3246
16346TIP3    H170529   0.102   2.270  44.734 -0.8361  1.6676 -0.3850
16346TIP3    H270530   0.059   2.317  44.596 -0.1691 -1.4905 -1.7552
16347TIP3   OH270531   2.267   0.144  43.485 -0.4185  0.3810 -0.4215
16347TIP3    H170532   2.298   0.084  43.553 -1.0897 -0.2674 -0.6706
16347TIP3    H270533   2.173   0.152  43.503 -0.3483  1.2759 -0.4591
16348TIP3   OH270534   2.112   0.152  34.018 -0.2308  0.4620 -0.1971
16348TIP3    H170535   2.025   0.147  33.977 -0.8624  1.1136  1.0075
16348TIP3    H270536   2.169   0.103  33.959 -1.5375 -0.5092 -0.7120
16349TIP3   OH270537   0.428   0.300   5.549 -0.0647  0.2387 -0.1260
16349TIP3    H170538   0.490   0.322   5.480  1.9909  1.0030  1.8571
16349TIP3    H270539   0.442   0.206   5.564 -0.2794  0.1467 -0.4583
16350TIP3   OH270540   1.376   1.463  46.295 -0.5059  0.3925  0.0674
16350TIP3    H170541   1.349   1.399  46.229 -1.1033 -0.2993  0.9507
16350TIP3    H270542   1.319   1.539  46.280 -0.9912  0.0392  0.1148
16351TIP3   OH270543   1.421   1.653  34.120  0.5681 -0.6200 -0.4969
16351TIP3    H170544   1.403   1.658  34.213  1.4748  0.0714 -0.3336
16351TIP3    H270545   1.377   1.730  34.083  0.3936 -0.7712 -0.6001
16352TIP3   OH270546   4.032   1.809  35.924  0.5018  0.2480 -0.0745
16352TIP3    H170547   4.030   1.726  35.877  0.6387  0.9329 -1.3415
16352TIP3    H270548   4.124   1.835  35.924  0.5969 -0.0405  1.1494
16353TIP3   OH270549   2.462   0.481   0.124  0.2539  0.2373  0.3458
16353TIP3    H170550   2.420   0.562   0.152  1.9319  0.8498  1.2661
16353TIP3    H270551   2.466   0.487   0.029 -1.9388 -0.0021  0.1915
16354TIP3   OH270552   1.077   3.837  14.856  0.0390  0.1267  0.3144
16354TIP3    H170553   1.022   3.861  14.930  2.4540  0.4448  2.1354
16354TIP3    H270554   1.157   3.888  14.867  1.6359 -1.9275 -0.8854
16355TIP3   OH270555   2.291   2.419   1.348 -0.4936 -0.6368 -0.3997
16355TIP3    H170556   2.344   2.479   1.401 -0.0624 -0.9847 -0.4298
16355TIP3    H270557   2.211   2.407   1.398 -1.9746  2.3617 -1.7683
16356TIP3   OH270558   3.182   2.172  35.263  0.6704 -0.1320  0.5400
16356TIP3    H170559   3.227   2.090  35.241  1.4582  0.1314  1.1254
16356TIP3    H270560   3.246   2.221  35.315 -0.0225  0.5903  0.7232
16357TIP3   OH270561   3.604   0.982  35.109  0.1022  0.3717 -0.2746
16357TIP3    H170562   3.565   1.062  35.144 -0.6113 -0.3299  0.5643
16357TIP3    H270563   3.594   0.917  35.179  0.5051 -0.5065 -1.0077
16358TIP3   OH270564   0.020   0.585  11.528 -0.1912  0.1289 -0.8362
16358TIP3    H170565   0.097   0.600  11.474 -1.1499  0.1110 -2.2607
16358TIP3    H270566  -0.025   0.670  11.530  0.5416  0.5281  1.1582
16359TIP3   OH270567   4.027   1.807  43.284 -0.4995 -0.3692 -0.0253
16359TIP3    H170568   3.957   1.824  43.220 -1.1235 -0.8974  0.5086
16359TIP3    H270569   3.984   1.758  43.354  0.7131 -2.0126 -0.3767
16360TIP3   OH270570   1.789   1.137  47.510  0.0878  0.2701  0.5933
16360TIP3    H170571   1.827   1.073  47.572  0.5579  0.3931  0.4412
16360TIP3    H270572   1.861   1.197  47.492  0.1441 -0.1214 -0.5572
16361TIP3   OH270573   2.864   3.369  27.046 -0.1067 -0.3617  0.1948
16361TIP3    H170574   2.939   3.375  27.105  0.0736  0.8388 -0.1392
16361TIP3    H270575   2.800   3.316  27.094  1.2043 -2.0348  0.1951
16362TIP3   OH270576   4.000   2.877   7.671 -0.4641 -0.5228 -0.3391
16362TIP3    H170577   4.069   2.944   7.671 -0.9486  0.0861  2.2833
16362TIP3    H270578   3.930   2.916   7.618 -0.4470  0.7621  0.5261
16363TIP3   OH270579   3.004   1.102   9.138 -0.0614 -0.1641 -0.4807
16363TIP3    H170580   3.006   1.178   9.196 -0.1124  0.1482 -0.8842
16363TIP3    H270581   2.912   1.075   9.136  0.1903 -1.3074  1.0234
16364TIP3   OH270582   2.056   3.199   4.992  0.7939 -0.0820 -0.0943
16364TIP3    H170583   1.990   3.261   5.022  1.6304  0.9752 -0.3826
16364TIP3    H270584   2.108   3.178   5.069 -0.5364 -1.8175  0.3975
16365TIP3   OH270585   3.885   3.133   9.445  0.3072 -0.3409  0.0103
16365TIP3    H170586   3.868   3.223   9.417 -0.3117 -0.5727 -0.3902
16365TIP3    H270587   3.808   3.085   9.417  1.5967 -1.4425 -1.8419
16366TIP3   OH270588   3.204   3.627  43.756 -0.8211  0.3411 -0.6401
16366TIP3    H170589   3.183   3.588  43.841  0.1025  1.7469  0.2889
16366TIP3    H270590   3.276   3.688  43.775  0.4509 -0.4020 -2.7080
16367TIP3   OH270591   2.283   2.095  39.199  0.3964  0.2613  0.6714
16367TIP3    H170592   2.296   2.143  39.117 -2.0016  0.2502  0.1930
16367TIP3    H270593   2.255   2.162  39.261 -0.5868 -0.1185  0.6622
16368TIP3   OH270594   0.865   1.302  33.987  0.4778 -0.5925 -0.1222
16368TIP3    H170595   0.954   1.320  34.019  0.6551 -1.4480 -0.1117
16368TIP3    H270596   0.873   1.309  33.892  0.7256 -1.3541 -0.1648
16369TIP3   OH270597   2.117   3.348  43.763 -0.3278  0.1687 -0.7378
16369TIP3    H170598   2.023   3.356  43.752 -0.5912  0.3013  1.2840
16369TIP3    H270599   2.129   3.285  43.835  1.1865 -1.0598 -1.9793
16370TIP3   OH270600   2.132   0.905  31.669  0.2298  0.2926  0.4007
16370TIP3    H170601   2.079   0.939  31.597  0.1800 -0.3919  0.1067
16370TIP3    H270602   2.098   0.818  31.686  0.4833  0.3016  1.0130
16371TIP3   OH270603   1.020   0.475   2.700 -0.5952 -0.3019 -0.0866
16371TIP3    H170604   0.930   0.469   2.666 -0.8812  0.1525  0.5813
16371TIP3    H270605   1.044   0.385   2.721 -1.3111 -0.3024  0.7770
16372TIP3   OH270606   1.021   1.918  20.204 -1.3153  0.0264  0.5535
16372TIP3    H170607   1.115   1.932  20.197 -1.3515 -0.3257 -0.8889
16372TIP3    H270608   0.982   1.986  20.149 -1.8456 -0.5405  0.2060
16373TIP3   OH270609   3.001   3.998   5.573  0.0316  0.3908 -0.4342
16373TIP3    H170610   2.908   4.012   5.588 -0.7474 -1.7962 -2.4862
16373TIP3    H270611   3.030   4.075   5.524 -0.3379  1.6638  1.2620
16374TIP3   OH270612   1.927   0.722  42.617  0.3498  0.1871 -0.1015
16374TIP3    H170613   1.876   0.791  42.575 -0.0354 -0.1698 -0.2287
16374TIP3    H270614   1.993   0.698  42.552 -0.1010 -0.2029 -0.4313
16375TIP3   OH270615   1.654   1.485   1.619 -0.2550  0.0124  0.2439
16375TIP3    H170616   1.607   1.411   1.658 -1.0985  0.0246 -0.6941
16375TIP3    H270617   1.622   1.489   1.529 -0.1647  1.4611  0.2479
16376TIP3   OH270618   1.757   3.205  34.641 -0.0858  0.6269 -0.1770
16376TIP3    H170619   1.830   3.265  34.625  0.9899 -0.4958  0.3607
16376TIP3    H270620   1.757   3.193  34.736 -0.6846  0.2519 -0.2215
16377TIP3   OH270621   3.315   2.722  36.417  0.2097 -0.1786 -0.2593
16377TIP3    H170622   3.366   2.642  36.432 -0.7547 -0.8780 -0.5891
16377TIP3    H270623   3.284   2.747  36.504  1.4345  0.4938  0.0063
16378TIP3   OH270624   1.644   3.507   9.258 -0.2513  0.2829 -0.1737
16378TIP3    H170625   1.564   3.457   9.275 -1.8739  2.1283 -1.9633
16378TIP3    H270626   1.708   3.470   9.319 -2.0867 -2.0974  0.4695
16379TIP3   OH270627   0.615   1.453  40.645 -0.2970  0.0283  0.3216
16379TIP3    H170628   0.579   1.475  40.731  0.5110  1.2417  0.3833
16379TIP3    H270629   0.641   1.537  40.608  0.8330 -0.6194 -0.4375
16380TIP3   OH270630   3.076   1.198   6.577  0.3809 -0.3390  0.1308
16380TIP3    H170631   2.997   1.253   6.577 -0.2950 -1.2650  1.5971
16380TIP3    H270632   3.118   1.218   6.493 -1.3231  0.2894 -0.6255
16381TIP3   OH270633   0.741   2.801   3.627  0.1363  0.3975 -0.0546
16381TIP3    H170634   0.746   2.851   3.709  2.2863  2.9901 -1.6335
16381TIP3    H270635   0.817   2.742   3.630  0.8354  1.2496 -0.5960
16382TIP3   OH270636   1.291   3.789  32.949 -0.0176  0.6748 -0.3590
16382TIP3    H170637   1.195   3.787  32.959 -0.0945  1.0600 -1.0291
16382TIP3    H270638   1.319   3.861  33.006 -0.0059 -0.1809  0.7552
16383TIP3   OH270639   3.016   3.818  41.743 -0.3517  0.4867 -0.0167
16383TIP3    H170640   3.069   3.767  41.805 -0.3782 -0.9616 -1.1346
16383TIP3    H270641   3.031   3.909  41.769  1.0277  0.0139  1.0122
16384TIP3   OH270642   0.041   0.646   9.658  0.0086 -0.2318  0.0687
16384TIP3    H170643  -0.022   0.659   9.729  0.4627  0.8758  0.2828
16384TIP3    H270644   0.049   0.551   9.650 -0.9284 -0.3746  0.7085
16385TIP3   OH270645   1.817   2.261   0.135  0.1538 -0.3572 -0.6889
16385TIP3    H170646   1.845   2.182   0.182 -1.5981 -0.3182  0.4773
16385TIP3    H270647   1.887   2.325   0.152  1.3015 -1.4288 -1.1653
16386TIP3   OH270648   3.927   2.468  36.611  0.5167  0.3002  0.3153
16386TIP3    H170649   4.019   2.470  36.588  0.1992  0.9302 -0.9741
16386TIP3    H270650   3.926   2.451  36.706  1.8646 -2.6453 -0.1040
16387TIP3   OH270651   1.749   0.065  10.972  0.2172  0.5798 -0.0377
16387TIP3    H170652   1.726   0.034  10.884  1.1938  0.8605 -0.4093
16387TIP3    H270653   1.674   0.118  10.999 -1.4430 -1.8808  0.5602
16388TIP3   OH270654   1.401   3.892  37.765 -0.2502 -0.7732 -0.3838
16388TIP3    H170655   1.490   3.885  37.800 -0.6756 -1.7614  0.5599
16388TIP3    H270656   1.377   3.984  37.777 -0.2207 -0.9842  1.6090
16389TIP3   OH270657   0.475   4.104   5.825  0.1166 -0.2060  0.0979
16389TIP3    H170658   0.417   4.030   5.809 -0.2928  0.4267 -1.5265
16389TIP3    H270659   0.426   4.160   5.886  0.6191 -1.4421  1.6906
16390TIP3   OH270660   3.571   0.630  25.273 -0.2461  0.2578 -0.3150
16390TIP3    H170661   3.565   0.613  25.179  1.4487  1.3395 -0.6379
16390TIP3    H270662   3.618   0.554  25.308 -1.9109 -0.7347 -0.1080
16391TIP3   OH270663   2.306   0.131  30.554  0.2406 -0.4587 -0.3402
16391TIP3    H170664   2.379   0.146  30.495 -0.3091 -0.5798 -1.0712
16391TIP3    H270665   2.237   0.095  30.498 -0.4371 -0.1816  0.2943
16392TIP3   OH270666   0.736   1.956  13.571  0.0775 -0.5088  0.5932
16392TIP3    H170667   0.760   1.978  13.661  0.4664 -1.6581  0.7779
16392TIP3    H270668   0.753   2.037  13.522  1.1167 -0.2720  1.3150
16393TIP3   OH270669   1.511   1.000  10.957 -0.0143 -0.3406 -0.1310
16393TIP3    H170670   1.537   1.019  10.867 -1.0656  1.1026 -0.1680
16393TIP3    H270671   1.493   1.086  10.996 -0.7109 -1.0064  1.1022
16394TIP3   OH270672   1.407   2.715  41.079 -0.1636 -0.5668  0.3860
16394TIP3    H170673   1.330   2.675  41.117  1.0884 -1.8945  1.6485
16394TIP3    H270674   1.396   2.809  41.097 -1.3768 -0.7525  0.7018
16395TIP3   OH270675   3.723   2.892  31.256 -0.1020 -0.3646  0.8708
16395TIP3    H170676   3.760   2.803  31.251 -1.4573 -1.0100  1.7007
16395TIP3    H270677   3.650   2.884  31.316 -1.9638  0.7003 -1.1028
16396TIP3   OH270678   3.230   0.721   3.932 -0.0858 -0.0800 -0.4131
16396TIP3    H170679   3.198   0.722   3.842 -0.4531  2.4705 -0.3269
16396TIP3    H270680   3.325   0.733   3.924 -0.1656  0.5464 -0.4647
16397TIP3   OH270681   2.360   0.671   4.178 -0.2430  0.2859  0.5538
16397TIP3    H170682   2.298   0.651   4.108 -0.7638  1.8208  0.5300
16397TIP3    H270683   2.424   0.729   4.137  0.1443  0.2138  1.0517
16398TIP3   OH270684   3.287   0.119  31.018 -0.0605  0.3026  0.4425
16398TIP3    H170685   3.351   0.190  31.015  1.1747 -0.7472  1.1946
16398TIP3    H270686   3.220   0.150  31.079 -0.3047  1.4164 -0.3632
16399TIP3   OH270687   1.988   0.593  30.816  0.2680 -0.4176 -0.0300
16399TIP3    H170688   1.985   0.545  30.899  2.5583 -1.3530 -0.4258
16399TIP3    H270689   2.043   0.669  30.834 -0.4095  0.1683 -0.3561
16400TIP3   OH270690   1.394   1.956   2.009 -0.3496  0.8427  0.3750
16400TIP3    H170691   1.365   1.997   1.928 -1.0227 -1.1534 -0.4647
16400TIP3    H270692   1.362   2.014   2.079 -1.6146  1.5063 -0.7201
16401TIP3   OH270693   0.169   2.362   1.724  0.5782 -0.4076  0.3043
16401TIP3    H170694   0.240   2.329   1.779 -0.8751  1.1565  3.3617
16401TIP3    H270695   0.187   2.455   1.714  0.5047 -0.5432 -1.5740
16402TIP3   OH270696   2.721   1.756  33.714  0.2504  1.2127  0.3119
16402TIP3    H170697   2.680   1.833  33.754 -1.5152  0.9741 -0.9069
16402TIP3    H270698   2.649   1.711  33.670  1.1396 -1.3680  1.2847
16403TIP3   OH270699   3.086   3.399  12.127 -0.2375  0.1637 -0.1325
16403TIP3    H170700   3.122   3.431  12.044  2.7802 -0.7364  0.7096
16403TIP3    H270701   3.128   3.452  12.194 -0.8832 -0.6463  0.9508
16404TIP3   OH270702   1.890   3.595  45.680  0.3874 -0.2998 -0.3258
16404TIP3    H170703   1.912   3.507  45.711 -1.4877 -0.6091  0.2234
16404TIP3    H270704   1.814   3.621  45.732  0.3398  1.2832 -1.1257
16405TIP3   OH270705   2.279   1.127  38.518  0.4718 -0.2306 -0.1193
16405TIP3    H170706   2.352   1.188  38.515  0.4384 -0.2289 -1.7635
16405TIP3    H270707   2.214   1.164  38.458 -0.9135 -0.2171  1.3284
16406TIP3   OH270708   2.911   0.524   2.660  0.7692 -0.3764 -0.5278
16406TIP3    H170709   2.901   0.613   2.627  3.2650  0.5618  0.9886
16406TIP3    H270710   2.886   0.530   2.753  2.7011 -0.7662  0.0601
16407TIP3   OH270711   3.367   2.768   1.785 -0.5678 -0.0154  0.2334
16407TIP3    H170712   3.317   2.849   1.794  0.8455  1.0309 -0.8118
16407TIP3    H270713   3.312   2.701   1.825 -2.3707  1.2283 -0.0374
16408TIP3   OH270714   2.607   2.989  34.109 -0.6806 -0.1391  0.0089
16408TIP3    H170715   2.637   2.952  34.192 -0.3114 -0.5584 -0.3084
16408TIP3    H270716   2.569   3.073  34.133 -0.2035 -0.0702  0.5528
16409TIP3   OH270717   0.574   1.577   3.545  0.4483  0.3467 -0.3174
16409TIP3    H170718   0.559   1.637   3.472  0.4936 -0.4328 -0.9751
16409TIP3    H270719   0.606   1.497   3.504 -2.3617 -1.1900  0.2467
16410TIP3   OH270720   2.460   1.283  33.443 -0.5261  0.4690  0.3625
16410TIP3    H170721   2.445   1.372  33.410  0.1375 -0.3793 -2.4839
16410TIP3    H270722   2.375   1.240  33.437 -0.0931 -0.2044 -2.2234
16411TIP3   OH270723   1.193   1.804  39.967  0.0355 -0.0047  0.0665
16411TIP3    H170724   1.262   1.817  40.031 -0.6381  0.0843  0.7862
16411TIP3    H270725   1.123   1.864  39.993  0.3983  1.2599 -1.7368
16412TIP3   OH270726   4.082   3.053  33.998 -0.3966 -0.1291 -0.4278
16412TIP3    H170727   4.075   3.015  34.086 -0.8328  0.8127 -0.0304
16412TIP3    H270728   4.108   3.144  34.014  0.1926 -0.1309 -1.3142
16413TIP3   OH270729   3.969   1.270  17.850 -0.2750 -0.1635  0.3284
16413TIP3    H170730   3.917   1.344  17.882 -0.7572 -0.6136  0.6144
16413TIP3    H270731   4.059   1.292  17.872 -0.3993  0.4145  0.2567
16414TIP3   OH270732   1.500   3.177  30.483 -0.8874  0.4547 -0.0460
16414TIP3    H170733   1.434   3.185  30.413 -1.3611  0.3449  0.3798
16414TIP3    H270734   1.459   3.218  30.559 -0.1112  1.1635  0.0052
16415TIP3   OH270735   3.308   2.797  39.235 -0.4868  0.3169 -0.0987
16415TIP3    H170736   3.239   2.853  39.197  0.2029 -0.0425 -1.9469
16415TIP3    H270737   3.278   2.708  39.218 -1.2956  0.0394  2.3372
16416TIP3   OH270738   3.085   1.378  38.060  0.7184  0.0253 -0.3754
16416TIP3    H170739   3.125   1.312  38.116 -0.5529  0.4388  1.1029
16416TIP3    H270740   3.045   1.328  37.989  3.4487 -0.4161 -1.7091
16417TIP3   OH270741   3.972   0.557  12.209 -0.3987  0.2567 -0.0049
16417TIP3    H170742   4.035   0.486  12.197 -1.3751 -0.3677 -1.8901
16417TIP3    H270743   3.947   0.551  12.301  1.5070 -0.1222  0.5350
16418TIP3   OH270744   2.419   1.894  15.398 -0.0264  0.1159  0.5159
16418TIP3    H170745   2.372   1.827  15.446 -2.0776  1.8356  1.0547
16418TIP3    H270746   2.361   1.970  15.399  2.3953  2.1049  0.4286
16419TIP3   OH270747   2.826   3.638  12.612  0.2418 -0.0442  0.6151
16419TIP3    H170748   2.734   3.664  12.612  0.6335  1.5457 -0.9566
16419TIP3    H270749   2.843   3.607  12.523  1.5732  1.1022  0.4331
16420TIP3   OH270750   1.668   3.033  13.910 -0.4636  0.7465  0.5554
16420TIP3    H170751   1.617   3.092  13.854  0.0156  1.2378  0.6304
16420TIP3    H270752   1.758   3.066  13.906 -0.4432  0.8883  1.7443
16421TIP3   OH270753   2.654   1.447  11.444  0.1265  0.3725 -0.0449
16421TIP3    H170754   2.702   1.422  11.365 -1.7061 -0.1897 -1.0398
16421TIP3    H270755   2.702   1.523  11.478  1.2452  0.3166 -1.4019
16422TIP3   OH270756   0.980   3.067  11.354 -0.1943  0.2359 -0.0020
16422TIP3    H170757   0.939   3.050  11.439  1.1321  0.2378  0.6575
16422TIP3    H270758   1.017   2.983  11.328  0.1519  0.4338 -0.1596
16423TIP3   OH270759   0.442   3.009  39.214 -0.0983  0.2884  0.0089
16423TIP3    H170760   0.379   2.966  39.272 -0.1775  1.0037  0.4783
16423TIP3    H270761   0.528   2.990  39.253 -0.1246  0.4299  0.1409
16424TIP3   OH270762   1.753   1.900  45.002 -0.6157  0.6517 -0.4484
16424TIP3    H170763   1.749   1.925  44.909  1.5467 -1.2735 -1.1514
16424TIP3    H270764   1.764   1.805  45.001  1.1275  0.7494  1.7107
16425TIP3   OH270765   1.055   1.053   7.913  0.3681 -0.6613  0.4581
16425TIP3    H170766   1.106   1.033   7.835  1.6867  0.2129  1.0603
16425TIP3    H270767   0.981   1.106   7.882 -0.4173 -2.2330 -0.4697
16426TIP3   OH270768   0.074   1.416  11.796  0.3585  0.6483  0.2899
16426TIP3    H170769   0.030   1.331  11.788 -0.0737  0.6487  2.1533
16426TIP3    H270770   0.105   1.418  11.887  3.0638  1.2337 -0.5768
16427TIP3   OH270771   0.169   4.005  14.223 -0.2262  0.1160 -0.1713
16427TIP3    H170772   0.200   3.919  14.253 -3.0493 -1.9422 -2.5537
16427TIP3    H270773   0.220   4.023  14.144 -0.4615 -0.0045 -0.3543
16428TIP3   OH270774   3.041   3.829  10.201  0.5898  0.3422 -0.0248
16428TIP3    H170775   3.115   3.864  10.250  0.5710 -1.0486  1.0618
16428TIP3    H270776   3.080   3.786  10.125  0.7096  1.5266 -0.6462
16429TIP3   OH270777   3.137   2.186  36.024 -0.3437 -0.1880 -0.4721
16429TIP3    H170778   3.104   2.259  35.972  0.1802  1.2419  1.0811
16429TIP3    H270779   3.227   2.173  35.994 -0.2994  0.1061 -0.4685
16430TIP3   OH270780   0.174   0.371  31.908  0.0464  0.7311  0.3162
16430TIP3    H170781   0.199   0.372  32.001 -0.0788  0.6281  0.3517
16430TIP3    H270782   0.243   0.422  31.864  0.0240  0.9076  0.4848
16431TIP3   OH270783   3.626   2.086  31.976  0.8312  0.4289  0.5881
16431TIP3    H170784   3.688   2.026  31.934  0.5455  1.4403 -1.3545
16431TIP3    H270785   3.680   2.160  32.004  0.3855  1.9643 -2.3659
16432TIP3   OH270786   0.145   4.012  26.757 -0.4756 -0.0708  0.4981
16432TIP3    H170787   0.125   4.084  26.816 -0.2983 -0.1908  0.7069
16432TIP3    H270788   0.155   3.936  26.814  0.8269  0.0320  0.4378
16433TIP3   OH270789   4.061   3.690  44.299  0.0578  0.0301 -0.1573
16433TIP3    H170790   4.072   3.780  44.266 -1.1666  0.5227  0.6990
16433TIP3    H270791   3.966   3.681  44.310  0.2910 -0.8325  1.2664
16434TIP3   OH270792   2.183   0.032   6.208  0.7241  0.1906 -0.2708
16434TIP3    H170793   2.147   0.078   6.131  0.7212  1.4106  0.4308
16434TIP3    H270794   2.276   0.055   6.209  1.5409 -2.5960 -1.8185
16435TIP3   OH270795   0.311   4.104  30.757  0.0153  0.3144  0.6967
16435TIP3    H170796   0.398   4.145  30.760  0.0087  0.3651  3.7103
16435TIP3    H270797   0.284   4.112  30.666  3.0972  0.4295 -0.3434
16436TIP3   OH270798   2.033   3.880  40.416  0.1658  0.4741  0.0237
16436TIP3    H170799   1.945   3.908  40.391 -0.0773  0.2756  0.6379
16436TIP3    H270800   2.090   3.952  40.389 -0.1771  0.5747 -0.4361
16437TIP3   OH270801   0.125   1.640  44.262  0.6465 -0.2496 -0.3201
16437TIP3    H170802   0.129   1.694  44.341 -0.2087 -0.5489 -0.0571
16437TIP3    H270803   0.040   1.661  44.223  0.6143 -0.8804 -0.5937
16438TIP3   OH270804   0.765   0.630  40.752  0.3087 -0.1395  0.4955
16438TIP3    H170805   0.688   0.593  40.795 -0.0534 -0.3616 -0.3372
16438TIP3    H270806   0.756   0.605  40.660  1.7537 -0.8292  0.5090
16439TIP3   OH270807   3.545   3.994  31.981  0.4258 -0.5606 -1.0341
16439TIP3    H170808   3.473   4.039  31.937 -0.5550  0.1233  1.1067
16439TIP3    H270809   3.621   4.049  31.967 -0.4596  1.1224  0.3492
16440TIP3   OH270810   2.695   3.497  29.133  0.2290 -0.8898  0.0100
16440TIP3    H170811   2.704   3.543  29.216  1.0446 -0.3891 -0.3446
16440TIP3    H270812   2.701   3.404  29.156  0.9712 -0.7366  0.4530
16441TIP3   OH270813   2.011   1.360  20.298 -0.5740 -0.4691  0.0342
16441TIP3    H170814   1.917   1.371  20.306 -0.7441 -1.7460  0.1335
16441TIP3    H270815   2.021   1.289  20.234  0.3236 -0.2510 -0.0778
16442TIP3   OH270816   2.184   1.030  41.337  0.1637  0.0643  0.1030
16442TIP3    H170817   2.126   1.077  41.398  1.2094 -0.0792  1.2499
16442TIP3    H270818   2.155   0.939  41.341  1.3144 -0.2867  1.7999
16443TIP3   OH270819   3.333   3.354  35.669 -0.6145  0.4751 -0.4560
16443TIP3    H170820   3.267   3.352  35.739  0.1851 -0.3331  0.2924
16443TIP3    H270821   3.412   3.320  35.710 -0.0281  0.3519 -1.6632
16444TIP3   OH270822   0.012   0.128  10.737  0.1659  0.0345 -0.2872
16444TIP3    H170823   0.099   0.094  10.758 -0.0394 -0.1935  0.2224
16444TIP3    H270824   0.028   0.205  10.683  0.8452  1.9928  2.4757
16445TIP3   OH270825   2.715   0.297  12.163 -0.2643  0.4870 -0.4281
16445TIP3    H170826   2.669   0.273  12.244  0.2034 -0.8199 -0.5205
16445TIP3    H270827   2.666   0.372  12.129 -1.1592  0.3370  0.4680
16446TIP3   OH270828   2.376   0.728  40.955  0.1404  0.1536 -0.3824
16446TIP3    H170829   2.350   0.663  40.890 -1.6569  0.8247 -0.3726
16446TIP3    H270830   2.414   0.799  40.904 -3.0073  1.5399 -0.9846
16447TIP3   OH270831   3.360   3.845  43.824  0.0308  0.2544 -0.0753
16447TIP3    H170832   3.296   3.887  43.882 -0.0404  1.0086 -0.6930
16447TIP3    H270833   3.358   3.896  43.744  1.5842  0.4397 -0.0270
16448TIP3   OH270834   3.253   1.634   9.138  0.0092 -0.0956 -0.2748
16448TIP3    H170835   3.308   1.705   9.105  1.2030 -0.6941  0.3789
16448TIP3    H270836   3.285   1.618   9.227 -0.8731 -0.8233 -0.0686
16449TIP3   OH270837   1.614   3.049  47.290  0.1042 -0.2292 -0.6947
16449TIP3    H170838   1.637   3.001  47.211  1.9220  1.4578 -1.2657
16449TIP3    H270839   1.544   3.108  47.263 -0.9759 -1.3319 -0.3999
16450TIP3   OH270840   2.647   1.267  40.587  0.2084  0.1759  0.5771
16450TIP3    H170841   2.689   1.344  40.626 -0.1500  0.5775  0.1679
16450TIP3    H270842   2.584   1.302  40.525 -1.3080 -0.3932  1.7362
16451TIP3   OH270843   0.169   2.336  42.104 -0.1400  0.4748 -0.2228
16451TIP3    H170844   0.169   2.296  42.191  1.3850 -1.1655 -0.9125
16451TIP3    H270845   0.252   2.384  42.100  1.0480 -1.5466 -1.5928
16452TIP3   OH270846   1.061   0.286  37.544  0.2638  0.4686  0.1467
16452TIP3    H170847   1.007   0.257  37.471 -0.8672  0.9891  0.7476
16452TIP3    H270848   1.149   0.295  37.507  0.0281 -0.7757 -0.7561
16453TIP3   OH270849   0.686   2.987  40.926 -0.6736 -0.0918 -0.6891
16453TIP3    H170850   0.667   2.975  41.019 -2.2679  0.5370 -0.8998
16453TIP3    H270851   0.742   3.065  40.923 -2.0059  0.9136 -0.3530
16454TIP3   OH270852   3.806   3.715  46.320 -0.2969 -0.5315  0.3269
16454TIP3    H170853   3.743   3.754  46.381  0.1959  1.2046 -0.2406
16454TIP3    H270854   3.892   3.738  46.355 -0.0084  0.3769 -0.9321
16455TIP3   OH270855   3.914   2.052   6.316  0.4086 -1.1385  0.0792
16455TIP3    H170856   3.900   2.003   6.397  1.3677 -0.6117  0.5878
16455TIP3    H270857   3.829   2.051   6.273 -1.0186  1.0356  2.4995
16456TIP3   OH270858   3.754   0.175  13.344 -0.1038  0.7915 -0.1942
16456TIP3    H170859   3.767   0.269  13.360  0.2168  0.8257 -0.6568
16456TIP3    H270860   3.687   0.171  13.276 -2.0687  0.6278  1.6222
16457TIP3   OH270861   3.952   1.087   7.339  0.0529 -0.2737  0.2705
16457TIP3    H170862   4.041   1.052   7.347  0.0220 -0.9706 -1.8222
16457TIP3    H270863   3.964   1.182   7.335  0.5486 -0.2721  1.4545
16458TIP3   OH270864   0.898   0.922   8.880  0.4154  0.3620  0.3731
16458TIP3    H170865   0.869   0.954   8.965  1.8277  1.4584  0.4845
16458TIP3    H270866   0.905   0.827   8.891 -0.8255  0.3234  1.0051
16459TIP3   OH270867   2.231   0.294  11.029 -0.2541  0.1297 -0.3808
16459TIP3    H170868   2.194   0.355  11.092  2.2692  0.3291  1.0227
16459TIP3    H270869   2.169   0.221  11.027 -0.9278  0.6111  1.5131
16460TIP3   OH270870   1.203   3.537  24.742 -0.0438 -0.2552  0.1892
16460TIP3    H170871   1.199   3.632  24.739  0.3233 -0.2528 -0.2529
16460TIP3    H270872   1.215   3.516  24.834 -0.4792  0.1115  0.3301
16461TIP3   OH270873   2.889   0.214  25.325 -0.2957 -0.3931  0.0783
16461TIP3    H170874   2.961   0.166  25.283  0.6055 -0.5930  1.7565
16461TIP3    H270875   2.810   0.169  25.296  0.1510  0.2360 -2.3389
16462TIP3   OH270876   3.613   2.933   3.414  0.2867  0.0560  0.4980
16462TIP3    H170877   3.584   2.850   3.376 -2.0673  1.0603 -0.0891
16462TIP3    H270878   3.648   2.983   3.340 -0.1293  0.3089  0.4665
16463TIP3   OH270879   2.616   0.048  27.191  0.4523 -0.4619 -0.1759
16463TIP3    H170880   2.552   0.067  27.123  0.8766  0.3313 -0.3633
16463TIP3    H270881   2.656  -0.034  27.164  0.7931 -0.0256 -1.0149
16464TIP3   OH270882   0.564   2.673  41.397 -0.0601 -1.0527  0.1510
16464TIP3    H170883   0.549   2.758  41.354  2.7117 -0.8549 -0.6568
16464TIP3    H270884   0.637   2.690  41.458  0.8755 -2.9255 -0.3727
16465TIP3   OH270885   3.776   2.296  45.814 -0.0176 -0.2342 -0.0308
16465TIP3    H170886   3.825   2.215  45.804  1.2279  0.4962 -0.1071
16465TIP3    H270887   3.761   2.304  45.908  0.5408 -0.1728  0.0569
16466TIP3   OH270888   1.855   1.927  32.961  0.5578 -0.1556  0.2763
16466TIP3    H170889   1.793   1.993  32.992 -0.0613 -1.5389  2.1476
16466TIP3    H270890   1.926   1.978  32.921 -0.2984  1.5978  0.8919
16467TIP3   OH270891   4.015   0.746  12.921 -0.0563  0.0497  0.0797
16467TIP3    H170892   4.026   0.662  12.877  2.3274 -0.3805  1.2983
16467TIP3    H270893   4.022   0.725  13.014  3.0263  1.7890  0.3558
16468TIP3   OH270894   1.930   2.611  34.722 -0.3605 -0.1478 -0.0652
16468TIP3    H170895   1.845   2.621  34.765  0.5489 -2.0005  2.3611
16468TIP3    H270896   1.909   2.604  34.629 -3.1560 -3.0143  0.6206
16469TIP3   OH270897   3.048   2.555   8.195 -0.1667  0.5187 -0.3649
16469TIP3    H170898   3.118   2.519   8.141 -2.0513  0.0894 -2.6639
16469TIP3    H270899   3.035   2.489   8.263  0.9563  0.1468 -0.4790
16470TIP3   OH270900   1.625   1.951  43.747  0.1230 -0.3202  0.1549
16470TIP3    H170901   1.671   2.034  43.736 -0.2700  0.0447  1.0891
16470TIP3    H270902   1.670   1.908  43.820  0.7191 -1.2264 -0.7293
16471TIP3   OH270903   3.888   3.485  32.659 -0.2902  0.5545 -0.1466
16471TIP3    H170904   3.828   3.469  32.732 -0.5604  1.5690 -0.1281
16471TIP3    H270905   3.966   3.432  32.680 -1.5235 -1.5774 -0.6765
16472TIP3   OH270906   1.335   2.638   5.742  0.1344  0.6118 -0.1238
16472TIP3    H170907   1.333   2.726   5.704  2.1224  1.5032  1.6165
16472TIP3    H270908   1.258   2.634   5.798  0.8020  1.8346  0.9157
16473TIP3   OH270909   2.246   3.142   4.815  0.1437 -0.2454 -0.1409
16473TIP3    H170910   2.169   3.180   4.857  0.0061  0.0539 -0.6582
16473TIP3    H270911   2.294   3.100   4.887 -0.6284 -0.6594  0.1391
16474TIP3   OH270912   2.475   0.092  14.059  0.2511  0.6847 -0.1156
16474TIP3    H170913   2.434   0.178  14.071  1.0491  0.8430  1.7484
16474TIP3    H270914   2.563   0.102  14.097  0.4124 -0.9187 -0.0266
16475TIP3   OH270915   3.599   2.191  45.276 -0.2955 -0.1782  0.5858
16475TIP3    H170916   3.641   2.158  45.196 -0.1350  2.0126 -0.3103
16475TIP3    H270917   3.638   2.278  45.289 -2.3974  0.7051  1.4015
16476TIP3   OH270918   1.551   0.876   7.827 -0.1561 -0.3130 -0.3195
16476TIP3    H170919   1.604   0.799   7.845 -1.4475 -1.3949 -1.0231
16476TIP3    H270920   1.462   0.851   7.850 -0.4877  1.2861  0.3225
16477TIP3   OH270921   2.043   0.131  11.269  0.4676 -0.4224 -0.1701
16477TIP3    H170922   1.981   0.072  11.312 -0.1034 -0.2598 -0.7508
16477TIP3    H270923   2.031   0.113  11.176  1.9289 -1.0210 -0.2613
16478TIP3   OH270924   2.193   1.395  35.717 -0.3124 -0.0448  0.0076
16478TIP3    H170925   2.276   1.441  35.710 -0.1492  0.0126  1.7530
16478TIP3    H270926   2.128   1.457  35.685  0.1814  0.3997 -0.1434
16479TIP3   OH270927   0.222   2.648   0.107 -0.4384 -0.1317  0.0395
16479TIP3    H170928   0.281   2.591   0.057  0.6856  0.6790  0.3970
16479TIP3    H270929   0.177   2.588   0.167  0.2574 -0.7362 -0.0197
16480TIP3   OH270930   0.444   3.480  38.530  0.0600  0.4258 -0.6906
16480TIP3    H170931   0.377   3.538  38.565  0.0897  1.1265 -1.7603
16480TIP3    H270932   0.427   3.396  38.571 -0.5306  0.9717  0.2070
16481TIP3   OH270933   3.526   2.529  36.642 -0.2591 -0.1924 -0.1151
16481TIP3    H170934   3.574   2.612  36.645  2.6726 -1.7608 -0.3166
16481TIP3    H270935   3.500   2.513  36.732  0.8164  0.0565  0.2511
16482TIP3   OH270936   2.333   0.691   1.245  0.0254  0.1402  0.0838
16482TIP3    H170937   2.351   0.687   1.151 -0.9247 -0.1567 -0.0952
16482TIP3    H270938   2.417   0.715   1.285  0.4605  0.1575 -0.8282
16483TIP3   OH270939   2.091   1.461   0.588 -0.5233  0.0826  0.3459
16483TIP3    H170940   2.008   1.506   0.603  1.0698  3.2629  0.5967
16483TIP3    H270941   2.135   1.463   0.673 -0.0673 -1.3420  0.1702
16484TIP3   OH270942   0.391   1.617  44.154 -0.1509 -0.0839  0.2016
16484TIP3    H170943   0.311   1.621  44.207  0.8369 -1.0072  1.8438
16484TIP3    H270944   0.423   1.707  44.152  0.4405 -0.2065  2.2685
16485TIP3   OH270945   1.781   4.095  33.175 -0.0183 -0.5486  0.1081
16485TIP3    H170946   1.840   4.064  33.106 -0.1172 -0.3057 -0.0849
16485TIP3    H270947   1.693   4.077  33.142 -0.0448 -1.6112  0.7216
16486TIP3   OH270948   3.513   3.052  14.853  0.1429 -0.4148  0.3081
16486TIP3    H170949   3.470   3.099  14.781 -0.9488 -2.6096 -0.5753
16486TIP3    H270950   3.547   2.972  14.812 -0.2031 -1.5653  2.1637
16487TIP3   OH270951   0.468   2.180   9.776  0.2326 -0.2623 -0.1726
16487TIP3    H170952   0.535   2.229   9.824 -1.1828  1.5406  0.0774
16487TIP3    H270953   0.432   2.120   9.841 -0.0773  0.5286  0.4036
16488TIP3   OH270954   1.762   2.789  12.422  0.1671 -0.3809  0.0886
16488TIP3    H170955   1.775   2.738  12.342 -0.9089  0.2398 -0.4939
16488TIP3    H270956   1.668   2.808  12.424  0.3504  0.5257  0.9447
16489TIP3   OH270957   2.525   2.301  40.597 -0.1867  0.1349 -0.4835
16489TIP3    H170958   2.502   2.208  40.602  0.2318  0.0343 -0.3890
16489TIP3    H270959   2.453   2.346  40.641 -0.2537 -0.1695 -0.2808
16490TIP3   OH270960   0.620   3.548   2.407 -0.7354  0.2426  0.3390
16490TIP3    H170961   0.708   3.531   2.374 -1.6127 -0.4455 -1.8661
16490TIP3    H270962   0.562   3.512   2.339 -2.7388 -0.7666  2.4335
16491TIP3   OH270963   2.301   2.560  16.623 -0.2354 -0.5375 -0.1000
16491TIP3    H170964   2.285   2.486  16.682  0.3041 -0.2224  0.4435
16491TIP3    H270965   2.386   2.594  16.649  1.0226 -1.6616 -2.3813
16492TIP3   OH270966   2.599   1.820  37.760  0.7233  0.4194 -0.5485
16492TIP3    H170967   2.524   1.874  37.732 -1.6583 -0.5228  3.2203
16492TIP3    H270968   2.569   1.730  37.748  0.7996  0.0175  1.7593
16493TIP3   OH270969   3.253   1.461  36.794 -0.1900 -0.0247  0.3234
16493TIP3    H170970   3.230   1.490  36.706  0.6210 -0.0824  0.0849
16493TIP3    H270971   3.346   1.442  36.790 -0.7135 -3.1218  0.3187
16494TIP3   OH270972   3.640   0.722  12.777  0.5342  0.4201 -0.2213
16494TIP3    H170973   3.636   0.628  12.760 -1.1417  0.5177 -0.4730
16494TIP3    H270974   3.612   0.731  12.869 -0.3683  0.7511 -0.5213
16495TIP3   OH270975   4.047   1.068  34.133 -0.8752 -0.5163 -0.2019
16495TIP3    H170976   4.030   1.152  34.091 -1.9800 -0.5182  0.1990
16495TIP3    H270977   4.033   1.084  34.226  0.2560 -0.8261  0.0400
16496TIP3   OH270978   1.830   2.305  34.450  0.1892 -0.1831  0.0542
16496TIP3    H170979   1.776   2.308  34.529 -0.1526  1.0076 -0.1954
16496TIP3    H270980   1.920   2.314  34.482  0.2233 -1.6844  0.4384
16497TIP3   OH270981   0.362   1.670  43.451  0.3021 -0.3175 -0.1434
16497TIP3    H170982   0.305   1.709  43.517  0.4131  0.2956 -0.3979
16497TIP3    H270983   0.318   1.590  43.425 -0.7025  0.4009 -0.7117
16498TIP3   OH270984   3.237   3.442   9.261 -0.3168 -0.2874 -0.2086
16498TIP3    H170985   3.157   3.467   9.214 -0.0838  2.6519  0.7090
16498TIP3    H270986   3.263   3.359   9.221 -1.3279  0.8864 -3.7519
16499TIP3   OH270987   2.863   3.077  29.492  0.3511  0.0411  0.1216
16499TIP3    H170988   2.890   3.168  29.503 -1.1326  0.3636  1.5381
16499TIP3    H270989   2.936   3.025  29.525  0.4179  0.7969  1.2069
16500TIP3   OH270990   1.175   0.107   6.526  0.0426 -0.5759  0.0112
16500TIP3    H170991   1.235   0.091   6.453 -0.9840  0.4385 -1.1015
16500TIP3    H270992   1.143   0.196   6.511  0.3405 -0.0548  2.1134
16501TIP3   OH270993   2.505   3.006   7.146  0.1052  0.6620 -0.1231
16501TIP3    H170994   2.599   2.995   7.161  0.1558  0.1317 -0.7641
16501TIP3    H270995   2.499   3.032   7.054 -0.4037  0.1996 -0.2264
16502TIP3   OH270996   3.172   2.549  39.915 -0.2861 -0.2122  0.5174
16502TIP3    H170997   3.169   2.459  39.881 -0.8164 -0.3360  0.8653
16502TIP3    H270998   3.260   2.558  39.951 -0.9567 -1.4465  2.6767
16503TIP3   OH270999   0.473   0.534  35.046  0.5765  0.0874  0.3684
16503TIP3    H171000   0.424   0.462  35.005 -0.0076  1.3270 -1.2432
16503TIP3    H271001   0.508   0.497  35.127 -1.4906 -1.3939  0.6622
16504TIP3   OH271002   1.154   0.122  41.010  0.3546  0.2958  0.5432
16504TIP3    H171003   1.085   0.116  41.076  1.0389  0.6154  1.3051
16504TIP3    H271004   1.182   0.032  40.995  1.5558  0.3559  2.1847
16505TIP3   OH271005   0.390   2.857   8.197 -0.4531 -1.1870  0.2707
16505TIP3    H171006   0.333   2.902   8.135  1.4480 -0.4869 -1.0604
16505TIP3    H271007   0.410   2.774   8.154  2.1486 -0.0486 -0.9036
16506TIP3   OH271008   0.593   3.450   0.406  0.4411  0.1871 -0.3608
16506TIP3    H171009   0.663   3.400   0.364 -1.6113 -3.2448 -0.0845
16506TIP3    H271010   0.521   3.447   0.343 -1.0569 -0.8004  1.3107
16507TIP3   OH271011   3.129   3.757  47.538  0.3207 -0.2316 -0.1133
16507TIP3    H171012   3.161   3.826  47.479  0.3324  0.6971  0.9496
16507TIP3    H271013   3.097   3.804  47.615  0.2042 -1.4151  0.5848
16508TIP3   OH271014   0.522   1.842   0.433 -0.5835  0.3408  0.0293
16508TIP3    H171015   0.445   1.827   0.489 -0.6170 -0.5077 -0.2344
16508TIP3    H271016   0.488   1.892   0.359 -1.5626 -2.5113 -1.6050
16509TIP3   OH271017   3.924   2.410  47.405 -0.3068  0.0795  0.1595
16509TIP3    H171018   4.002   2.434  47.455 -1.0919 -1.6456  2.3375
16509TIP3    H271019   3.955   2.348  47.340  0.2101 -0.3050  0.7605
16510TIP3   OH271020   3.049   2.398   4.743 -0.0138 -0.1760  0.2299
16510TIP3    H171021   3.085   2.480   4.709 -1.0948 -0.3922 -1.5505
16510TIP3    H271022   3.115   2.332   4.722 -1.4493 -0.6576 -3.4700
16511TIP3   OH271023   0.864   2.279  18.938 -1.1728 -0.5703 -0.2866
16511TIP3    H171024   0.796   2.287  19.005 -2.8308  2.3248 -2.1086
16511TIP3    H271025   0.823   2.227  18.869 -0.1564 -1.9275  0.0962
16512TIP3   OH271026   1.854   2.575  47.426 -0.5034  0.1039 -0.4702
16512TIP3    H171027   1.809   2.492  47.408 -1.1897  0.0526  1.3289
16512TIP3    H271028   1.791   2.642  47.402 -1.9788  0.0341  2.7019
16513TIP3   OH271029   3.998   3.932  45.429  0.1833 -0.5667 -0.3227
16513TIP3    H171030   3.907   3.956  45.412  0.1518  0.1522  0.7419
16513TIP3    H271031   4.033   4.006  45.478  1.4187 -0.7329 -0.9223
16514TIP3   OH271032   1.996   1.846  41.960 -0.2213 -0.8215 -0.4956
16514TIP3    H171033   1.995   1.833  41.865 -1.7276  0.8430 -0.7574
16514TIP3    H271034   2.089   1.842  41.983  0.3760  0.6486 -2.3600
16515TIP3   OH271035   3.535   2.510  35.250  0.0096 -0.0562 -0.3901
16515TIP3    H171036   3.541   2.491  35.156 -0.1744  0.1805 -0.4538
16515TIP3    H271037   3.442   2.531  35.264 -0.1690 -1.0704  0.0361
16516TIP3   OH271038   0.371   3.786   4.996 -0.2041  0.3690 -0.3766
16516TIP3    H171039   0.401   3.778   5.087 -1.5145  1.7735  0.2139
16516TIP3    H271040   0.450   3.770   4.944  0.9531  1.1681  1.0452
16517TIP3   OH271041   0.732   2.124  44.069  0.2968 -0.3145 -0.0591
16517TIP3    H171042   0.804   2.064  44.087 -0.1745 -1.0961 -0.6981
16517TIP3    H271043   0.742   2.148  43.977  0.1007  0.0737  0.0119
16518TIP3   OH271044   0.106   3.388   0.070  0.2439 -0.0977  0.0192
16518TIP3    H171045   0.089   3.300   0.104  0.9116 -0.2280  0.0300
16518TIP3    H271046   0.198   3.405   0.091  1.2304 -0.8389 -3.1237
16519TIP3   OH271047   1.167   3.324  42.978  0.0156  0.8007 -0.2300
16519TIP3    H171048   1.086   3.354  43.021  1.3111  3.3659  0.5866
16519TIP3    H271049   1.202   3.258  43.037 -1.8427 -0.9883 -1.0113
16520TIP3   OH271050   0.797   0.495   7.380  0.3705 -0.3105  0.4127
16520TIP3    H171051   0.771   0.551   7.453 -2.3221 -0.6952 -0.1336
16520TIP3    H271052   0.816   0.411   7.420  2.7797  0.4680  1.0429
16521TIP3   OH271053   2.797   3.307  45.261 -0.5335 -0.0418  0.2212
16521TIP3    H171054   2.781   3.342  45.173 -0.3625  1.4827  0.7667
16521TIP3    H271055   2.884   3.268  45.256 -0.3408  0.4304 -0.1795
16522TIP3   OH271056   2.803   2.487  37.773  0.1189 -0.4342 -0.1657
16522TIP3    H171057   2.804   2.513  37.865 -1.1766 -0.5085 -0.1060
16522TIP3    H271058   2.845   2.402  37.772 -0.0728 -0.5424  0.4005
16523TIP3   OH271059   1.034   3.759   3.145 -0.4277  0.3593  0.2394
16523TIP3    H171060   1.071   3.845   3.165  0.1649 -0.2240  1.8452
16523TIP3    H271061   1.078   3.732   3.065  1.5749  0.3615  1.2597
16524TIP3   OH271062   4.064   2.821   1.225 -0.4645 -0.7240 -0.1886
16524TIP3    H171063   4.005   2.766   1.276 -1.9398  0.4021 -0.5898
16524TIP3    H271064   4.117   2.867   1.290 -0.8446 -0.8823  0.2371
16525TIP3   OH271065   1.801   3.150  44.425 -0.4298  0.0738  0.2050
16525TIP3    H171066   1.858   3.210  44.474 -0.1603 -0.1358  0.1517
16525TIP3    H271067   1.821   3.169  44.333  0.9497 -1.2839  0.1768
16526TIP3   OH271068   0.849   0.557  14.542  0.1733 -0.6723  0.0963
16526TIP3    H171069   0.801   0.548  14.459  1.3176  1.6321 -0.9207
16526TIP3    H271070   0.871   0.468  14.567 -2.6185 -1.6529 -0.5693
16527TIP3   OH271071   1.695   2.239  36.141  0.4297  0.0205  0.0925
16527TIP3    H171072   1.755   2.170  36.168 -1.1610 -0.8650  1.5687
16527TIP3    H271073   1.709   2.309  36.204 -1.0199 -0.7478  1.3077
16528TIP3   OH271074   3.148   1.575  15.058 -0.4351  0.3893 -0.0675
16528TIP3    H171075   3.222   1.555  15.001 -0.1308  1.9994 -0.2669
16528TIP3    H271076   3.123   1.490  15.095  0.0541 -0.5119 -1.7326
16529TIP3   OH271077   1.445   3.494  14.156  0.1489  0.2000  0.6817
16529TIP3    H171078   1.457   3.513  14.249  1.5190  0.1606  0.5298
16529TIP3    H271079   1.533   3.497  14.119 -0.2227 -1.0054 -0.3879
16530TIP3   OH271080   3.976   1.343  10.705  0.6385  0.5415  0.1939
16530TIP3    H171081   3.924   1.416  10.741  0.5769  0.3708  0.4540
16530TIP3    H271082   4.067   1.368  10.722  0.6667  1.0757 -0.7088
16531TIP3   OH271083   3.388   2.966  35.733 -0.1871  0.0249  0.2765
16531TIP3    H171084   3.400   2.961  35.639  1.2429  0.8617  0.3936
16531TIP3    H271085   3.293   2.956  35.746 -0.4661  0.4893 -1.2782
16532TIP3   OH271086   2.757   0.994  41.422 -0.1954  0.0382  0.1358
16532TIP3    H171087   2.684   0.936  41.400  0.1075 -0.7361  1.0980
16532TIP3    H271088   2.757   1.060  41.353 -2.5112  0.7245  0.7309
16533TIP3   OH271089   0.331   3.054   0.429  0.1026 -0.8289 -0.1074
16533TIP3    H171090   0.352   3.009   0.347  2.1505 -1.3723  0.6525
16533TIP3    H271091   0.410   3.104   0.450 -0.5646 -0.2953  1.2687
16534TIP3   OH271092   3.238   1.606  38.438 -0.2743  0.1742  0.9742
16534TIP3    H171093   3.225   1.527  38.490 -0.1933  0.4762  1.4674
16534TIP3    H271094   3.216   1.678  38.498  0.4462  0.5585  0.7899
16535TIP3   OH271095   2.670   1.499  33.933  0.2753  0.0418  0.6384
16535TIP3    H171096   2.589   1.535  33.969 -0.3551  1.7350 -2.1788
16535TIP3    H271097   2.641   1.446  33.859  1.7085  0.8815 -0.5736
16536TIP3   OH271098   2.630   0.280   8.369 -0.0201  0.7077 -0.0850
16536TIP3    H171099   2.685   0.339   8.318 -1.1560  1.0890 -0.9110
16536TIP3    H271100   2.652   0.298   8.460  0.7127  1.3364 -0.3769
16537TIP3   OH271101   0.651   2.493  41.185  0.1847  0.3335  0.1355
16537TIP3    H171102   0.575   2.461  41.135  0.5232 -0.8460  0.3586
16537TIP3    H271103   0.612   2.547  41.254 -0.4349  0.0348  0.0326
16538TIP3   OH271104   1.795   2.671  10.374  0.3466  0.0228  0.2878
16538TIP3    H171105   1.833   2.726  10.442  0.5116  0.5575 -0.2327
16538TIP3    H271106   1.766   2.592  10.421 -1.1639  1.1169  1.2991
16539TIP3   OH271107   1.614   0.449  47.730  0.0503  0.5257  0.6204
16539TIP3    H171108   1.586   0.389  47.661 -0.6337  1.3940  0.1328
16539TIP3    H271109   1.617   0.535  47.688  0.9858  0.8521  1.3151
16540TIP3   OH271110   1.921   0.597  15.556 -0.2700  0.6232 -0.5096
16540TIP3    H171111   1.973   0.531  15.511 -0.0856  0.9115 -0.7173
16540TIP3    H271112   1.895   0.554  15.638  0.3100  0.4812 -0.3909
16541TIP3   OH271113   1.824   2.509   2.011 -0.2866 -0.4316  0.2061
16541TIP3    H171114   1.750   2.552   2.052 -1.4823 -0.2935 -1.9540
16541TIP3    H271115   1.883   2.580   1.987  0.0655 -0.4537  0.9694
16542TIP3   OH271116   3.839   2.946   7.007 -0.8574  0.3456 -0.2408
16542TIP3    H171117   3.934   2.939   7.012 -0.8840 -0.5086 -0.8544
16542TIP3    H271118   3.822   3.041   7.011  0.0679  0.5633 -1.0776
16543TIP3   OH271119   2.956   0.502  46.632  0.0848  0.1634 -0.0430
16543TIP3    H171120   2.904   0.433  46.672  0.8268 -0.9467 -0.9243
16543TIP3    H271121   3.036   0.458  46.603  1.8705  1.8969  1.8466
16544TIP3   OH271122   1.540   0.405  15.415  0.1418 -0.3095 -0.1055
16544TIP3    H171123   1.444   0.403  15.410  0.0512  1.8806 -0.4425
16544TIP3    H271124   1.559   0.400  15.508 -0.3110 -0.6824 -0.0294
16545TIP3   OH271125   1.345   0.806  12.535 -0.4922  0.3069  0.2353
16545TIP3    H171126   1.401   0.808  12.457 -1.8966  0.4836 -0.8213
16545TIP3    H271127   1.344   0.715  12.562  0.4047  0.3254  0.3621
16546TIP3   OH271128   0.937   0.340  45.206  0.4009 -0.0111  0.0870
16546TIP3    H171129   0.875   0.391  45.154  0.9950 -0.2025 -0.8309
16546TIP3    H271130   0.882   0.294  45.270 -0.2970  0.5814 -0.0687
16547TIP3   OH271131   1.184   1.761   8.063  0.1264 -0.4456 -0.1227
16547TIP3    H171132   1.266   1.773   8.110  0.1850  0.9487 -0.5137
16547TIP3    H271133   1.156   1.850   8.042 -0.5912 -0.9657 -1.5120
16548TIP3   OH271134   3.330   0.239  46.792 -0.0852 -0.0270  0.0269
16548TIP3    H171135   3.415   0.202  46.769 -0.4864 -0.3401 -1.0201
16548TIP3    H271136   3.303   0.191  46.871  0.9452  0.4756  0.7040
16549TIP3   OH271137   3.814   1.448   4.425  0.2513 -0.0901  0.8848
16549TIP3    H171138   3.839   1.452   4.518  1.1984  2.0818  0.5963
16549TIP3    H271139   3.877   1.387   4.386  0.3505 -0.4039  1.5253
16550TIP3   OH271140   2.995   4.045  45.720  0.2547  0.7451 -0.3283
16550TIP3    H171141   2.933   4.105  45.679 -0.9003  0.0497  0.3107
16550TIP3    H271142   3.044   4.100  45.782  0.3379  1.3273 -0.9068
16551TIP3   OH271143   4.079   3.698  35.125  0.4165 -0.2023 -0.3249
16551TIP3    H171144   4.058   3.649  35.046 -0.3275 -1.4772  0.6261
16551TIP3    H271145   4.156   3.654  35.161  1.4412  1.0564 -0.8787
16552TIP3   OH271146   2.115   0.135   2.798  0.3982 -0.1725 -0.7782
16552TIP3    H171147   2.153   0.132   2.886  1.3935 -1.6097 -1.2067
16552TIP3    H271148   2.166   0.071   2.748 -2.2143 -1.8149 -1.5624
16553TIP3   OH271149   1.349   0.268  14.609  0.1124  0.1129 -0.4719
16553TIP3    H171150   1.412   0.234  14.546 -0.8098  1.1987 -2.0547
16553TIP3    H271151   1.402   0.297  14.683  1.1873 -1.5488 -0.5525
16554TIP3   OH271152   2.175   2.209  34.604  0.1370 -0.2849 -0.8416
16554TIP3    H171153   2.270   2.219  34.601  0.0517  0.6677 -0.4614
16554TIP3    H271154   2.144   2.281  34.659 -0.8042 -0.5974 -0.9377
16555TIP3   OH271155   0.101   0.157  28.863  0.1106 -0.0823  0.2466
16555TIP3    H171156   0.031   0.112  28.911  1.4208 -2.0415  0.4565
16555TIP3    H271157   0.174   0.160  28.925  0.8561  0.0957 -0.6264
16556TIP3   OH271158   2.875   3.943  31.437  0.1446 -0.0479  0.2264
16556TIP3    H171159   2.780   3.951  31.424  0.0690  0.0656  0.8117
16556TIP3    H271160   2.889   3.851  31.459  0.5067 -0.6903 -2.4444
16557TIP3   OH271161   1.883   1.237  34.487  0.0872  0.1958 -0.3341
16557TIP3    H171162   1.885   1.190  34.570  0.2482  0.0583 -0.4153
16557TIP3    H271163   1.790   1.240  34.464  0.1187 -0.6408 -0.6367
16558TIP3   OH271164   2.348   1.773  35.088 -0.4131 -0.4141 -0.3148
16558TIP3    H171165   2.436   1.806  35.104 -0.6131  0.7756 -1.4741
16558TIP3    H271166   2.356   1.678  35.094  0.7841 -0.2899  0.3017
16559TIP3   OH271167   2.901   0.543   9.714  0.1895 -0.3704  0.2251
16559TIP3    H171168   2.932   0.608   9.777  1.2150 -0.4300 -0.1974
16559TIP3    H271169   2.980   0.494   9.690 -0.4013 -1.1221 -0.2026
16560TIP3   OH271170   3.890   2.678   6.303  0.3230 -0.3925  0.1889
16560TIP3    H171171   3.842   2.654   6.383  1.1499 -0.4006  0.6942
16560TIP3    H271172   3.978   2.643   6.316  1.0924  1.4347  0.2101
16561TIP3   OH271173   3.061   2.328  13.992 -0.6639 -1.1445 -0.6805
16561TIP3    H171174   2.981   2.298  14.035  0.3301 -3.2663 -0.2182
16561TIP3    H271175   3.101   2.388  14.055 -1.2228 -1.0922 -0.3714
16562TIP3   OH271176   1.920   1.499   5.553 -0.2999 -0.0294 -0.0641
16562TIP3    H171177   1.996   1.556   5.544 -0.6114  0.4817  0.4142
16562TIP3    H271178   1.845   1.556   5.533 -0.6959  0.0567  1.5273
16563TIP3   OH271179   3.723   0.070  15.677 -0.3130 -0.0957  0.3673
16563TIP3    H171180   3.719   0.155  15.721  0.0273  0.7713 -1.2003
16563TIP3    H271181   3.649   0.070  15.616  0.6243 -0.2076 -0.8222
16564TIP3   OH271182   1.807   2.295  37.489 -0.2800 -0.2380  0.1820
16564TIP3    H171183   1.802   2.201  37.509  0.5745 -0.5355 -0.8833
16564TIP3    H271184   1.719   2.317  37.459 -0.5232 -0.6616  0.5541
16565TIP3   OH271185   1.622   2.045   5.769 -0.0063  0.1056 -0.5464
16565TIP3    H171186   1.716   2.027   5.770  0.0635  0.4785  0.4254
16565TIP3    H271187   1.604   2.069   5.678  1.0028  0.8362 -0.5800
16566TIP3   OH271188   2.619   1.553  17.980  0.6750  0.5305 -0.1041
16566TIP3    H171189   2.633   1.608  18.057  3.6133 -0.4713  0.1997
16566TIP3    H271190   2.616   1.463  18.015 -1.1557  0.2379 -0.8911
16567TIP3   OH271191   1.671   3.142  30.704 -0.0004 -0.0188 -0.1006
16567TIP3    H171192   1.634   3.082  30.769  1.2145 -0.4465  0.2262
16567TIP3    H271193   1.606   3.145  30.634 -0.0327 -1.8368 -0.1876
16568TIP3   OH271194   3.834   0.452   2.582  0.1918  0.2837 -0.5946
16568TIP3    H171195   3.785   0.533   2.600  0.3918  0.5318 -1.1306
16568TIP3    H271196   3.845   0.411   2.667  0.8413  1.2568 -0.1905
16569TIP3   OH271197   0.320   3.652   8.452  0.0730 -0.4543 -0.1795
16569TIP3    H171198   0.324   3.597   8.374  0.2477  0.9888 -1.2178
16569TIP3    H271199   0.251   3.612   8.506 -1.7639 -0.1191 -2.1509
16570TIP3   OH271200   3.905   3.956  37.115 -0.0526  0.1398 -0.0036
16570TIP3    H171201   3.908   3.869  37.155  2.8662  0.1444  0.0456
16570TIP3    H271202   3.929   4.016  37.186 -0.4375  0.7919 -0.4166
16571TIP3   OH271203   3.844   1.793  35.375 -0.0016 -0.5993 -0.1097
16571TIP3    H171204   3.821   1.859  35.441 -0.6042 -0.7339 -0.1786
16571TIP3    H271205   3.930   1.820  35.344  0.1246 -0.3185  0.4628
16572TIP3   OH271206   2.278   3.515  31.874  0.2795 -0.0317 -0.6869
16572TIP3    H171207   2.243   3.596  31.910 -0.8182  0.4342 -2.7051
16572TIP3    H271208   2.373   3.528  31.873  0.4503 -0.2627  2.3353
16573TIP3   OH271209   1.209   0.488   6.337 -0.1842 -0.0288  0.5215
16573TIP3    H171210   1.271   0.560   6.353  0.4561 -0.3056 -0.5874
16573TIP3    H271211   1.265   0.412   6.319 -0.7868  0.0525 -2.0269
16574TIP3   OH271212   0.043   2.713  44.375 -0.2867  0.4543  0.2271
16574TIP3    H171213   0.132   2.697  44.342  0.6264  0.6551  2.4048
16574TIP3    H271214   0.023   2.802  44.347 -0.4670 -0.1167 -1.5908
16575TIP3   OH271215   2.571   0.648  38.140 -0.4100  0.2262 -0.6120
16575TIP3    H171216   2.495   0.679  38.091 -1.1171  0.3262  0.5070
16575TIP3    H271217   2.555   0.554  38.151 -0.3305  0.2321 -0.4445
16576TIP3   OH271218   1.593   1.689   7.424  0.0244  0.3969  0.0917
16576TIP3    H171219   1.523   1.635   7.386 -0.2074  0.8171 -0.0905
16576TIP3    H271220   1.582   1.774   7.381 -0.0420  0.7891  0.8818
16577TIP3   OH271221   2.863   3.728  14.850  0.1466  0.1967 -0.6953
16577TIP3    H171222   2.956   3.740  14.829  0.1404  0.2397 -0.6993
16577TIP3    H271223   2.860   3.734  14.946  0.3604 -1.2786 -0.5679
16578TIP3   OH271224   1.772   3.896  11.070  0.5374 -0.2641 -0.2683
16578TIP3    H171225   1.863   3.881  11.093  0.0831 -3.0961  0.0648
16578TIP3    H271226   1.765   3.991  11.059  2.8770  0.3278  2.3268
16579TIP3   OH271227   0.502   1.759  39.582 -0.6158 -0.8180  0.3653
16579TIP3    H171228   0.425   1.800  39.544  0.1990  0.5830  0.1468
16579TIP3    H271229   0.481   1.750  39.675 -0.6202  0.6430  0.5311
16580TIP3   OH271230   2.000   2.297   2.004 -0.3117 -0.4713  0.1523
16580TIP3    H171231   2.087   2.336   1.995 -1.2021  1.3399 -1.1111
16580TIP3    H271232   1.941   2.371   2.017 -1.9022 -1.5008 -0.8344
16581TIP3   OH271233   2.795   1.171  15.461 -0.3575  0.3456  0.4124
16581TIP3    H171234   2.869   1.220  15.497  0.5843 -0.1018 -0.8236
16581TIP3    H271235   2.773   1.107  15.528  0.3311  0.5395  0.8326
16582TIP3   OH271236   0.945   1.912  44.420  0.0624  0.0082 -0.1497
16582TIP3    H171237   0.925   1.893  44.329 -1.3449 -2.9098  0.6290
16582TIP3    H271238   1.039   1.930  44.421  0.2817 -0.8199 -2.0432
16583TIP3   OH271239   0.121   2.493  12.917 -0.4894  0.5697  0.4494
16583TIP3    H171240   0.153   2.406  12.942 -0.0364  0.4957 -0.3749
16583TIP3    H271241   0.040   2.503  12.967  0.0085  0.1233  1.3763
16584TIP3   OH271242   0.952   1.512   1.853  0.1080  0.3268 -1.2237
16584TIP3    H171243   0.995   1.578   1.799  0.0478  0.2116 -1.4134
16584TIP3    H271244   1.006   1.434   1.843  0.6573  0.5708 -0.3403
16585TIP3   OH271245   1.169   1.978  16.470  0.0349  0.2795 -0.4993
16585TIP3    H171246   1.231   1.922  16.423  0.0874  0.3407 -0.5026
16585TIP3    H271247   1.212   1.997  16.553  0.4691  1.1609 -0.9110
16586TIP3   OH271248   0.261   3.222  36.531 -0.0206 -0.1107 -0.0619
16586TIP3    H171249   0.283   3.282  36.459 -0.8855 -0.1096 -0.3388
16586TIP3    H271250   0.170   3.244  36.553 -1.1147 -2.6537 -1.5761
16587TIP3   OH271251   3.056   2.114   0.060  0.1195  0.8654 -0.0606
16587TIP3    H171252   3.111   2.107   0.138  0.2034 -1.4329 -0.2660
16587TIP3    H271253   2.978   2.160   0.090  0.3412  0.4084  1.2837
16588TIP3   OH271254   0.951   0.668  31.010  0.0123  0.6685 -0.0171
16588TIP3    H171255   0.989   0.586  31.042 -0.1087  0.5996 -0.0508
16588TIP3    H271256   0.860   0.664  31.036 -0.2238  0.3599 -0.8552
16589TIP3   OH271257   0.899   1.300  38.616 -0.0080  0.0988  0.4346
16589TIP3    H171258   0.860   1.386  38.631 -2.3384 -0.7245 -0.4406
16589TIP3    H271259   0.935   1.275  38.701 -0.4165  1.3888  1.0230
16590TIP3   OH271260   1.881   0.103  32.780 -0.2155  0.1009 -0.2240
16590TIP3    H171261   1.826   0.161  32.834 -1.1281 -2.4066  1.7452
16590TIP3    H271262   1.818   0.050  32.731  0.5773 -0.0253 -1.1340
16591TIP3   OH271263   0.880   2.044  31.880  0.0337  0.3522  0.1028
16591TIP3    H171264   0.972   2.068  31.892 -0.0191  0.7032 -0.1761
16591TIP3    H271265   0.879   1.993  31.799  0.0439  0.0055  0.3226
16592TIP3   OH271266   1.132   3.406  39.189 -0.2331  0.8942  0.1206
16592TIP3    H171267   1.197   3.337  39.174 -0.6144 -0.0134  2.2692
16592TIP3    H271268   1.181   3.488  39.183  1.0542  0.2393  1.3328
16593TIP3   OH271269   2.708   3.243   6.666  0.4142 -0.0509  0.1863
16593TIP3    H171270   2.666   3.176   6.613 -0.4497  0.6544 -0.0400
16593TIP3    H271271   2.802   3.226   6.656  0.2265 -2.0628  1.2226
16594TIP3   OH271272   2.634   0.010  37.032  0.1690 -0.8752  0.2588
16594TIP3    H171273   2.693  -0.042  36.978  0.2534  0.6617 -1.2295
16594TIP3    H271274   2.560  -0.048  37.050  1.1544 -2.1316  0.3619
16595TIP3   OH271275   1.154   1.409  44.674  0.3397 -0.0994  0.2959
16595TIP3    H171276   1.059   1.405  44.687 -0.0246 -2.7468 -2.1797
16595TIP3    H271277   1.189   1.344  44.735  0.3424 -0.4862 -0.1113
16596TIP3   OH271278   4.049   1.662  46.826 -0.0887  0.9263  0.2627
16596TIP3    H171279   3.977   1.608  46.859 -1.8119  1.9793 -1.5677
16596TIP3    H271280   4.128   1.616  46.854 -1.4631 -1.4888  0.4610
16597TIP3   OH271281   1.743   3.843   4.249  0.6888  0.0014  0.0584
16597TIP3    H171282   1.784   3.855   4.163  0.1762 -0.2242 -0.2223
16597TIP3    H271283   1.659   3.889   4.242 -0.4563 -2.0548 -0.3993
16598TIP3   OH271284   0.058   1.040  10.457 -0.1581 -0.0507 -0.2209
16598TIP3    H171285   0.083   1.130  10.437 -1.0202 -0.0961 -1.6341
16598TIP3    H271286   0.136   1.001  10.496  0.5078  1.0452 -0.4266
16599TIP3   OH271287   2.930   1.963  14.552 -0.6667 -0.2106  0.3504
16599TIP3    H171288   2.884   1.886  14.585 -0.2409 -0.3807  0.5511
16599TIP3    H271289   2.984   1.992  14.626 -1.1777  0.5551  0.4300
16600TIP3   OH271290   2.922   2.186  15.563  0.3876  0.1571 -0.1062
16600TIP3    H171291   2.844   2.161  15.513 -0.0498  0.9147  0.1820
16600TIP3    H271292   2.937   2.278  15.540  0.9404  0.1422  0.1774
16601TIP3   OH271293   0.007   0.373   9.482 -0.0246 -0.1089 -0.1218
16601TIP3    H171294  -0.073   0.342   9.438  0.1980  0.5463 -1.0289
16601TIP3    H271295   0.033   0.301   9.539 -1.0709 -0.4681 -0.0772
16602TIP3   OH271296   3.761   1.930  18.057  0.6290  0.6269 -0.2440
16602TIP3    H171297   3.839   1.929  18.113 -1.0902  0.0961  2.3129
16602TIP3    H271298   3.722   2.016  18.071 -0.2088  0.2232 -0.0291
16603TIP3   OH271299   1.020   2.048  45.272 -1.0514 -0.4123 -0.3397
16603TIP3    H171300   1.022   2.005  45.186 -1.0920 -1.2500  0.0675
16603TIP3    H271301   0.927   2.049  45.296 -1.0873  0.2100 -0.4915
16604TIP3   OH271302   3.946   2.336  42.941  0.5167 -0.2914 -0.4909
16604TIP3    H171303   3.899   2.302  43.017  1.1913 -0.5055 -0.1609
16604TIP3    H271304   3.877   2.368  42.882  0.0240  1.1560  0.7945
16605TIP3   OH271305   1.550   1.241  43.043  0.3890  0.3194 -0.5358
16605TIP3    H171306   1.565   1.164  42.989  0.8359 -1.7079  2.2352
16605TIP3    H271307   1.470   1.220  43.092  1.4554  0.7519  1.5207
16606TIP3   OH271308   3.070   1.339  46.845 -0.0648  0.3732  0.3891
16606TIP3    H171309   3.068   1.405  46.776  1.7386  1.2671  1.1225
16606TIP3    H271310   3.061   1.255  46.800 -1.3628  1.0579 -0.6652
16607TIP3   OH271311   2.745   0.668   2.460 -0.0438  0.4808 -0.2028
16607TIP3    H171312   2.689   0.624   2.396  0.9250 -0.1335 -0.6465
16607TIP3    H271313   2.704   0.754   2.473 -1.5982 -0.2766  0.1859
16608TIP3   OH271314   2.042   1.779  31.812 -0.2678  0.0943 -0.0129
16608TIP3    H171315   2.020   1.713  31.746  1.2974 -0.8305  0.3292
16608TIP3    H271316   1.997   1.858  31.783 -1.1658 -0.7902 -1.1290
16609TIP3   OH271317   3.735   0.448  31.003 -0.3898 -0.3293  0.5699
16609TIP3    H171318   3.773   0.443  31.090  0.9307 -0.0403  0.0278
16609TIP3    H271319   3.727   0.542  30.985  1.1359 -0.3384 -0.3431
16610TIP3   OH271320   0.275   1.021  11.548  0.0579 -0.0748  0.4370
16610TIP3    H171321   0.254   1.108  11.582  1.3512  0.2564  0.4557
16610TIP3    H271322   0.281   0.966  11.626  0.5263  0.1228  0.5458
16611TIP3   OH271323   0.082   0.580   5.440  0.1104  0.1740 -0.3279
16611TIP3    H171324   0.104   0.492   5.469 -1.1873 -0.2210 -0.4984
16611TIP3    H271325   0.131   0.637   5.500  2.2479 -0.6154 -1.2234
16612TIP3   OH271326   3.641   0.354   1.906 -0.6696 -0.3762  0.5442
16612TIP3    H171327   3.581   0.427   1.916  0.8213  1.0657 -0.5410
16612TIP3    H271328   3.726   0.388   1.934 -0.0766 -1.9446  0.7698
16613TIP3   OH271329   2.938   3.293  32.948  0.3587 -0.3940 -0.0823
16613TIP3    H171330   2.925   3.253  33.034 -0.1923 -1.4868 -0.6446
16613TIP3    H271331   2.966   3.219  32.893  0.9970  0.3495 -0.7762
16614TIP3   OH271332   1.885   3.794  29.360  0.2107 -0.2702 -0.2998
16614TIP3    H171333   1.790   3.780  29.360  0.3704 -1.5245  0.6889
16614TIP3    H271334   1.908   3.798  29.268 -0.6258 -1.4213 -0.5923
16615TIP3   OH271335   3.321   3.867   9.531  0.0824  0.0331 -0.2363
16615TIP3    H171336   3.269   3.822   9.465 -0.5544 -0.7615  0.7749
16615TIP3    H271337   3.264   3.938   9.561 -0.5206 -0.9249  0.9744
16616TIP3   OH271338   3.232   0.040   6.958 -0.1741  0.5598 -0.0560
16616TIP3    H171339   3.146   0.014   6.927 -0.3737  2.4842 -1.3423
16616TIP3    H271340   3.222   0.132   6.983  0.5335 -0.2637  3.8528
16617TIP3   OH271341   0.529   0.429   1.673  0.7175  0.6320 -0.0003
16617TIP3    H171342   0.567   0.516   1.663  0.0537  1.1278  1.4189
16617TIP3    H271343   0.440   0.445   1.705  0.8238 -0.5568  0.9933
16618TIP3   OH271344   2.776   3.110  11.995  0.2670  0.2860  0.1743
16618TIP3    H171345   2.828   3.167  11.938  1.0244 -1.4907 -1.0001
16618TIP3    H271346   2.685   3.133  11.975  0.4559 -0.9532 -2.6178
16619TIP3   OH271347   0.294   3.663   6.002  0.4585  0.1838 -0.0423
16619TIP3    H171348   0.310   3.582   6.050  2.9458  1.0232  0.6987
16619TIP3    H271349   0.302   3.638   5.910  0.6956 -0.5204  0.1606
16620TIP3   OH271350   3.648   2.529  40.656  0.5911  0.2545  1.3910
16620TIP3    H171351   3.558   2.560  40.667  0.9551  2.1467 -0.3831
16620TIP3    H271352   3.640   2.456  40.595  0.3725  1.5480 -0.1916
16621TIP3   OH271353   0.850   3.814   3.462  0.1127 -0.1177 -0.0798
16621TIP3    H171354   0.940   3.845   3.453  0.5928 -0.6813  2.2216
16621TIP3    H271355   0.854   3.722   3.435  0.4580 -0.4277  1.0119
16622TIP3   OH271356   2.362   2.645  31.457  0.6268 -0.4080  0.1218
16622TIP3    H171357   2.446   2.678  31.425  0.0708 -0.1864 -1.1879
16622TIP3    H271358   2.349   2.562  31.411  0.4123 -0.7643  0.8026
16623TIP3   OH271359   1.088   2.028   3.451  0.0059 -0.1776 -0.4319
16623TIP3    H171360   1.169   2.067   3.484  0.6911 -2.3025  0.5811
16623TIP3    H271361   1.090   2.044   3.356  2.0504 -0.8779 -0.5508
16624TIP3   OH271362   1.998   1.414  43.745  0.7432 -0.0776 -0.2754
16624TIP3    H171363   1.910   1.450  43.757 -0.2834 -2.2531 -0.8950
16624TIP3    H271364   2.029   1.453  43.663  0.2732  0.4976 -0.1871
16625TIP3   OH271365   3.872   0.211   4.767 -0.0673  0.1154 -0.1892
16625TIP3    H171366   3.853   0.247   4.853 -0.5644 -0.1391 -0.1877
16625TIP3    H271367   3.927   0.277   4.725  1.5339 -0.4689  0.8931
16626TIP3   OH271368   2.780   2.640  41.004 -0.1956  0.2586 -0.6088
16626TIP3    H171369   2.695   2.596  41.002 -0.2848  0.3696  0.2915
16626TIP3    H271370   2.793   2.672  40.915 -1.2247  0.4726 -0.6912
16627TIP3   OH271371   1.509   0.235  34.241 -0.4677 -0.2709  0.0740
16627TIP3    H171372   1.444   0.272  34.300 -0.3280 -0.9401  0.6646
16627TIP3    H271373   1.585   0.219  34.296  0.2088  0.5005 -0.6048
16628TIP3   OH271374   1.801   2.257  38.791  0.3711 -0.2215 -0.1882
16628TIP3    H171375   1.814   2.352  38.793  0.8514 -0.2347 -1.8571
16628TIP3    H271376   1.714   2.245  38.830 -0.1951  1.0132 -0.9804
16629TIP3   OH271377   3.580   3.821   5.522  0.0976 -0.0005  0.0807
16629TIP3    H171378   3.498   3.778   5.547  0.1953 -0.0699  0.2812
16629TIP3    H271379   3.647   3.781   5.579  0.3797 -0.4042 -0.5277
16630TIP3   OH271380   3.605   3.815   3.329  0.1867  0.0961  0.0928
16630TIP3    H171381   3.556   3.768   3.396 -1.3519  0.1146 -0.9721
16630TIP3    H271382   3.571   3.904   3.332 -1.1887 -0.3013 -1.8340
16631TIP3   OH271383   2.595   2.877  12.779  0.9140 -0.6800  0.2328
16631TIP3    H171384   2.626   2.967  12.789 -0.4408 -0.1936  0.2671
16631TIP3    H271385   2.636   2.847  12.697  1.5654 -0.1290  0.3445
16632TIP3   OH271386   3.359   2.665  30.974 -0.1199  0.5750 -0.3053
16632TIP3    H171387   3.267   2.686  30.983 -0.6498 -0.6983 -2.1902
16632TIP3    H271388   3.378   2.607  31.049 -1.0248  0.3052 -0.2796
16633TIP3   OH271389   1.754   3.976  12.885 -0.0454  0.9129 -0.3857
16633TIP3    H171390   1.807   4.009  12.812  0.6636 -0.6301 -0.6182
16633TIP3    H271391   1.776   4.033  12.959 -1.2930  2.9513 -1.4896
16634TIP3   OH271392   3.597   4.062  28.612  0.1838  0.0843 -0.3158
16634TIP3    H171393   3.670   4.081  28.553 -0.2379  0.0204 -0.8644
16634TIP3    H271394   3.521   4.099  28.567 -0.0736  0.4529  0.4136
16635TIP3   OH271395   1.723   1.009  45.193 -0.3526  0.3249  0.2675
16635TIP3    H171396   1.742   1.031  45.101 -1.2138  1.7750  0.4003
16635TIP3    H271397   1.716   1.094  45.237 -0.2679 -0.3435  1.6230
16636TIP3   OH271398   3.709   0.153  47.020  0.0192 -0.3722  0.1635
16636TIP3    H171399   3.776   0.185  46.960  0.0753  0.1570  0.4983
16636TIP3    H271400   3.641   0.117  46.964  1.1737 -2.1545 -0.1736
16637TIP3   OH271401   2.902   0.917   0.765  0.4498  0.1377  0.3559
16637TIP3    H171402   2.885   0.958   0.850 -0.5002  0.1541  0.1599
16637TIP3    H271403   2.897   0.988   0.702 -0.8506 -0.2046  0.0582
16638TIP3   OH271404   1.045   1.249  12.514 -0.0822  0.5864  0.4636
16638TIP3    H171405   0.968   1.192  12.516 -1.3021  2.1757  0.0936
16638TIP3    H271406   1.114   1.193  12.477 -1.1684 -0.7124  0.3071
16639TIP3   OH271407   2.545   0.161  45.275 -0.7154  0.0672 -0.1053
16639TIP3    H171408   2.471   0.219  45.293 -1.1045 -0.3057 -0.4700
16639TIP3    H271409   2.545   0.099  45.347 -0.6284  0.1989  0.0059
16640TIP3   OH271410   1.258   1.621  15.432 -0.1883  0.0489 -0.0052
16640TIP3    H171411   1.267   1.533  15.395  1.5270 -0.3237  1.2161
16640TIP3    H271412   1.345   1.659  15.426 -0.6238  1.2072  0.6435
16641TIP3   OH271413   1.565   3.057   6.771  0.0606 -0.2212  0.3379
16641TIP3    H171414   1.636   3.104   6.726 -0.0740 -0.7709 -0.4856
16641TIP3    H271415   1.561   3.096   6.858  0.9683  0.2345  0.1866
16642TIP3   OH271416   1.753   1.779  40.087  0.3563  0.0517 -0.0479
16642TIP3    H171417   1.837   1.734  40.098  0.3810  0.5656  2.5773
16642TIP3    H271418   1.775   1.872  40.083  0.0171  0.0936 -1.2886
16643TIP3   OH271419   3.010   0.012  26.776  0.0566  0.4033  0.5091
16643TIP3    H171420   3.030   0.023  26.869  0.7012 -0.2575  0.4577
16643TIP3    H271421   2.933  -0.046  26.776 -1.0928  1.8678  0.6653
16644TIP3   OH271422   3.435   3.493  10.345 -0.0175  0.1338 -0.7576
16644TIP3    H171423   3.357   3.471  10.293 -0.6919 -0.4918  0.4928
16644TIP3    H271424   3.401   3.513  10.432  1.3930 -2.7222  0.5711
16645TIP3   OH271425   3.651   3.997   6.390 -0.2332  0.0769 -0.6422
16645TIP3    H171426   3.738   3.994   6.350  0.5632 -0.2399  1.0525
16645TIP3    H271427   3.596   4.039   6.323  1.5534  1.7884 -1.1336
16646TIP3   OH271428   2.324   2.274  36.422  0.1611  0.5679 -0.6791
16646TIP3    H171429   2.357   2.364  36.419  0.6205  0.4774  0.7442
16646TIP3    H271430   2.247   2.278  36.479 -1.9854  0.6360 -3.3449
16647TIP3   OH271431   1.277   3.204  41.694  0.1003 -0.6664 -0.6495
16647TIP3    H171432   1.285   3.296  41.666 -0.4152 -0.8443 -1.4008
16647TIP3    H271433   1.357   3.187  41.744 -0.3199  0.5338  0.5005
16648TIP3   OH271434   2.382   1.449   9.566  0.3372 -0.1027  0.4586
16648TIP3    H171435   2.462   1.436   9.515  0.5670  0.0959  0.7621
16648TIP3    H271436   2.408   1.509   9.636  0.0984 -0.5947  0.9790
16649TIP3   OH271437   3.737   0.409  41.854 -0.0740 -0.3687 -0.4977
16649TIP3    H171438   3.684   0.467  41.800  0.2753  1.1029  0.6748
16649TIP3    H271439   3.694   0.408  41.940  1.6953  0.8460  0.4789
16650TIP3   OH271440   0.257   1.956  37.728  0.3472  0.2259  0.4511
16650TIP3    H171441   0.320   1.958  37.800  1.9439  0.3119 -0.8740
16650TIP3    H271442   0.233   2.047  37.714  1.8371  0.5021 -0.5678
16651TIP3   OH271443   1.951   3.361   1.354  0.5817 -0.2344 -0.2558
16651TIP3    H171444   1.931   3.384   1.445 -1.3170  0.8279 -0.8764
16651TIP3    H271445   1.873   3.388   1.305  1.6157 -0.6403 -2.2284
16652TIP3   OH271446   1.963   3.035  21.823  0.0029  0.0481  0.5798
16652TIP3    H171447   2.038   3.093  21.812  0.6332 -0.4766  1.9791
16652TIP3    H271448   1.896   3.090  21.863 -0.2914  0.4465 -0.4263
16653TIP3   OH271449   2.171   3.721  34.770  0.5582 -0.4316  0.1566
16653TIP3    H171450   2.170   3.805  34.723  1.0395 -0.4841  0.0468
16653TIP3    H271451   2.261   3.691  34.762 -0.0518 -1.9444 -1.5539
16654TIP3   OH271452   2.431   1.699  12.887  0.4674  0.2892 -0.0454
16654TIP3    H171453   2.409   1.633  12.952 -0.9703  0.4162 -0.3847
16654TIP3    H271454   2.423   1.654  12.803  0.0729  0.7291 -0.2464
16655TIP3   OH271455   3.084   0.378  14.207  0.0982  0.2164  0.9475
16655TIP3    H171456   3.064   0.317  14.136 -1.7135 -0.2193  1.7734
16655TIP3    H271457   3.010   0.370  14.267  1.2765  1.0388  2.5831
16656TIP3   OH271458   1.084   2.794   9.866 -0.1557 -0.1683  0.4607
16656TIP3    H171459   1.110   2.773   9.776 -1.2511 -1.1232  0.3489
16656TIP3    H271460   1.134   2.732   9.920 -0.5822 -0.5671  0.4007
16657TIP3   OH271461   1.656   0.788   1.566  0.1972  0.3171 -0.2440
16657TIP3    H171462   1.670   0.719   1.631  1.1050  0.7641  0.0434
16657TIP3    H271463   1.727   0.776   1.503  0.6422  1.2723  0.0565
16658TIP3   OH271464   3.784   0.289   7.061 -0.1428  0.6130  0.0282
16658TIP3    H171465   3.777   0.194   7.061  0.4117  0.5721  0.6167
16658TIP3    H271466   3.722   0.318   7.128 -1.6784  0.7863 -1.3958
16659TIP3   OH271467   0.048   3.791  39.920 -0.3255  0.1177 -0.0426
16659TIP3    H171468   0.144   3.794  39.917 -0.2253 -1.3200  0.8475
16659TIP3    H271469   0.024   3.861  39.979  0.3140 -0.7126  1.2460
16660TIP3   OH271470   1.250   1.769  44.668 -0.3405 -0.0653 -0.0778
16660TIP3    H171471   1.198   1.747  44.591 -1.1014 -0.6479  0.5800
16660TIP3    H271472   1.334   1.798  44.634 -1.0279  0.7255 -1.1731
16661TIP3   OH271473   0.327   2.584   2.636  0.0511 -0.1912  0.2401
16661TIP3    H171474   0.399   2.523   2.655 -0.4854 -1.0262 -0.3399
16661TIP3    H271475   0.258   2.529   2.599 -0.7689  0.6525  0.4859
16662TIP3   OH271476   0.696   1.419  12.533  0.1768  0.4468 -0.1226
16662TIP3    H171477   0.712   1.378  12.618  1.0681  0.1214 -0.4355
16662TIP3    H271478   0.682   1.346  12.474  1.2039  0.5931 -0.5734
16663TIP3   OH271479   1.238   0.493  46.589 -0.3365 -0.0305 -0.2669
16663TIP3    H171480   1.301   0.509  46.659 -0.2689 -1.8105  0.1274
16663TIP3    H271481   1.153   0.490  46.634 -0.4732  0.3355 -0.4975
16664TIP3   OH271482   1.490   0.774   1.839  0.8441  0.1353  0.1800
16664TIP3    H171483   1.580   0.758   1.810  0.0122 -0.0695 -2.5920
16664TIP3    H271484   1.483   0.870   1.841  0.6244  0.1875 -1.5467
16665TIP3   OH271485   1.992   1.698  38.215  0.7272 -0.1189  0.6842
16665TIP3    H171486   2.068   1.670  38.266  0.9408 -0.0710  0.3955
16665TIP3    H271487   1.932   1.624  38.219  1.5664 -0.9088 -0.6448
16666TIP3   OH271488   0.633   2.887  11.612 -0.3897  0.1056  0.2702
16666TIP3    H171489   0.615   2.902  11.520  0.8362  1.6309  0.2433
16666TIP3    H271490   0.590   2.960  11.657  0.0362  0.0450  0.7856
16667TIP3   OH271491   1.486   2.763  36.919  0.2106 -0.5414  0.5515
16667TIP3    H171492   1.497   2.773  37.013 -0.4575 -1.7509  0.7887
16667TIP3    H271493   1.536   2.835  36.880 -1.2864  1.2973  1.8811
16668TIP3   OH271494   2.696   2.791  10.973 -0.1261  0.1462  0.4325
16668TIP3    H171495   2.631   2.841  10.924  0.7926  0.2649 -0.7112
16668TIP3    H271496   2.720   2.848  11.046 -0.4844  0.5576  0.2336
16669TIP3   OH271497   3.381   3.670  30.997  0.4429 -0.6158  0.3108
16669TIP3    H171498   3.378   3.713  31.083 -0.0943  2.1122 -0.9722
16669TIP3    H271499   3.442   3.722  30.946  1.3837 -2.6821 -0.7941
16670TIP3   OH271500   2.045   1.672  39.554 -0.1038  0.3226 -0.5430
16670TIP3    H171501   2.033   1.744  39.492  0.2806  0.3317 -0.6089
16670TIP3    H271502   2.056   1.714  39.639  0.1262  0.3456 -0.5820
16671TIP3   OH271503   1.466   0.040   6.526  0.4886  0.0868  0.1663
16671TIP3    H171504   1.485  -0.035   6.469 -1.7093 -0.9121  0.6442
16671TIP3    H271505   1.525   0.030   6.600  0.9919 -0.5247 -0.3074
16672TIP3   OH271506   0.534   1.796  33.715 -0.2106 -0.5866  0.0795
16672TIP3    H171507   0.505   1.777  33.626  3.0150 -0.9685 -0.9990
16672TIP3    H271508   0.605   1.734  33.731  3.1488  3.0752  0.6865
16673TIP3   OH271509   0.083   2.906   4.932 -0.2265 -1.5035  0.1469
16673TIP3    H171510  -0.008   2.883   4.914 -0.5606 -0.3525  0.3398
16673TIP3    H271511   0.079   2.985   4.985  0.9105  0.2188 -2.1364
16674TIP3   OH271512   3.345   0.686  15.297 -0.1253 -0.5720  0.7610
16674TIP3    H171513   3.304   0.734  15.224 -1.6517 -3.4686 -0.4265
16674TIP3    H271514   3.309   0.728  15.375  1.2066  2.3324 -0.0232
16675TIP3   OH271515   0.056   1.594   7.255  0.6131 -0.1589  0.0365
16675TIP3    H171516   0.152   1.599   7.251  0.7523 -0.6108  1.7844
16675TIP3    H271517   0.030   1.678   7.293  0.2908  0.0702 -0.6901
16676TIP3   OH271518   3.236   0.694  45.263  0.0008  0.2947  0.2640
16676TIP3    H171519   3.158   0.744  45.286 -0.6793 -1.0499  1.0356
16676TIP3    H271520   3.309   0.743  45.302 -0.3180  2.0580 -1.2553
16677TIP3   OH271521   0.208   2.768   7.795 -0.6962  0.1985 -0.7524
16677TIP3    H171522   0.234   2.697   7.854 -0.5120  0.9445  0.0768
16677TIP3    H271523   0.268   2.840   7.815 -1.5432  0.9523 -0.8457
16678TIP3   OH271524   3.565   1.428  39.377 -0.2139 -0.3876 -0.4892
16678TIP3    H171525   3.609   1.359  39.428  0.0082 -1.8499 -2.5343
16678TIP3    H271526   3.526   1.485  39.443  0.9025 -1.6105  1.3178
16679TIP3   OH271527   1.402   1.657  21.985  0.2868 -0.0091 -0.1105
16679TIP3    H171528   1.355   1.574  21.996 -1.8326  1.3314  1.7698
16679TIP3    H271529   1.484   1.644  22.034  0.1268 -1.0693 -0.0990
16680TIP3   OH271530   0.536   0.992   5.256 -0.0312 -0.0718  0.2129
16680TIP3    H171531   0.596   0.958   5.322  0.8535 -0.0902 -0.5858
16680TIP3    H271532   0.499   0.915   5.214  0.6495 -0.0610 -0.4154
16681TIP3   OH271533   3.253   0.508   1.802  0.6299  0.4366 -0.5901
16681TIP3    H171534   3.344   0.535   1.817  0.0876  1.4401  1.0919
16681TIP3    H271535   3.223   0.475   1.886 -1.1817  2.0810 -0.5137
16682TIP3   OH271536   1.009   1.254  46.183 -0.0662 -0.2523  0.3243
16682TIP3    H171537   0.988   1.193  46.113 -0.6290  1.8785 -1.5082
16682TIP3    H271538   1.105   1.257  46.184 -0.0336 -1.0622  0.3770
16683TIP3   OH271539   3.289   2.187  19.821 -0.1436 -0.0784 -0.5573
16683TIP3    H171540   3.331   2.110  19.783  0.6571 -0.3704  0.8757
16683TIP3    H271541   3.328   2.261  19.775  0.1581 -0.4569 -0.9109
16684TIP3   OH271542   3.911   0.048  37.298 -0.1730 -0.3065  0.1875
16684TIP3    H171543   3.941   0.135  37.325  1.1105 -0.7100  0.1224
16684TIP3    H271544   3.839   0.028  37.357 -0.8029  0.9931 -0.0968
16685TIP3   OH271545   3.002   3.812   0.775  0.6714 -0.1971 -0.3523
16685TIP3    H171546   2.930   3.749   0.772 -0.1881  0.7167  0.1837
16685TIP3    H271547   3.048   3.792   0.857  0.7999 -0.5380 -0.5069
16686TIP3   OH271548   0.398   2.798  45.515 -0.5738  0.3423  0.2879
16686TIP3    H171549   0.320   2.853  45.506  0.2394  1.4125 -0.5751
16686TIP3    H271550   0.380   2.743  45.591 -3.0719 -1.0109 -1.1313
16687TIP3   OH271551   2.547   2.793   6.728  0.2442  0.2792 -0.1978
16687TIP3    H171552   2.568   2.710   6.770  0.9383  0.8630  0.6338
16687TIP3    H271553   2.596   2.859   6.777  2.0949  0.8899 -2.6236
16688TIP3   OH271554   0.397   3.406  12.907  0.7644  0.2473 -0.2448
16688TIP3    H171555   0.387   3.429  12.815  1.6949  0.6180 -0.2673
16688TIP3    H271556   0.448   3.479  12.944  0.1645  0.2401  0.6260
16689TIP3   OH271557   3.064   1.276  38.409  0.6603 -0.1806 -0.2736
16689TIP3    H171558   3.085   1.229  38.490  1.1996  0.8139  0.1807
16689TIP3    H271559   3.090   1.215  38.339  2.1891 -0.2349  0.2899
16690TIP3   OH271560   2.060   1.649  36.097  0.1709 -0.0733 -0.7519
16690TIP3    H171561   2.091   1.739  36.104  0.6522 -0.1285 -2.0086
16690TIP3    H271562   1.971   1.657  36.064 -0.1813 -0.0220  0.1967
16691TIP3   OH271563   1.847   1.079  38.791  0.1189 -0.1360 -0.2930
16691TIP3    H171564   1.836   1.174  38.791 -1.3059 -0.2551 -1.9078
16691TIP3    H271565   1.859   1.055  38.699 -1.4287 -1.6646 -0.1775
16692TIP3   OH271566   0.580   2.296  45.486 -0.0168  0.1309  0.0798
16692TIP3    H171567   0.519   2.273  45.557  0.6413 -0.3939  0.4861
16692TIP3    H271568   0.639   2.360  45.526  0.6252 -0.4880  0.1493
16693TIP3   OH271569   2.756   3.756  32.974 -0.6790 -0.3717 -0.0379
16693TIP3    H171570   2.806   3.681  33.008  0.1535 -1.0664 -2.5561
16693TIP3    H271571   2.721   3.725  32.891 -1.4508  1.6322 -0.5056
16694TIP3   OH271572   2.832   1.114  47.581 -0.2221 -0.2863 -0.1854
16694TIP3    H171573   2.753   1.150  47.621  0.3695  0.6665  0.1680
16694TIP3    H271574   2.830   1.145  47.491 -0.5042 -0.6944 -0.3204
16695TIP3   OH271575   0.818   1.822  47.086  0.6466  0.3489 -0.5931
16695TIP3    H171576   0.772   1.750  47.041  0.9370 -0.1426 -0.1225
16695TIP3    H271577   0.872   1.778  47.152  1.6950  0.9280 -1.0438
16696TIP3   OH271578   0.382   0.670   6.473  0.1735 -0.7216 -0.1178
16696TIP3    H171579   0.294   0.675   6.436  0.4720  6.5140 -1.3797
16696TIP3    H271580   0.374   0.707   6.561  1.8979  1.0291 -0.6110
16697TIP3   OH271581   0.995   1.468   8.718  0.1911 -0.2015 -0.0996
16697TIP3    H171582   1.012   1.560   8.737 -2.0492  0.7154 -2.1166
16697TIP3    H271583   1.036   1.453   8.633  2.7181 -1.8696  1.2630
16698TIP3   OH271584   3.935   0.910   8.619  0.0277  0.5812  0.8727
16698TIP3    H171585   3.947   0.934   8.527  0.4171  1.0950  1.0498
16698TIP3    H271586   4.022   0.920   8.658 -0.0988  0.2049  1.2630
16699TIP3   OH271587   1.553   4.069  29.206 -0.2658  0.6814 -0.0378
16699TIP3    H171588   1.600   4.126  29.146 -0.3655 -0.4237 -1.2098
16699TIP3    H271589   1.496   4.127  29.255 -1.9261  1.4183 -2.6663
16700TIP3   OH271590   3.826   2.175  43.137  0.5190  0.2100 -0.4121
16700TIP3    H171591   3.745   2.219  43.162  0.1780 -0.2970 -0.6233
16700TIP3    H271592   3.803   2.082  43.133  0.3347  0.2787 -3.3012
16701TIP3   OH271593   0.148   3.998  34.316  0.2310 -0.2114  0.0070
16701TIP3    H171594   0.114   3.923  34.268  0.2159  0.9728 -1.9659
16701TIP3    H271595   0.072   4.054  34.331  0.3066 -0.3864  1.1153
16702TIP3   OH271596   0.387   1.742  37.091  0.1236 -0.4272  0.2564
16702TIP3    H171597   0.395   1.693  37.009 -0.6948 -1.4519  0.7654
16702TIP3    H271598   0.420   1.682  37.158 -1.2816 -0.4699  0.9514
16703TIP3   OH271599   3.805   2.508  40.898  0.6279  0.1690  0.7162
16703TIP3    H171600   3.755   2.523  40.818  0.8553  1.0827  0.7340
16703TIP3    H271601   3.756   2.441  40.945  0.4416 -0.3104 -0.1396
16704TIP3   OH271602   1.798   0.402  13.055  0.1749 -0.4752 -0.7097
16704TIP3    H171603   1.807   0.478  12.997  0.4381 -1.8811 -2.6169
16704TIP3    H271604   1.778   0.330  12.996  1.1395 -2.1320  0.8979
16705TIP3   OH271605   4.036   3.432   7.008  0.2096 -0.1723 -0.2168
16705TIP3    H171606   4.022   3.521   7.041  0.4103 -1.2096  3.0556
16705TIP3    H271607   4.131   3.420   7.011  0.1590 -0.6071 -0.2464
16706TIP3   OH271608   1.380   3.495  42.935 -0.5129 -0.0857  0.1396
16706TIP3    H171609   1.350   3.584  42.918  0.5356  0.6564  1.9757
16706TIP3    H271610   1.302   3.449  42.967 -0.9074  0.3138 -0.2315
16707TIP3   OH271611   3.098   1.210  34.950  0.2237  0.2132  0.1996
16707TIP3    H171612   3.176   1.155  34.953 -0.8046 -1.2757  1.6117
16707TIP3    H271613   3.108   1.263  34.872  0.9972 -2.4415 -1.6307
16708TIP3   OH271614   2.168   2.427  44.953  0.2358 -0.3044 -0.1012
16708TIP3    H171615   2.181   2.350  45.008  2.1513  1.3317  1.9447
16708TIP3    H271616   2.247   2.479  44.967 -1.1358  2.2019 -1.1187
16709TIP3   OH271617   0.064   2.605  47.525  0.3343 -0.5806 -0.5797
16709TIP3    H171618   0.069   2.567  47.437  1.3182  0.0350 -0.8004
16709TIP3    H271619   0.138   2.568  47.572 -0.9388 -1.9617  0.4485
16710TIP3   OH271620   0.599   3.040   6.273 -0.0938 -0.6222  0.0025
16710TIP3    H171621   0.578   3.070   6.362  0.0907 -0.0165 -0.1549
16710TIP3    H271622   0.664   2.971   6.286  1.5063  0.8935  0.2386
16711TIP3   OH271623   3.598   3.670  38.352  0.1494  0.5834 -0.7612
16711TIP3    H171624   3.664   3.642  38.289 -0.8476 -1.0091 -1.1630
16711TIP3    H271625   3.518   3.678  38.300 -0.6504 -0.5717  0.2311
16712TIP3   OH271626   2.073   0.370   4.443 -0.7054  0.1093 -0.0580
16712TIP3    H171627   2.133   0.439   4.414 -0.8006  0.0173 -0.4853
16712TIP3    H271628   2.099   0.293   4.392 -1.1540  0.0588 -0.2149
16713TIP3   OH271629   0.289   1.799  13.213  0.2643 -0.3553  0.1185
16713TIP3    H171630   0.367   1.808  13.267 -0.6439  0.1519  1.4109
16713TIP3    H271631   0.219   1.780  13.275 -1.1794  2.1057 -0.5988
16714TIP3   OH271632   2.588   1.167   1.709 -0.4592 -0.7300 -0.1457
16714TIP3    H171633   2.568   1.261   1.717 -0.3077 -0.5467 -1.6682
16714TIP3    H271634   2.606   1.139   1.799 -0.0354  0.8071  0.2835
16715TIP3   OH271635   1.265   3.487  47.186 -0.2537  0.5442  0.3971
16715TIP3    H171636   1.263   3.577  47.153  0.5965 -0.0315 -1.3486
16715TIP3    H271637   1.323   3.490  47.263 -0.6974  1.5746  0.7017
16716TIP3   OH271638   0.266   1.322  43.053  0.2767 -0.4327 -0.3870
16716TIP3    H171639   0.297   1.316  42.963 -1.3159  1.1408 -1.1155
16716TIP3    H271640   0.243   1.232  43.077  0.3046 -0.8128 -1.7124
16717TIP3   OH271641   0.467   1.778  35.250  0.0595  0.0303 -0.3739
16717TIP3    H171642   0.478   1.693  35.292  1.8629  0.1367 -0.5801
16717TIP3    H271643   0.373   1.783  35.231 -0.0461 -1.9835 -0.5544
16718TIP3   OH271644   3.852   3.843  11.541  0.6327  0.2986 -0.2337
16718TIP3    H171645   3.939   3.811  11.518  0.5686 -0.6899  0.7847
16718TIP3    H271646   3.863   3.880  11.629 -0.1562 -0.7587  0.3359
16719TIP3   OH271647   2.093   0.328  37.114  0.0446 -0.3748  0.0015
16719TIP3    H171648   2.013   0.299  37.159 -0.5029 -1.3527 -1.5229
16719TIP3    H271649   2.063   0.391  37.049  0.6547  0.0773  0.1578
16720TIP3   OH271650   2.231   2.380  46.508  0.3039  0.1128 -0.3575
16720TIP3    H171651   2.236   2.313  46.576  0.2269 -1.2446 -1.6494
16720TIP3    H271652   2.308   2.363  46.453  0.3688  1.1905 -0.6118
16721TIP3   OH271653   3.538   2.603  45.298 -0.1068 -0.3950 -0.9422
16721TIP3    H171654   3.558   2.693  45.322  0.9878 -0.7068 -0.6516
16721TIP3    H271655   3.587   2.549  45.360  2.2766 -1.2170 -3.3229
16722TIP3   OH271656   1.088   0.474  40.051 -0.1787 -0.0923 -0.1671
16722TIP3    H171657   1.159   0.503  39.993 -1.0336  0.0696 -1.1681
16722TIP3    H271658   1.085   0.379  40.038  0.4573 -0.2208  0.5859
16723TIP3   OH271659   2.825   0.242  25.987  0.5083  0.1909  0.3626
16723TIP3    H171660   2.882   0.259  26.062 -0.3352  0.3785  0.9839
16723TIP3    H271661   2.739   0.274  26.015  0.1944  0.3219 -0.7161
16724TIP3   OH271662   2.835   1.646   2.261  0.4618  0.3306 -0.6344
16724TIP3    H171663   2.856   1.733   2.227 -1.5529  1.0297 -0.2778
16724TIP3    H271664   2.858   1.586   2.191  0.8122  1.2692 -1.3429
16725TIP3   OH271665   3.061   2.797  14.156  0.6301 -0.2782  0.5584
16725TIP3    H171666   3.113   2.851  14.096  0.5748  0.6688  1.3194
16725TIP3    H271667   3.087   2.707  14.137 -1.5662 -0.3395 -2.9522
16726TIP3   OH271668   2.551   1.529  35.515 -0.2654  0.3219 -0.6725
16726TIP3    H171669   2.532   1.519  35.608 -0.2736  1.0884 -0.5804
16726TIP3    H271670   2.586   1.444  35.488 -0.0788  0.1526  0.0731
16727TIP3   OH271671   3.075   1.966  40.172  0.2470  0.2106  0.0068
16727TIP3    H171672   3.013   1.927  40.233 -0.9653  2.6944  0.5040
16727TIP3    H271673   3.021   1.998  40.100  1.3646 -0.3847 -1.1373
16728TIP3   OH271674   1.830   0.563  46.753  0.0190  0.1325  0.2601
16728TIP3    H171675   1.893   0.493  46.765 -0.0152  0.0679  0.0728
16728TIP3    H271676   1.810   0.594  46.841 -0.5884 -0.6409  0.3982
16729TIP3   OH271677   3.853   3.406   2.434  0.7990  0.2274 -0.2969
16729TIP3    H171678   3.874   3.422   2.342  1.4283  0.0829 -0.1785
16729TIP3    H271679   3.919   3.453   2.483 -1.7083  3.5790  0.1965
16730TIP3   OH271680   3.887   2.326   9.231  0.3635 -0.4343 -0.1293
16730TIP3    H171681   3.850   2.263   9.294  1.2993 -0.5314  0.3322
16730TIP3    H271682   3.878   2.283   9.146  0.4467 -0.9351  0.1123
16731TIP3   OH271683   3.461   3.421  25.301  0.4165 -0.2125  0.4403
16731TIP3    H171684   3.468   3.416  25.397 -1.6278  1.1258  0.7244
16731TIP3    H271685   3.466   3.330  25.272 -3.5562 -1.2474  2.3012
16732TIP3   OH271686   0.153   0.738  15.332  0.3748  0.2962  0.2258
16732TIP3    H171687   0.242   0.706  15.313  0.2353  0.2657 -0.4001
16732TIP3    H271688   0.148   0.821  15.286  1.0266  1.6853  2.5201
16733TIP3   OH271689   1.585   3.163  43.238  0.0802 -0.0817  0.1140
16733TIP3    H171690   1.637   3.089  43.207  1.4237 -0.0266  2.0238
16733TIP3    H271691   1.501   3.125  43.263  0.5284 -0.8732  0.4629
16734TIP3   OH271692   0.504   3.921  11.924  0.5130 -0.5409 -0.1038
16734TIP3    H171693   0.536   3.841  11.882  0.1849  0.1035 -1.6515
16734TIP3    H271694   0.558   3.930  12.003 -0.2728 -2.9303  0.7824
16735TIP3   OH271695   3.277   1.998   0.304 -0.2041 -0.6212  0.0550
16735TIP3    H171696   3.261   2.039   0.389 -0.3737 -0.4753 -0.0471
16735TIP3    H271697   3.373   1.995   0.296 -0.1889 -0.5142  0.1923
16736TIP3   OH271698   0.018   1.528  39.612  0.1812  0.0028  0.4743
16736TIP3    H171699  -0.001   1.554  39.522  1.3331 -0.1957  0.1662
16736TIP3    H271700   0.049   1.608  39.655  0.7804 -0.1682  0.3647
16737TIP3   OH271701   1.939   0.898  40.187 -0.1981 -0.0609  0.3006
16737TIP3    H171702   2.026   0.884  40.151 -0.0232 -0.5997  0.8896
16737TIP3    H271703   1.903   0.972  40.139 -0.0469 -0.8484 -1.0733
16738TIP3   OH271704   2.165   2.725  32.405  0.1666 -0.3037 -0.5153
16738TIP3    H171705   2.254   2.731  32.439 -0.6523 -3.3531  2.7425
16738TIP3    H271706   2.124   2.809  32.430  0.6022 -1.0814  3.4468
16739TIP3   OH271707   3.894   3.359  45.479 -0.3102 -0.7552 -0.0337
16739TIP3    H171708   3.826   3.334  45.416 -0.0623 -2.3499  0.3151
16739TIP3    H271709   3.902   3.454  45.468 -3.9849 -0.1182  1.2727
16740TIP3   OH271710   0.382   0.407  30.594 -0.1177  0.1126 -0.5032
16740TIP3    H171711   0.400   0.498  30.570  2.0148 -0.2137 -0.3179
16740TIP3    H271712   0.309   0.382  30.538  0.5286  1.3616 -1.9781
16741TIP3   OH271713   1.688   1.294   0.915  0.6092  0.3435 -0.6855
16741TIP3    H171714   1.648   1.380   0.930  0.7747  0.2925  0.1258
16741TIP3    H271715   1.754   1.309   0.848  0.5778  0.8321 -0.6092
16742TIP3   OH271716   2.508   1.536   5.036 -0.2510  0.0549  0.1307
16742TIP3    H171717   2.457   1.609   5.070  0.3817  0.0013  1.2152
16742TIP3    H271718   2.592   1.542   5.081 -0.4311 -1.7543  0.7755
16743TIP3   OH271719   0.651   2.083  46.641 -0.0891  0.1176 -0.8793
16743TIP3    H171720   0.677   2.047  46.726  0.0310 -0.1825 -1.0423
16743TIP3    H271721   0.557   2.071  46.637 -0.1453  0.4437 -0.6464
16744TIP3   OH271722   2.764   1.519  36.100  0.4789  0.1064 -0.4349
16744TIP3    H171723   2.824   1.459  36.144  1.2423 -0.7684 -2.5516
16744TIP3    H271724   2.678   1.477  36.108  0.4545  0.3500  0.8350
16745TIP3   OH271725   3.919   1.719   1.106 -0.2475  0.6015  0.2438
16745TIP3    H171726   3.999   1.720   1.157  0.6325 -1.5101 -0.9634
16745TIP3    H271727   3.926   1.795   1.048  1.4111 -0.1255 -0.5607
16746TIP3   OH271728   3.141   1.840  11.914 -0.4608 -0.6199 -0.0218
16746TIP3    H171729   3.051   1.842  11.880 -0.6160  1.1030  0.4272
16746TIP3    H271730   3.193   1.884  11.847 -0.1578 -0.4835  0.2995
16747TIP3   OH271731   3.112   2.844   2.962 -0.3506  0.0456  0.0071
16747TIP3    H171732   3.123   2.790   3.041 -0.3691  1.9472  1.3940
16747TIP3    H271733   3.199   2.846   2.922 -0.0989 -0.1661  0.5308
16748TIP3   OH271734   2.067   0.256   5.165 -0.2746  0.0263 -0.1615
16748TIP3    H171735   2.037   0.214   5.085  1.0045  0.5628 -0.9554
16748TIP3    H271736   2.160   0.233   5.172 -0.6018 -0.9334  1.7920
16749TIP3   OH271737   2.702   0.659  43.847 -0.2092 -0.5991 -0.2020
16749TIP3    H171738   2.732   0.703  43.767 -0.8943  0.9083  0.3441
16749TIP3    H271739   2.627   0.710  43.876 -0.2915 -1.4350  1.1402
16750TIP3   OH271740   1.020   2.507  20.614 -0.4338  0.2361  0.1815
16750TIP3    H171741   1.111   2.507  20.584 -0.8302 -2.1922 -1.2707
16750TIP3    H271742   1.022   2.558  20.696  2.7295 -1.8134  1.5927
16751TIP3   OH271743   0.661   1.402  37.928 -0.3914 -0.0543 -0.6011
16751TIP3    H171744   0.645   1.486  37.885  0.9936  1.1070  1.0213
16751TIP3    H271745   0.704   1.425  38.010 -0.0487 -2.3639 -0.0660
16752TIP3   OH271746   2.161   3.055  20.944 -0.0986  0.6721  0.0152
16752TIP3    H171747   2.215   2.976  20.938 -0.1825  0.7035 -1.6060
16752TIP3    H271748   2.208   3.120  20.890 -0.3466  1.5548  0.8252
16753TIP3   OH271749   2.201   0.313  34.909 -0.3919 -0.3086 -0.6424
16753TIP3    H171750   2.198   0.251  34.982 -0.4054 -1.1915 -1.3694
16753TIP3    H271751   2.213   0.398  34.950 -1.5696 -0.6433  0.4609
16754TIP3   OH271752   4.006   0.360  33.495 -0.0011 -0.3399 -0.0975
16754TIP3    H171753   3.941   0.430  33.490 -0.1130 -0.3680  0.7558
16754TIP3    H271754   4.071   0.392  33.557 -2.2204 -2.6482  3.8465
16755TIP3   OH271755   3.675   3.366   6.627 -0.2354 -0.0466 -0.1305
16755TIP3    H171756   3.653   3.459   6.635  1.5340  0.2874  2.0439
16755TIP3    H271757   3.661   3.331   6.715  0.6068 -1.4833 -0.5325
16756TIP3   OH271758   1.764   2.721   0.590  0.2248 -0.4566 -0.6257
16756TIP3    H171759   1.839   2.699   0.536  0.8432 -1.7525  0.6875
16756TIP3    H271760   1.798   2.782   0.656 -0.1164 -0.2193 -0.6677
16757TIP3   OH271761   3.710   2.944  39.613 -0.0496  0.3319 -0.1643
16757TIP3    H171762   3.790   2.955  39.562 -0.8880  0.7956 -1.4172
16757TIP3    H271763   3.642   2.983  39.559 -0.8077  1.9649  1.8250
16758TIP3   OH271764   3.309   1.536   4.776  0.1613 -0.4715 -0.1323
16758TIP3    H171765   3.401   1.554   4.799  0.2480 -0.4043 -0.5233
16758TIP3    H271766   3.282   1.468   4.837 -0.1891  1.0108  1.4595
16759TIP3   OH271767   0.783   2.883   6.972 -0.1904 -0.2882  0.0975
16759TIP3    H171768   0.857   2.831   7.005  0.1540  0.8867  1.2662
16759TIP3    H271769   0.735   2.908   7.051 -0.8414  0.4232 -0.5200
16760TIP3   OH271770   1.583   1.697  37.133 -0.6129 -0.0032 -0.1084
16760TIP3    H171771   1.562   1.642  37.209 -0.3082  1.8678  1.3913
16760TIP3    H271772   1.501   1.701  37.084 -0.7108 -1.5482 -0.1406
16761TIP3   OH271773   2.090   3.241  15.813 -0.5196  0.0481 -0.0272
16761TIP3    H171774   2.006   3.242  15.767 -0.7827 -0.2528  0.4361
16761TIP3    H271775   2.117   3.333  15.818 -0.2460  0.0445 -1.2045
16762TIP3   OH271776   0.994   1.564  32.187  0.3332  0.3059  0.4483
16762TIP3    H171777   0.976   1.648  32.144 -0.7217 -0.8613 -1.5114
16762TIP3    H271778   1.085   1.573  32.218 -0.3920  2.8812  2.1788
16763TIP3   OH271779   0.971   0.595  13.892  0.1649  0.4770  0.2657
16763TIP3    H171780   1.034   0.526  13.915 -1.4413 -0.7435  1.2532
16763TIP3    H271781   0.921   0.558  13.819 -0.2737  0.8698  0.3680
16764TIP3   OH271782   1.887   1.340  39.127  0.2066 -0.2058 -0.2805
16764TIP3    H171783   1.918   1.400  39.194  0.1335  1.3150 -1.5551
16764TIP3    H271784   1.795   1.324  39.150 -0.4419  1.9768 -1.1147
16765TIP3   OH271785   1.828   0.216   0.516 -0.4174 -0.1532  0.2326
16765TIP3    H171786   1.782   0.152   0.571 -0.8809 -0.6063 -0.6577
16765TIP3    H271787   1.785   0.300   0.536 -1.6360 -0.5564 -0.5386
16766TIP3   OH271788   2.273   0.384  26.402  0.2871  0.4011 -0.1508
16766TIP3    H171789   2.267   0.428  26.487  2.0705 -1.5134  1.0446
16766TIP3    H271790   2.352   0.420  26.362  0.3780  0.0940 -0.2514
16767TIP3   OH271791   0.517   4.076  41.156  0.1055 -0.4372 -0.5518
16767TIP3    H171792   0.475   4.080  41.242 -1.3801 -2.4205 -1.1111
16767TIP3    H271793   0.599   4.030  41.172  0.4009  0.2620 -0.0146
16768TIP3   OH271794   3.490   1.440  10.244  0.3058 -0.2677 -0.2421
16768TIP3    H171795   3.533   1.479  10.320  0.8704  0.6234 -0.9970
16768TIP3    H271796   3.539   1.472  10.169 -0.7490 -0.4556 -1.0460
16769TIP3   OH271797   1.701   2.546   5.750  0.2783  0.1075 -0.7424
16769TIP3    H171798   1.676   2.637   5.737  0.0697  0.3441  1.0681
16769TIP3    H271799   1.630   2.496   5.710 -0.2846  0.7459 -0.5648
16770TIP3   OH271800   0.244   3.519  46.705 -0.5998  0.1019  0.1592
16770TIP3    H171801   0.324   3.557  46.669 -1.5548 -0.7072 -3.1519
16770TIP3    H271802   0.225   3.573  46.783  1.8500  1.7943 -0.2866
16771TIP3   OH271803   0.976   3.196   3.551  0.0639  0.2420  0.0632
16771TIP3    H171804   1.029   3.122   3.581 -1.1491 -0.4980  0.4519
16771TIP3    H271805   0.900   3.156   3.509 -0.2938  1.2780 -0.3122
16772TIP3   OH271806   1.425   2.452  15.380 -0.5003  0.9377  0.2998
16772TIP3    H171807   1.473   2.411  15.307 -0.3363  1.2659  0.2176
16772TIP3    H271808   1.400   2.380  15.437  0.1771  0.7655  0.3879
16773TIP3   OH271809   1.750   3.069  41.694  0.8972  0.1952  0.5374
16773TIP3    H171810   1.822   3.006  41.691 -0.1906 -1.0972 -3.4375
16773TIP3    H271811   1.773   3.135  41.629 -1.1157  0.1790 -0.2495
16774TIP3   OH271812   1.593   1.891  14.680 -0.0778  0.0539  0.3682
16774TIP3    H171813   1.649   1.817  14.657  0.6694  1.2398 -1.9784
16774TIP3    H271814   1.654   1.962  14.701 -0.6545  0.9206 -0.7211
16775TIP3   OH271815   2.576   2.143  15.900  0.2040 -0.6262  0.4515
16775TIP3    H171816   2.598   2.107  15.986  0.8610 -0.7863  0.2187
16775TIP3    H271817   2.603   2.076  15.838  0.3771 -0.2135  0.0784
16776TIP3   OH271818   1.923   1.595   8.310  0.2058  0.1895  0.0336
16776TIP3    H171819   1.954   1.509   8.336  0.8162  0.4276  0.1003
16776TIP3    H271820   1.902   1.586   8.217 -1.6668 -0.5711  0.4924
16777TIP3   OH271821   2.298   2.413  42.237  0.1105  0.4556  0.3872
16777TIP3    H171822   2.262   2.400  42.325  0.6857  2.5950  1.0225
16777TIP3    H271823   2.281   2.506  42.218  0.7253  0.2449 -1.4287
16778TIP3   OH271824   3.134   1.903  32.538 -0.2011 -0.3229  0.1508
16778TIP3    H171825   3.153   1.847  32.463 -1.2503  0.9457 -1.1189
16778TIP3    H271826   3.048   1.941  32.519 -0.6902 -0.2761  2.2036
16779TIP3   OH271827   2.209   0.789  15.751 -0.1394 -0.0495 -0.3013
16779TIP3    H171828   2.154   0.732  15.804  0.3655 -0.9347 -0.7116
16779TIP3    H271829   2.259   0.730  15.695  0.0698  0.8101 -1.0619
16780TIP3   OH271830   1.413   2.458  45.640 -0.1609 -0.4844 -0.1084
16780TIP3    H171831   1.382   2.412  45.562 -0.1727 -0.2963 -0.2117
16780TIP3    H271832   1.335   2.501  45.675 -0.2234 -0.8457  0.1974
16781TIP3   OH271833   3.375   2.934   3.112 -0.3243 -0.2992 -0.1185
16781TIP3    H171834   3.365   2.953   3.206  0.8266 -0.2597  0.0167
16781TIP3    H271835   3.340   3.012   3.068 -1.3139 -0.5219  0.2557
16782TIP3   OH271836   0.432   1.473  38.504  0.3190  0.1373 -0.1963
16782TIP3    H171837   0.417   1.466  38.410  0.2014 -0.9969 -0.1059
16782TIP3    H271838   0.522   1.504  38.512  0.5717 -0.4734 -0.6756
16783TIP3   OH271839   0.391   2.605   7.449 -0.0645 -0.1684 -0.3731
16783TIP3    H171840   0.372   2.629   7.359  0.4286 -1.0976 -0.7417
16783TIP3    H271841   0.482   2.574   7.447  0.2375  0.5769  0.6020
16784TIP3   OH271842   1.240   2.907  45.997 -0.4231  0.5114  0.0174
16784TIP3    H171843   1.294   2.834  46.026 -0.4759  0.2944 -0.4279
16784TIP3    H271844   1.210   2.882  45.910 -0.8296  0.8541  0.0559
16785TIP3   OH271845   1.603   1.835  47.475  0.3547  0.8990 -0.2741
16785TIP3    H171846   1.516   1.796  47.491  0.0451  1.1018 -1.3841
16785TIP3    H271847   1.633   1.862  47.562  0.5823 -1.7597  0.5680
16786TIP3   OH271848   2.444   1.745   7.892  0.1964 -0.2645  0.1920
16786TIP3    H171849   2.352   1.728   7.873  0.2512 -0.7377  0.3521
16786TIP3    H271850   2.466   1.821   7.838 -0.4166  0.1491  0.5142
16787TIP3   OH271851   2.114   1.715  38.477 -0.1620 -0.7518 -0.0882
16787TIP3    H171852   2.198   1.718  38.522 -0.0221 -2.5374 -0.1637
16787TIP3    H271853   2.080   1.805  38.484  2.1787  0.2710 -0.9528
16788TIP3   OH271854   0.093   3.834  31.594 -0.2591 -0.3226  0.2907
16788TIP3    H171855   0.071   3.760  31.651  0.7763  0.2488  1.4879
16788TIP3    H271856   0.052   3.910  31.636 -0.3240 -0.0384 -0.2777
16789TIP3   OH271857   3.707   3.535  11.522  0.2343  0.3348  0.2198
16789TIP3    H171858   3.635   3.545  11.460 -0.9438 -1.8169  1.1014
16789TIP3    H271859   3.667   3.554  11.607  1.4199  1.7202  0.4828
16790TIP3   OH271860   3.729   0.668  34.077 -0.5509 -0.0671 -0.3905
16790TIP3    H171861   3.664   0.597  34.073 -1.0535  0.3143  0.7372
16790TIP3    H271862   3.811   0.624  34.100 -1.1255 -0.1669  1.6821
16791TIP3   OH271863   2.248   0.383  32.507  0.1345 -0.1862 -0.1421
16791TIP3    H171864   2.159   0.408  32.481  0.7567 -0.2448 -2.5723
16791TIP3    H271865   2.238   0.347  32.596 -2.2789 -0.2907 -0.3842
16792TIP3   OH271866   3.087   0.281  15.664 -0.4073 -0.0300 -0.9195
16792TIP3    H171867   3.083   0.366  15.708 -0.7433  0.1550 -1.3056
16792TIP3    H271868   2.999   0.244  15.672 -0.1187 -0.5931 -0.2664
16793TIP3   OH271869   1.162   1.908  37.874 -0.5982 -0.2766  0.2653
16793TIP3    H171870   1.091   1.964  37.906 -1.3080 -0.8683 -0.2323
16793TIP3    H271871   1.119   1.825  37.852 -0.2570  0.1784 -2.4892
16794TIP3   OH271872   3.132   1.258  14.094  0.3516  0.1201  0.1567
16794TIP3    H171873   3.084   1.175  14.097 -1.0736  0.9497  0.8711
16794TIP3    H271874   3.214   1.239  14.140  0.9587 -1.4256 -1.4335
16795TIP3   OH271875   3.351   2.120   5.417  0.7262  0.0477 -0.3898
16795TIP3    H171876   3.297   2.137   5.341  1.0610  1.3873 -0.3583
16795TIP3    H271877   3.428   2.176   5.405  1.4762 -0.8302  0.2026
16796TIP3   OH271878   3.324   1.924  11.680 -0.2736  0.3746 -0.3249
16796TIP3    H171879   3.251   1.913  11.620  0.0319  0.1402 -0.6586
16796TIP3    H271880   3.338   1.837  11.717 -0.3189  0.4710 -0.0820
16797TIP3   OH271881   3.573   0.477  38.035 -0.2551  0.0467 -0.6458
16797TIP3    H171882   3.500   0.516  37.987  0.1222  0.3788 -0.9519
16797TIP3    H271883   3.539   0.393  38.065 -1.4585  1.0484  0.9908
16798TIP3   OH271884   0.240   0.441  32.158  0.5917 -0.1740 -0.5246
16798TIP3    H171885   0.268   0.391  32.235  0.5881  0.8802  0.1749
16798TIP3    H271886   0.163   0.490  32.188 -0.2909 -0.8293 -1.6103
16799TIP3   OH271887   1.473   4.000  45.736  0.3076  0.1768  0.3366
16799TIP3    H171888   1.473   4.026  45.644  3.5911  2.3816  0.7868
16799TIP3    H271889   1.473   4.083  45.784  3.5129 -0.6987  2.1273
16800TIP3   OH271890   2.193   0.371  44.723  0.1710 -0.2501  0.3770
16800TIP3    H171891   2.225   0.412  44.643 -1.8587  0.6180 -0.0466
16800TIP3    H271892   2.160   0.443  44.776  0.1849 -0.9593  1.3888
16801TIP3   OH271893   3.045   3.533   7.600  0.0486 -0.1495  0.5183
16801TIP3    H171894   3.028   3.501   7.511  0.6272  1.2341 -0.1195
16801TIP3    H271895   2.966   3.584   7.622  0.1898  0.0669  0.5248
16802TIP3   OH271896   1.127   0.183  36.792 -0.1970  0.0875  0.4684
16802TIP3    H171897   1.091   0.163  36.706 -0.8323 -0.9831  0.9533
16802TIP3    H271898   1.221   0.198  36.776 -0.5631  1.4016 -0.5926
16803TIP3   OH271899   1.644   2.629  15.435 -0.0456 -0.5855 -0.7350
16803TIP3    H171900   1.555   2.593  15.430 -0.7173  0.8977 -0.1713
16803TIP3    H271901   1.662   2.661  15.347 -1.9115  3.1058  0.0405
16804TIP3   OH271902   1.192   1.016  47.518  0.1257  0.2292  0.2601
16804TIP3    H171903   1.214   1.092  47.464 -1.2100  0.8806  0.5896
16804TIP3    H271904   1.158   0.952  47.456 -0.5602  0.6405  0.1948
16805TIP3   OH271905   2.579   1.047  40.360 -0.0668 -0.1715  0.2684
16805TIP3    H171906   2.618   1.119  40.311 -1.1093 -0.3157 -0.8116
16805TIP3    H271907   2.499   1.083  40.398 -0.2557 -0.5664  0.2590
16806TIP3   OH271908   1.766   4.080   2.990 -0.0836 -1.4019 -0.1164
16806TIP3    H171909   1.822   4.038   2.925  0.0919 -0.7378 -0.3995
16806TIP3    H271910   1.714   4.008   3.027 -0.4168 -1.7423 -1.2168
16807TIP3   OH271911   1.611   1.878   1.516 -0.8574 -0.1521  0.1138
16807TIP3    H171912   1.611   1.844   1.427  0.7170 -1.3388  0.5268
16807TIP3    H271913   1.681   1.944   1.516 -0.5365 -0.4895  0.5815
16808TIP3   OH271914   0.246   3.472   4.380  0.1711  0.1983 -0.0928
16808TIP3    H171915   0.325   3.425   4.354  0.4563  0.5710  0.0961
16808TIP3    H271916   0.277   3.556   4.412 -0.2909  0.2862  0.1373
16809TIP3   OH271917   1.704   0.409  41.667 -0.2847 -0.2118  0.2889
16809TIP3    H171918   1.787   0.402  41.619  0.1513  0.1948  0.9716
16809TIP3    H271919   1.726   0.459  41.745 -1.0091 -0.7587  0.8549
16810TIP3   OH271920   1.093   0.683  14.440  0.0239 -0.5420 -0.3863
16810TIP3    H171921   1.019   0.671  14.501 -1.4174  1.3452 -1.6331
16810TIP3    H271922   1.139   0.600  14.442 -0.7165 -1.0005  2.2847
16811TIP3   OH271923   3.016   0.327   6.720 -0.2531 -0.4233 -0.4792
16811TIP3    H171924   2.989   0.418   6.730 -1.0449 -0.8458  1.6293
16811TIP3    H271925   2.951   0.277   6.770  0.8579 -2.0331 -0.5902
16812TIP3   OH271926   0.931   2.892  38.083 -0.7683 -0.9711  0.1293
16812TIP3    H171927   0.979   2.969  38.117  0.6439 -1.7069 -0.1159
16812TIP3    H271928   0.852   2.929  38.044 -0.0091  0.4046 -0.2030
16813TIP3   OH271929   0.441   2.170  35.184  0.2671  0.0999 -0.4718
16813TIP3    H171930   0.534   2.165  35.205  0.1429  2.2418  0.9026
16813TIP3    H271931   0.437   2.230  35.109 -0.1441  3.0409  1.7201
16814TIP3   OH271932   1.535   4.066  25.982  0.0829  0.2353 -0.7043
16814TIP3    H171933   1.565   4.003  25.917  1.1596 -0.2243  0.2051
16814TIP3    H271934   1.564   4.151  25.949 -1.5266  0.3339 -2.0239
16815TIP3   OH271935   1.250   0.721  36.016  0.1770 -0.2264  0.0978
16815TIP3    H171936   1.274   0.629  36.006  2.6974  0.4853 -1.2138
16815TIP3    H271937   1.204   0.742  35.934  0.6137 -0.0337 -0.0960
16816TIP3   OH271938   2.330   3.416  46.384  0.5038  0.0528 -0.1269
16816TIP3    H171939   2.261   3.428  46.319 -0.1934  0.2664  0.6445
16816TIP3    H271940   2.363   3.327  46.368 -0.7794 -0.5098  0.2892
16817TIP3   OH271941   0.108   2.554  43.462 -0.0190 -0.7039  0.9155
16817TIP3    H171942   0.187   2.598  43.432  0.3107 -0.7193  1.7555
16817TIP3    H271943   0.139   2.475  43.504 -0.6568 -2.5679 -1.8267
16818TIP3   OH271944   1.349   1.359  13.871  0.1600  0.2797  0.1686
16818TIP3    H171945   1.395   1.319  13.796  0.3684 -1.6402  1.2455
16818TIP3    H271946   1.305   1.285  13.913 -1.9915  1.6974  0.5604
16819TIP3   OH271947   2.857   2.439   6.746  0.1690 -0.4245 -0.2722
16819TIP3    H171948   2.802   2.481   6.812  1.8608 -1.0686  1.6530
16819TIP3    H271949   2.829   2.348   6.745  0.7827 -0.6239  0.2772
16820TIP3   OH271950   2.366   0.048  13.588  0.1892 -0.0811 -0.0013
16820TIP3    H171951   2.428  -0.024  13.579  0.9243  0.3183  1.5083
16820TIP3    H271952   2.420   0.127  13.581 -0.7034  0.4148 -2.4640
16821TIP3   OH271953   3.813   1.182  40.691 -0.0774 -0.3487  0.0010
16821TIP3    H171954   3.808   1.265  40.643  0.9223  0.9914  2.0839
16821TIP3    H271955   3.741   1.186  40.754 -1.1732 -1.9449 -1.0603
16822TIP3   OH271956   1.028   0.597  12.511 -0.4036  0.0942  0.4734
16822TIP3    H171957   1.045   0.641  12.427 -1.3559  0.0889  0.2736
16822TIP3    H271958   1.116   0.577  12.545  0.0010  0.4291 -0.3419
16823TIP3   OH271959   3.658   1.611   3.618 -0.6224 -0.2172  0.5715
16823TIP3    H171960   3.722   1.543   3.599  0.2011  0.4552  0.8324
16823TIP3    H271961   3.580   1.585   3.570 -0.6626 -1.8580  1.4655
16824TIP3   OH271962   1.668   2.090   7.678 -0.0706 -0.5653  0.4677
16824TIP3    H171963   1.755   2.102   7.640 -0.5293  0.9266 -0.1883
16824TIP3    H271964   1.674   2.132   7.764  0.1529 -1.4366  0.8897
16825TIP3   OH271965   1.906   0.477  44.730 -0.4651  0.2584 -0.5368
16825TIP3    H171966   1.891   0.566  44.761  0.0070  0.1422  0.0461
16825TIP3    H271967   1.966   0.487  44.656  1.3441  0.2866  0.8757
16826TIP3   OH271968   1.374   1.571  39.710  0.7285  0.0439  0.7434
16826TIP3    H171969   1.438   1.628  39.752  1.1584  1.2732 -1.4262
16826TIP3    H271970   1.336   1.625  39.640 -0.6983 -1.5368  0.2255
16827TIP3   OH271971   1.646   1.749  22.121  0.0490  0.0761  0.0489
16827TIP3    H171972   1.652   1.832  22.167 -0.8048 -0.1038  0.5014
16827TIP3    H271973   1.711   1.756  22.050  2.0772  0.0171  1.7825
16828TIP3   OH271974   0.800   1.930  11.702 -0.0938  0.0412  0.3761
16828TIP3    H171975   0.739   1.949  11.630 -0.1237  0.5617  0.5323
16828TIP3    H271976   0.778   1.841  11.730  0.5867 -0.5534 -0.9077
16829TIP3   OH271977   2.730   0.070  14.463  0.0261  0.0619 -0.0865
16829TIP3    H171978   2.635   0.079  14.462  0.1196  1.8380  1.8713
16829TIP3    H271979   2.746  -0.004  14.521 -0.1459  0.0094 -0.1049
16830TIP3   OH271980   2.388   3.845   7.383 -0.4789  0.4189  0.3691
16830TIP3    H171981   2.453   3.775   7.372  0.2136  1.3355 -1.9300
16830TIP3    H271982   2.399   3.874   7.474  0.7062 -1.0061  0.7093
16831TIP3   OH271983   0.604   1.599  18.926  0.3869  0.1035 -0.0605
16831TIP3    H171984   0.658   1.528  18.892 -0.1999 -0.1772 -0.4238
16831TIP3    H271985   0.524   1.597  18.872  1.1334  2.2378 -1.3779
16832TIP3   OH271986   1.056   2.879  44.049 -0.1464  0.1969  0.3669
16832TIP3    H171987   1.065   2.936  44.125 -0.6306  1.0559 -0.1883
16832TIP3    H271988   0.963   2.856  44.047 -0.5605  1.7230 -0.9757
16833TIP3   OH271989   0.645   0.906  43.540 -0.0773  0.3348 -0.8001
16833TIP3    H171990   0.580   0.958  43.586 -0.4092 -0.4223 -0.3961
16833TIP3    H271991   0.726   0.921  43.587 -0.3200 -0.0706 -0.2434
16834TIP3   OH271992   1.789   2.774  15.924  0.1866  0.1809 -0.1430
16834TIP3    H171993   1.821   2.847  15.977 -0.7722  0.5111 -0.0093
16834TIP3    H271994   1.785   2.809  15.835 -2.6207  1.1317  0.2596
16835TIP3   OH271995   4.088   1.793  12.845  0.0934 -0.1730  0.4113
16835TIP3    H171996   4.163   1.838  12.882  0.8142 -1.8411  1.0900
16835TIP3    H271997   4.024   1.790  12.917 -0.9525  1.8022 -0.3486
16836TIP3   OH271998   2.852   1.890   0.685 -0.1386 -0.1142 -0.4878
16836TIP3    H171999   2.874   1.907   0.593 -1.2831  0.5002 -0.6697
16836TIP3    H272000   2.801   1.809   0.682 -0.5781  0.1611 -0.4522
16837TIP3   OH272001   0.186   2.302  15.362  0.4032  0.1123 -0.2804
16837TIP3    H172002   0.246   2.228  15.349  0.6344 -0.2919  2.5917
16837TIP3    H272003   0.103   2.262  15.388 -1.4178  0.6528 -4.3854
16838TIP3   OH272004   0.425   1.075  32.233 -0.0027  0.6698 -0.3897
16838TIP3    H172005   0.493   1.046  32.294 -0.7546  0.1427  0.2029
16838TIP3    H272006   0.399   1.161  32.265  1.2262  1.4193 -1.3283
16839TIP3   OH272007   1.050   3.004  36.387  0.1634 -0.6559 -0.2530
16839TIP3    H172008   0.996   2.930  36.358 -1.0388  0.4863 -1.0102
16839TIP3    H272009   1.105   3.025  36.312  0.9516 -1.1326  0.1682
16840TIP3   OH272010   3.354   3.873  44.567  0.1467 -0.6513  0.8075
16840TIP3    H172011   3.389   3.930  44.636 -2.1813  1.6794  0.2485
16840TIP3    H272012   3.271   3.842  44.602  1.5926 -4.4464  1.3375
16841TIP3   OH272013   2.671   3.425  14.062  0.4219  0.5980  0.3162
16841TIP3    H172014   2.631   3.417  14.149 -0.1309  0.3622  0.0465
16841TIP3    H272015   2.671   3.335  14.028  0.9549  0.6361  0.2080
16842TIP3   OH272016   1.581   2.244  42.533 -0.1515 -0.3586  0.0415
16842TIP3    H172017   1.677   2.239  42.530 -0.1779 -1.2780  0.5249
16842TIP3    H272018   1.551   2.160  42.500 -0.8828  0.9438 -2.9151
16843TIP3   OH272019   2.821   0.736  14.460  0.0665  0.3375  0.0915
16843TIP3    H172020   2.898   0.687  14.489 -0.2391  0.5806  1.4021
16843TIP3    H272021   2.847   0.828  14.468 -0.6076  0.4446  1.3897
16844TIP3   OH272022   0.741   2.116  10.155  0.2786  0.0276 -0.0984
16844TIP3    H172023   0.676   2.046  10.147 -0.6086  0.9988 -2.7063
16844TIP3    H272024   0.825   2.072  10.138  0.0092 -0.7912  0.6339
16845TIP3   OH272025   1.745   1.529  43.910 -0.1326 -0.1273 -0.5932
16845TIP3    H172026   1.669   1.582  43.933 -0.3000 -0.8795  0.6846
16845TIP3    H272027   1.820   1.588  43.921 -0.5293  0.7781 -2.3827
16846TIP3   OH272028   1.862   0.027  40.305  0.0357  0.1616 -0.5168
16846TIP3    H172029   1.933   0.081  40.339 -0.2050  1.3262 -1.7566
16846TIP3    H272030   1.787   0.048  40.360  0.5757 -1.0158  0.7485
16847TIP3   OH272031   2.776   3.001   2.658 -0.1197  0.1973 -0.1066
16847TIP3    H172032   2.771   3.067   2.728 -0.3355  0.4726 -0.3770
16847TIP3    H272033   2.852   2.948   2.681 -1.2421 -0.8844  1.3544
16848TIP3   OH272034   2.162   0.316   8.361  0.0791  0.5347 -0.2588
16848TIP3    H172035   2.137   0.345   8.449  1.0823  0.4653  0.0569
16848TIP3    H272036   2.104   0.366   8.303 -2.4681 -1.3369  0.4839
16849TIP3   OH272037   1.423   2.348  42.081 -0.0604  0.2789  0.3943
16849TIP3    H172038   1.381   2.375  42.163 -0.9080 -1.1500  0.4674
16849TIP3    H272039   1.483   2.278  42.108  0.6320  0.6981 -0.0408
16850TIP3   OH272040   3.066   2.384  46.242  0.8898 -0.4792 -0.2751
16850TIP3    H172041   3.107   2.322  46.303  1.3468 -1.1083 -1.2065
16850TIP3    H272042   2.975   2.391  46.273  1.2915 -0.2465  0.8896
16851TIP3   OH272043   3.143   1.114  38.180 -0.0376  0.0382 -0.3336
16851TIP3    H172044   3.134   1.034  38.232  0.0075 -0.5052 -1.1373
16851TIP3    H272045   3.208   1.091  38.113 -1.1717  0.2245 -1.5453
16852TIP3   OH272046   2.665   1.582   7.970  0.2877  0.5270 -0.2050
16852TIP3    H172047   2.743   1.635   7.987  0.0707  0.5820  0.6745
16852TIP3    H272048   2.597   1.645   7.948  0.1893  0.5744  0.2234
16853TIP3   OH272049   3.728   2.623  31.347  0.0432 -0.4302 -0.1095
16853TIP3    H172050   3.771   2.584  31.423 -0.1440  0.3738  0.4219
16853TIP3    H272051   3.779   2.592  31.272  0.9126 -0.3289  0.4324
16854TIP3   OH272052   2.069   3.811   4.410  0.7474  0.1881 -0.2580
16854TIP3    H172053   2.047   3.880   4.347 -2.6040 -0.7975 -0.3796
16854TIP3    H272054   2.046   3.730   4.365  0.1294 -0.6673  1.4943
16855TIP3   OH272055   0.003   2.251  14.667 -0.2566  0.3197 -0.4977
16855TIP3    H172056  -0.046   2.213  14.739 -0.2079  0.2729 -0.4884
16855TIP3    H272057   0.091   2.266  14.703 -1.2883  4.3192  0.8465
16856TIP3   OH272058   0.872   2.776  34.795  0.0639 -0.5589 -0.1335
16856TIP3    H172059   0.934   2.845  34.775 -1.3667  1.0647  0.7703
16856TIP3    H272060   0.802   2.787  34.732  0.6134 -2.3453 -1.1145
16857TIP3   OH272061   2.313   1.242   6.087  0.0650 -0.3585 -0.6590
16857TIP3    H172062   2.267   1.309   6.036  0.6723 -1.1542 -2.3042
16857TIP3    H272063   2.387   1.289   6.125  0.9648 -0.2194 -2.4787
16858TIP3   OH272064   0.295   1.428   2.831 -0.3338 -0.3754 -0.4899
16858TIP3    H172065   0.376   1.477   2.839  0.1438 -1.0047 -1.2536
16858TIP3    H272066   0.227   1.488   2.859  0.3351  0.3796 -0.4645
16859TIP3   OH272067   0.418   4.086  43.462  0.3711  0.7130 -0.4062
16859TIP3    H172068   0.467   4.154  43.508  0.9843 -0.6586  1.0564
16859TIP3    H272069   0.379   4.034  43.532  0.7952 -1.0735 -1.4606
16860TIP3   OH272070   0.610   1.284   2.191  0.5122  0.6310  0.1504
16860TIP3    H172071   0.615   1.364   2.242  0.0872  1.8061 -1.5723
16860TIP3    H272072   0.527   1.291   2.143  1.5741  0.3298 -1.8477
16861TIP3   OH272073   2.925   3.886  12.894  0.2976 -0.0280  0.1070
16861TIP3    H172074   2.860   3.938  12.940 -0.6938 -0.0843 -1.1894
16861TIP3    H272075   2.903   3.796  12.915  1.4502  0.0061  1.6016
16862TIP3   OH272076   4.054   3.797   4.867  0.1099  0.3823  0.0196
16862TIP3    H172077   3.980   3.757   4.913  0.9883 -0.9186  0.3481
16862TIP3    H272078   4.124   3.800   4.932  0.1491  2.3562 -0.0364
16863TIP3   OH272079   3.145   2.010  36.462 -0.1443 -0.0032  0.1832
16863TIP3    H172080   3.190   2.003  36.546 -0.1535 -2.2010  0.0742
16863TIP3    H272081   3.111   2.099  36.460  1.0235  0.5320  1.8972
16864TIP3   OH272082   0.789   2.841  43.706 -0.6292 -0.1003 -0.4368
16864TIP3    H172083   0.738   2.804  43.778 -1.1459 -1.0213 -1.2643
16864TIP3    H272084   0.865   2.881  43.749 -1.5192  0.4116  0.7208
16865TIP3   OH272085   0.044   2.756   9.933 -0.3417  0.7447  0.3003
16865TIP3    H172086   0.071   2.819  10.000  1.0393  0.7270 -0.2146
16865TIP3    H272087   0.031   2.674   9.981  1.1527  0.6048  0.4908
16866TIP3   OH272088   0.604   1.082  44.676  0.4897  0.0598  0.5115
16866TIP3    H172089   0.571   1.091  44.586 -0.4993  0.1622  0.8721
16866TIP3    H272090   0.672   1.149  44.683  1.3941 -0.7126 -0.5203
16867TIP3   OH272091   3.386   3.247  33.926  0.3882  0.8619  0.0437
16867TIP3    H172092   3.369   3.194  33.848  0.9486  1.1274 -0.2749
16867TIP3    H272093   3.354   3.194  33.999 -0.1501  0.6115 -0.3675
16868TIP3   OH272094   2.961   1.900  38.803 -0.0564 -0.0465  0.1874
16868TIP3    H172095   2.973   1.860  38.889 -1.3313 -1.3793 -0.2070
16868TIP3    H272096   3.040   1.877  38.754  0.8216  0.9848  1.0519
16869TIP3   OH272097   1.143   2.376  39.428  0.4825 -0.1489  0.0736
16869TIP3    H172098   1.166   2.293  39.470 -0.5268  0.2783  1.5445
16869TIP3    H272099   1.049   2.369  39.411  0.6695  0.1342 -1.1170
16870TIP3   OH272100   1.808   3.591  11.777 -0.2788  0.8480 -0.0689
16870TIP3    H172101   1.901   3.610  11.790  0.9917 -2.8980 -2.0344
16870TIP3    H272102   1.794   3.603  11.683 -2.0327  1.9664  0.2856
16871TIP3   OH272103   1.822   3.998  43.994 -0.3637  0.5985  0.1834
16871TIP3    H172104   1.814   4.049  43.913 -0.0154  1.8594  0.9258
16871TIP3    H272105   1.862   3.915  43.966  1.0805  1.5569 -0.7281
16872TIP3   OH272106   2.712   2.434   9.563  0.0363  0.3897 -0.0489
16872TIP3    H172107   2.670   2.520   9.575 -0.2040  0.2832 -0.1314
16872TIP3    H272108   2.803   2.455   9.543 -0.1873  0.6458 -0.8084
16873TIP3   OH272109   3.638   2.073  33.826  0.1451 -0.3673 -0.1424
16873TIP3    H172110   3.688   2.120  33.759  0.0885  0.2286  0.2375
16873TIP3    H272111   3.571   2.135  33.855  0.7243 -0.3078  1.1054
16874TIP3   OH272112   3.095   0.248   4.529  0.4653  0.4483 -0.1122
16874TIP3    H172113   3.080   0.220   4.619  0.0494 -0.3884 -0.4318
16874TIP3    H272114   3.176   0.206   4.503 -1.0505 -2.0321 -1.1802
16875TIP3   OH272115   3.875   2.676  16.676 -0.3008  0.1949  0.3464
16875TIP3    H172116   3.893   2.627  16.756 -0.6094  1.1256  0.9974
16875TIP3    H272117   3.780   2.689  16.677 -0.4683 -0.7409 -0.7489
16876TIP3   OH272118   0.083   0.971  16.433  0.2510 -0.3692 -0.0339
16876TIP3    H172119   0.175   0.946  16.445  0.2547 -0.3836 -0.0918
16876TIP3    H272120   0.070   0.970  16.338  0.5526  0.9392 -0.1039
16877TIP3   OH272121   0.948   2.307   6.705  0.6796 -0.4890  0.4281
16877TIP3    H172122   1.040   2.295   6.680  0.2885 -1.7757 -0.4196
16877TIP3    H272123   0.947   2.393   6.749  1.9193  0.4904 -1.3253
16878TIP3   OH272124   0.572   2.982  43.218 -0.6013 -0.4005  0.1210
16878TIP3    H172125   0.504   2.986  43.286 -1.8109 -0.7566 -1.0239
16878TIP3    H272126   0.582   2.889  43.200 -0.2358 -0.3099 -0.1427
16879TIP3   OH272127   2.856   4.087  41.171  0.6240  0.4073 -0.6642
16879TIP3    H172128   2.926   4.034  41.134  0.2894 -0.1372 -0.5387
16879TIP3    H272129   2.778   4.059  41.123  0.6356  1.6465 -1.4227
16880TIP3   OH272130   1.071   3.279  43.674 -0.3423  0.5459  0.1341
16880TIP3    H172131   1.159   3.312  43.656 -0.2112  0.6563  0.9689
16880TIP3    H272132   1.013   3.343  43.633 -0.0337  0.0931 -1.0528
16881TIP3   OH272133   3.014   1.379   5.332 -0.1585 -0.2793 -0.2460
16881TIP3    H172134   3.090   1.436   5.348  0.5459 -1.2959  0.1659
16881TIP3    H272135   2.947   1.409   5.393  0.6750 -0.7320  0.9306
16882TIP3   OH272136   2.139   1.926  21.916  0.6874 -0.4000 -0.7782
16882TIP3    H172137   2.201   1.937  21.843  1.1347 -1.7200 -0.6313
16882TIP3    H272138   2.182   1.863  21.974 -0.2264 -0.3294 -0.0098
16883TIP3   OH272139   2.037   1.695  33.925 -0.2403  0.0233 -0.0322
16883TIP3    H172140   1.999   1.615  33.961  0.6570 -0.4879 -0.1911
16883TIP3    H272141   2.119   1.667  33.885  0.4637  1.1372  0.5660
16884TIP3   OH272142   1.716   0.227   1.673  0.2289  0.8243  0.3523
16884TIP3    H172143   1.688   0.151   1.723 -2.3996  1.6006  0.2280
16884TIP3    H272144   1.787   0.265   1.724  1.0793 -1.2288  0.7947
16885TIP3   OH272145   1.072   2.385   9.302 -0.1775  0.0947 -0.1276
16885TIP3    H172146   1.091   2.308   9.355 -1.3621  0.5089  0.9578
16885TIP3    H272147   1.076   2.354   9.212 -0.0609 -1.0960  0.2760
16886TIP3   OH272148   1.023   1.735  15.351  0.3774  0.0174 -0.2277
16886TIP3    H172149   1.060   1.804  15.405  1.2101 -0.0427 -0.6918
16886TIP3    H272150   1.100   1.687  15.318 -0.1819 -1.6884  0.7986
16887TIP3   OH272151   3.399   3.165   6.228  0.0680  0.7187  0.1649
16887TIP3    H172152   3.484   3.153   6.270 -0.0143 -1.8992 -0.2535
16887TIP3    H272153   3.418   3.218   6.151  1.1673  0.8600  0.5089
16888TIP3   OH272154   3.906   1.203  39.918 -0.4019  0.5545 -0.1934
16888TIP3    H172155   3.930   1.139  39.850  0.2695  1.4155 -0.8021
16888TIP3    H272156   3.990   1.233  39.953 -0.7069  0.9976  0.1713
16889TIP3   OH272157   0.967   0.617  44.432 -0.2406  0.3904 -0.0631
16889TIP3    H172158   0.921   0.554  44.377  1.3737 -1.8046  0.9587
16889TIP3    H272159   0.951   0.702  44.390 -0.9111 -0.9110 -2.6136
16890TIP3   OH272160   0.715   2.381  43.337 -0.0281  0.1787  0.2131
16890TIP3    H172161   0.791   2.329  43.311 -0.3540  0.1903 -0.7974
16890TIP3    H272162   0.752   2.456  43.384  0.6310  0.5022 -0.7951
16891TIP3   OH272163   4.053   2.048   7.010 -0.5098 -0.0253 -0.0975
16891TIP3    H172164   4.093   2.106   7.075 -1.0081 -1.3301  1.4575
16891TIP3    H272165   3.991   1.995   7.061  1.4853 -3.4750 -0.9577
16892TIP3   OH272166   3.277   1.788  21.441 -0.4392 -0.2402 -0.4921
16892TIP3    H172167   3.189   1.752  21.446  0.1006 -1.4752  1.0984
16892TIP3    H272168   3.271   1.874  21.482 -0.9964 -0.1201 -0.8229
16893TIP3   OH272169   0.278   0.044  29.050 -0.1362  0.0333 -0.0520
16893TIP3    H172170   0.209   0.020  29.112  0.5857  1.2685  1.2917
16893TIP3    H272171   0.305  -0.038  29.010 -0.6983 -0.7906  1.2047
16894TIP3   OH272172   2.452   1.563   0.623 -0.6765  0.1109 -0.1107
16894TIP3    H172173   2.454   1.468   0.612 -0.2494  0.1675 -0.5268
16894TIP3    H272174   2.380   1.592   0.568  0.3864  0.2176 -1.4817
16895TIP3   OH272175   3.911   2.056  15.892 -0.1134  0.2560  0.3583
16895TIP3    H172176   3.839   2.118  15.889  1.2422  1.8863 -0.7007
16895TIP3    H272177   3.892   1.999  15.967 -2.2494  0.8752  0.3397
16896TIP3   OH272178   1.955   3.126   5.361  0.8601  0.3828  0.0258
16896TIP3    H172179   1.894   3.151   5.431  0.3034  3.1747 -1.3310
16896TIP3    H272180   2.034   3.099   5.407 -0.4097 -0.6038  1.7625
16897TIP3   OH272181   1.765   0.275   8.963 -0.2908  0.4504  0.4520
16897TIP3    H172182   1.774   0.326   8.883  2.1208  2.0574  1.6062
16897TIP3    H272183   1.704   0.205   8.941 -2.7811  3.0557 -1.6131
16898TIP3   OH272184   2.326   1.996   4.250 -0.0684 -0.4367  0.6950
16898TIP3    H172185   2.294   1.968   4.164  0.7071 -0.5197  0.4238
16898TIP3    H272186   2.389   2.066   4.230 -1.5444  1.1430  1.3234
16899TIP3   OH272187   3.742   1.752  38.830 -0.1469 -0.0675 -0.0419
16899TIP3    H172188   3.773   1.807  38.758  0.0542 -0.8102 -0.5355
16899TIP3    H272189   3.757   1.662  38.800 -0.5944 -0.3982  0.6930
16900TIP3   OH272190   3.818   3.649  44.390 -0.5452  0.1750 -0.0938
16900TIP3    H172191   3.753   3.715  44.414  0.6280  1.1701  0.4538
16900TIP3    H272192   3.809   3.580  44.456 -0.6012  0.6278  0.3790
16901TIP3   OH272193   3.585   2.648   4.077 -0.0497  0.1585  0.2980
16901TIP3    H172194   3.599   2.743   4.071  0.7947 -0.0260 -1.4694
16901TIP3    H272195   3.636   2.621   4.153  0.1034  1.0554  0.5277
16902TIP3   OH272196   2.739   0.375   6.117  0.6767 -0.1148 -0.2700
16902TIP3    H172197   2.693   0.292   6.125  0.3141  0.1170  0.1154
16902TIP3    H272198   2.671   0.442   6.133  1.0674  0.2381 -0.0599
16903TIP3   OH272199   0.891   1.104   6.609 -0.3463  0.0408  0.2422
16903TIP3    H172200   0.927   1.114   6.521  1.8554 -1.8894  0.8373
16903TIP3    H272201   0.930   1.024   6.642 -2.0341  0.0769  2.5849
16904TIP3   OH272202   2.570   2.857   9.216 -0.4636 -0.4682 -0.1151
16904TIP3    H172203   2.556   2.888   9.127  0.1125 -1.0496 -0.4151
16904TIP3    H272204   2.664   2.841   9.222 -0.6205 -1.3053  0.3036
16905TIP3   OH272205   0.211   2.685  39.055 -0.0800 -0.3210  0.3199
16905TIP3    H172206   0.255   2.748  38.999 -1.1494 -0.5432 -0.8074
16905TIP3    H272207   0.191   2.611  38.998 -1.1433 -0.5787  0.9807
16906TIP3   OH272208   2.678   1.661   6.492  0.7776  0.6356  0.1808
16906TIP3    H172209   2.629   1.718   6.552  0.3014  1.8140 -1.2642
16906TIP3    H272210   2.634   1.577   6.498  1.2316  0.4741  2.0523
16907TIP3   OH272211   2.405   3.316  32.571  1.0339  0.3690 -0.1157
16907TIP3    H172212   2.458   3.327  32.492  0.9437 -0.2273 -0.2655
16907TIP3    H272213   2.340   3.386  32.567  1.0944  0.4031 -0.5191
16908TIP3   OH272214   3.485   1.592  37.917 -0.3447 -0.2237 -0.1165
16908TIP3    H172215   3.416   1.537  37.879 -0.7127 -0.2602  0.5918
16908TIP3    H272216   3.495   1.560  38.006 -0.7151  0.9956  0.3861
16909TIP3   OH272217   3.843   3.061  35.224 -0.1330 -0.8332 -0.3098
16909TIP3    H172218   3.827   3.129  35.290 -0.1072 -1.3350  0.2218
16909TIP3    H272219   3.848   2.979  35.274 -1.2607 -1.3790 -1.0438
16910TIP3   OH272220   2.063   4.031  12.212 -0.5669  0.6399  0.2059
16910TIP3    H172221   2.048   4.096  12.143  3.2627  1.3654 -0.1236
16910TIP3    H272222   1.978   3.989  12.223 -2.1604  2.7592 -2.5889
16911TIP3   OH272223   3.414   1.405  41.207 -0.1344 -0.1008 -0.1570
16911TIP3    H172224   3.391   1.313  41.196  0.7545 -0.2164 -1.3175
16911TIP3    H272225   3.476   1.406  41.280  0.9127 -0.6329 -1.0120
16912TIP3   OH272226   3.408   1.221  44.869 -0.3982 -0.6013 -0.2465
16912TIP3    H172227   3.413   1.174  44.952  2.1612  0.9739  0.6165
16912TIP3    H272228   3.494   1.262  44.860 -1.3619  1.1014 -2.5982
16913TIP3   OH272229   0.518   2.083  41.238 -0.3613  0.0424  0.0927
16913TIP3    H172230   0.493   2.171  41.266 -0.0988  0.1449  0.0079
16913TIP3    H272231   0.438   2.046  41.201 -0.5113  0.1881  0.2702
16914TIP3   OH272232   3.572   3.007  12.449  0.7277  0.5487  0.4350
16914TIP3    H172233   3.633   2.947  12.407 -1.3178 -0.6263 -1.0733
16914TIP3    H272234   3.555   2.967  12.535  0.5933 -0.1893  0.0737
16915TIP3   OH272235   0.533   0.547  39.298 -0.7665  0.1076 -0.0198
16915TIP3    H172236   0.519   0.527  39.390  1.3627  0.5786  0.4628
16915TIP3    H272237   0.501   0.636  39.287 -0.9776  0.0678  0.2742
16916TIP3   OH272238   0.025   4.066   2.215 -0.6048 -0.8769  0.4549
16916TIP3    H172239   0.009   4.126   2.288 -1.0879  0.5377 -0.7439
16916TIP3    H272240   0.106   4.020   2.238 -0.4758 -0.0935  1.6366
16917TIP3   OH272241   3.735   1.806   0.618  0.3181  0.3217 -0.8941
16917TIP3    H172242   3.671   1.765   0.560  0.6700  1.3453 -2.0460
16917TIP3    H272243   3.798   1.736   0.637 -1.4198 -0.9219  0.8312
16918TIP3   OH272244   1.812   0.150  15.093 -0.3460 -0.1774 -0.0689
16918TIP3    H172245   1.787   0.181  15.180 -1.3765  1.1542 -0.7947
16918TIP3    H272246   1.893   0.102  15.107  0.8318  2.0355  1.3188
16919TIP3   OH272247   1.115   3.838  46.537  0.2653 -0.6200 -0.4729
16919TIP3    H172248   1.139   3.817  46.446  0.0625  0.4873 -0.7974
16919TIP3    H272249   1.065   3.919  46.530 -3.7454 -2.8169  0.1380
16920TIP3   OH272250   3.341   2.814  40.894 -0.0457  0.6753  0.4216
16920TIP3    H172251   3.419   2.759  40.910  0.0707  0.9262  0.7337
16920TIP3    H272252   3.376   2.892  40.851 -0.1340  0.7577  0.5016
16921TIP3   OH272253   2.882   3.114  36.614 -0.2018 -0.1566 -0.4112
16921TIP3    H172254   2.898   3.060  36.692  0.2693  0.0806 -0.3379
16921TIP3    H272255   2.928   3.068  36.544  0.7553  0.4894 -0.2170
16922TIP3   OH272256   1.572   3.357  31.018 -0.1288 -0.2735  0.2144
16922TIP3    H172257   1.482   3.323  31.019 -0.1346 -0.2424  0.6809
16922TIP3    H272258   1.562   3.449  30.992  0.0470 -1.0776 -3.1467
16923TIP3   OH272259   0.515   0.366   2.837  0.2580 -0.7495  0.0772
16923TIP3    H172260   0.437   0.412   2.868  1.7011  2.1617 -0.2275
16923TIP3    H272261   0.536   0.304   2.906 -0.5499  0.6821  1.6705
16924TIP3   OH272262   3.542   0.554  12.326 -0.6469  0.5911 -0.4187
16924TIP3    H172263   3.612   0.618  12.316  0.0452  0.0189  0.6035
16924TIP3    H272264   3.586   0.473  12.351 -1.6076  0.0161 -0.5188
16925TIP3   OH272265   4.025   0.479  31.938  0.5681  0.7655  0.2558
16925TIP3    H172266   4.120   0.484  31.929  0.5784 -1.0641 -1.6978
16925TIP3    H272267   4.011   0.417  32.009  0.9467 -0.8219 -0.9786
16926TIP3   OH272268   1.785   1.337   5.711  0.2646  0.1878 -0.8697
16926TIP3    H172269   1.814   1.251   5.679 -0.6493  0.2287 -1.8507
16926TIP3    H272270   1.834   1.400   5.658  2.7101  0.3857  1.3876
16927TIP3   OH272271   0.700   0.710   3.412 -0.0205  0.0511 -0.2918
16927TIP3    H172272   0.612   0.710   3.450 -0.8187  0.1579 -2.0432
16927TIP3    H272273   0.755   0.751   3.479 -1.0163 -1.2396  1.3957
16928TIP3   OH272274   1.727   3.649   1.679 -0.5078 -0.5148  0.0563
16928TIP3    H172275   1.763   3.728   1.719 -0.4671 -0.2997 -0.3894
16928TIP3    H272276   1.710   3.590   1.752  0.6376 -0.5804  0.2802
16929TIP3   OH272277   0.300   1.133  46.781 -0.1834  0.0296 -0.1588
16929TIP3    H172278   0.301   1.177  46.866 -1.7373 -0.4496  0.1335
16929TIP3    H272279   0.334   1.045  46.800  0.3127  0.2017 -0.2212
16930TIP3   OH272280   3.937   3.590  40.413  0.1407  0.0608  0.1912
16930TIP3    H172281   4.031   3.584  40.401 -0.0494  0.4507 -1.7869
16930TIP3    H272282   3.923   3.571  40.506  2.2535  1.0662  0.7714
16931TIP3   OH272283   3.406   3.055  37.478  0.3141  0.1885  0.4339
16931TIP3    H172284   3.406   3.055  37.574 -2.0624  2.1679  0.5147
16931TIP3    H272285   3.317   3.030  37.453  1.2641 -1.7221 -1.3546
16932TIP3   OH272286   2.441   0.479  35.704  0.4193 -0.3216 -0.1292
16932TIP3    H172287   2.451   0.386  35.685 -1.9631 -0.4316 -1.2815
16932TIP3    H272288   2.399   0.515  35.626 -0.8082  1.2501  1.1684
16933TIP3   OH272289   0.191   3.530  26.985 -0.2599 -0.3228  0.1389
16933TIP3    H172290   0.284   3.527  27.008  0.3983 -3.5537 -2.2314
16933TIP3    H272291   0.149   3.475  27.050 -0.7169  1.5721  1.5403
16934TIP3   OH272292   0.770   2.611  43.534 -0.0742 -0.1983  0.2432
16934TIP3    H172293   0.731   2.692  43.567  0.7682 -0.2086  1.3182
16934TIP3    H272294   0.864   2.627  43.534  0.3006 -1.7983  2.4281
16935TIP3   OH272295   0.779   0.426  12.096 -0.1339 -0.2287  0.1087
16935TIP3    H172296   0.703   0.443  12.150 -0.0200  1.7126 -0.2489
16935TIP3    H272297   0.842   0.385  12.155  0.0198  1.8861  1.5345
16936TIP3   OH272298   3.794   0.439  13.119 -0.4082 -0.2728  0.2095
16936TIP3    H172299   3.704   0.410  13.131 -0.3753 -0.2961  0.4091
16936TIP3    H272300   3.827   0.452  13.208 -1.5901  4.0635  0.1943
16937TIP3   OH272301   0.968   0.529  36.566 -0.1547  0.6341 -0.2115
16937TIP3    H172302   0.878   0.516  36.594 -0.1956  0.6775 -0.3237
16937TIP3    H272303   1.020   0.515  36.645 -0.2729  0.8115 -0.1030
16938TIP3   OH272304   3.888   1.218  15.816 -0.1981  0.3590  0.0538
16938TIP3    H172305   3.981   1.236  15.803  0.0880  0.0956  1.5304
16938TIP3    H272306   3.850   1.304  15.836 -0.0060  0.2867  0.7774
16939TIP3   OH272307   2.585   3.108  13.661 -0.1130  0.2215  0.1470
16939TIP3    H172308   2.591   3.202  13.675 -0.0678  0.2980 -0.3636
16939TIP3    H272309   2.556   3.099  13.570  0.1770 -0.2579  0.0964
16940TIP3   OH272310   2.998   3.173  37.055 -0.0264 -0.5586  0.3866
16940TIP3    H172311   2.985   3.085  37.089 -0.9506 -1.8590 -2.9785
16940TIP3    H272312   3.055   3.162  36.979 -0.4858  1.7161 -0.3805
16941TIP3   OH272313   3.111   0.518   0.813 -0.2452 -0.5159 -0.1965
16941TIP3    H172314   3.055   0.447   0.845 -0.0076 -0.0946  1.2005
16941TIP3    H272315   3.171   0.475   0.751 -0.0492 -1.5591  0.6900
16942TIP3   OH272316   0.042   0.431   7.268  0.0159 -0.2230  0.5669
16942TIP3    H172317   0.121   0.387   7.238 -0.6054 -1.3582  0.5540
16942TIP3    H272318  -0.008   0.448   7.188 -2.0399 -4.0138  0.8255
16943TIP3   OH272319   0.385   0.594  46.332  0.0774  0.0019 -0.1095
16943TIP3    H172320   0.463   0.627  46.375 -2.5789  0.5406  5.0796
16943TIP3    H272321   0.378   0.503  46.361 -2.0940  0.5318  1.3358
16944TIP3   OH272322   1.742   3.034  38.360  0.6375 -0.0187 -0.0322
16944TIP3    H172323   1.728   3.091  38.435  1.1651  1.8124 -1.2521
16944TIP3    H272324   1.707   3.084  38.285 -0.0111 -1.8336 -1.0114
16945TIP3   OH272325   3.479   3.814  33.982  0.3287 -0.3356 -0.2990
16945TIP3    H172326   3.426   3.820  33.902 -0.5140 -1.4020  0.1506
16945TIP3    H272327   3.540   3.888  33.976 -0.9694  0.7339 -1.0155
16946TIP3   OH272328   2.620   1.761  10.855 -0.0669 -0.9925  0.2035
16946TIP3    H172329   2.537   1.803  10.875 -0.5841 -1.4326 -0.9464
16946TIP3    H272330   2.596   1.682  10.806  1.0418 -0.8014 -0.6839
16947TIP3   OH272331   0.973   4.050  14.358 -0.4858 -0.4225  0.2385
16947TIP3    H172332   1.049   4.074  14.306  1.0747 -1.4452  1.9089
16947TIP3    H272333   0.956   3.959  14.335  0.7546 -1.1635  2.0078
16948TIP3   OH272334   1.822   2.813  12.114 -0.5142 -0.5998  0.0239
16948TIP3    H172335   1.894   2.852  12.064 -0.1162 -2.1169 -0.6420
16948TIP3    H272336   1.756   2.791  12.048 -2.2207  1.9163  0.7499
16949TIP3   OH272337   0.446   0.730  42.940 -0.3581 -0.0801  0.2371
16949TIP3    H172338   0.529   0.722  42.986  0.2578  0.5865 -0.7376
16949TIP3    H272339   0.398   0.650  42.963  1.0325 -1.0637 -0.1510
16950TIP3   OH272340   0.895   2.482  33.746 -0.4720 -0.3381 -0.1447
16950TIP3    H172341   0.869   2.400  33.788 -0.2901  0.1047  0.8600
16950TIP3    H272342   0.918   2.540  33.819 -0.7965  0.6782 -0.8259
16951TIP3   OH272343   2.916   0.339  38.893  0.0245 -0.0033 -0.0818
16951TIP3    H172344   2.871   0.403  38.836 -1.2380 -0.3314  0.5005
16951TIP3    H272345   2.867   0.343  38.975  1.1724 -0.3066  0.6294
16952TIP3   OH272346   3.500   2.523   9.055  0.1604  0.2131 -0.4663
16952TIP3    H172347   3.534   2.611   9.048  0.2845  0.7073  3.6859
16952TIP3    H272348   3.571   2.472   9.095 -1.2439 -0.6582  1.0673
16953TIP3   OH272349   3.305   3.952  10.288  0.3531 -0.6921 -0.2417
16953TIP3    H172350   3.292   4.045  10.309 -0.8076 -0.6688 -0.9431
16953TIP3    H272351   3.336   3.913  10.369  1.1121  0.3485 -0.0040
16954TIP3   OH272352   0.578   0.593  38.243  0.3121  0.1324 -0.6185
16954TIP3    H172353   0.498   0.619  38.289 -0.5957 -1.2954 -1.3130
16954TIP3    H272354   0.617   0.675  38.214 -0.8554  0.8655 -0.2019
16955TIP3   OH272355   0.432   3.527  44.700  0.4185  0.1574 -0.0510
16955TIP3    H172356   0.482   3.496  44.776 -0.6968  0.5802  0.8847
16955TIP3    H272357   0.438   3.622  44.704 -1.6279  0.2965  0.9421
16956TIP3   OH272358   2.314   0.901  42.735 -0.4283  0.2261 -0.1529
16956TIP3    H172359   2.232   0.940  42.704 -1.0883  0.2174  1.5004
16956TIP3    H272360   2.335   0.835  42.669 -1.2342  0.8783 -1.0937
16957TIP3   OH272361   1.593   2.096  18.957  1.0175 -0.1016 -0.2116
16957TIP3    H172362   1.545   2.145  19.024 -0.5573  0.8935 -1.9827
16957TIP3    H272363   1.680   2.134  18.957  0.4627  1.2204 -0.0524
16958TIP3   OH272364   3.392   3.770   6.998 -0.0420 -0.3200 -0.6246
16958TIP3    H172365   3.306   3.738   7.024 -0.5444  0.2089 -1.5505
16958TIP3    H272366   3.376   3.862   6.975  0.6145 -0.4088 -1.4836
16959TIP3   OH272367   1.463   1.444  39.379 -0.6496 -0.3688  0.4868
16959TIP3    H172368   1.508   1.504  39.439 -0.3773 -1.6437  1.5955
16959TIP3    H272369   1.533   1.404  39.328 -0.6695 -1.0493  0.9870
16960TIP3   OH272370   0.391   0.352  14.521 -0.7918  0.0158  0.2411
16960TIP3    H172371   0.448   0.393  14.457  0.7221 -0.0821  1.4722
16960TIP3    H272372   0.324   0.307  14.469 -1.0797  1.9665 -1.1871
16961TIP3   OH272373   3.365   2.987   4.471 -0.2983 -0.4854  0.6042
16961TIP3    H172374   3.397   2.899   4.490 -0.5600 -0.4120  1.4512
16961TIP3    H272375   3.367   3.032   4.556  0.1236  0.4214  0.1261
16962TIP3   OH272376   2.466   1.954  42.785  0.5034  0.0164 -0.2703
16962TIP3    H172377   2.402   1.992  42.845 -1.1396 -1.1800 -1.1825
16962TIP3    H272378   2.506   1.883  42.835  0.9849  0.6342  0.2360
16963TIP3   OH272379   3.658   3.743  31.140  0.0472 -0.1274  0.0044
16963TIP3    H172380   3.682   3.724  31.049 -0.9971  1.0853 -0.5434
16963TIP3    H272381   3.605   3.667  31.166 -1.0035  0.2458 -0.9487
16964TIP3   OH272382   0.965   0.134  10.456 -0.2371  0.5295  0.2521
16964TIP3    H172383   0.933   0.064  10.514 -2.3967  0.0768 -1.3679
16964TIP3    H272384   0.996   0.088  10.378 -0.2941  1.2938 -0.2269
16965TIP3   OH272385   3.746   1.680  40.357  0.4553 -0.1256  0.4882
16965TIP3    H172386   3.793   1.742  40.413 -1.7286  0.6740  1.5431
16965TIP3    H272387   3.744   1.599  40.408 -3.3081  1.1399  2.7742
16966TIP3   OH272388   0.980   0.257   0.993 -0.1265  0.0416 -0.0446
16966TIP3    H172389   0.954   0.347   1.014 -0.3811 -0.0810  0.1657
16966TIP3    H272390   0.901   0.205   1.008  0.3476 -0.3926  1.0057
16967TIP3   OH272391   3.318   0.224  42.172 -0.1142  0.2065 -0.0830
16967TIP3    H172392   3.277   0.268  42.098  0.5913  0.3152 -0.4206
16967TIP3    H272393   3.286   0.271  42.249  0.7631  1.4675 -0.4453
16968TIP3   OH272394   1.306   3.218  31.031 -0.3788 -0.5607 -0.6214
16968TIP3    H172395   1.288   3.229  31.124  0.5753 -1.4711 -0.3127
16968TIP3    H272396   1.287   3.125  31.013 -0.0774 -0.5143 -1.2201
16969TIP3   OH272397   0.607   0.486  31.662 -0.2422  0.4089  0.5563
16969TIP3    H172398   0.518   0.468  31.692  0.2808 -1.6395  0.9751
16969TIP3    H272399   0.630   0.410  31.609  0.6220  1.7481 -1.0844
16970TIP3   OH272400   0.238   0.898  35.254 -0.3156 -0.2813  0.5835
16970TIP3    H172401   0.322   0.942  35.270 -0.0421  0.4620 -2.3300
16970TIP3    H272402   0.261   0.805  35.246  0.1026 -0.1834  0.6253
16971TIP3   OH272403   3.194   1.438  13.520 -0.1126 -0.3041  0.4212
16971TIP3    H172404   3.116   1.418  13.468  1.1710 -1.7211 -1.0584
16971TIP3    H272405   3.224   1.352  13.551  2.5240 -0.2078 -1.5724
16972TIP3   OH272406   1.170   3.881  46.275 -0.0651  0.3308  0.2546
16972TIP3    H172407   1.152   3.816  46.206 -0.0986  1.4473 -0.8345
16972TIP3    H272408   1.206   3.956  46.228  0.4832  0.9090  1.5476
16973TIP3   OH272409   3.603   0.575  46.597 -0.4354 -0.0492  0.3760
16973TIP3    H172410   3.586   0.669  46.602 -0.3272  0.0870 -1.4192
16973TIP3    H272411   3.571   0.541  46.681 -2.2248  1.3222  0.3105
16974TIP3   OH272412   0.082   2.103  10.314  0.6961 -0.6700  0.2577
16974TIP3    H172413   0.083   2.198  10.302 -1.8527 -0.7821 -1.7809
16974TIP3    H272414   0.060   2.091  10.407 -0.8140  0.8246  0.1489
16975TIP3   OH272415   4.084   0.005  45.611  0.5011 -0.2006 -0.3510
16975TIP3    H172416   4.036   0.077  45.652  1.2567 -0.4351  1.0234
16975TIP3    H272417   4.176   0.031  45.616  0.7446 -1.0395 -0.2723
16976TIP3   OH272418   0.095   2.249  35.158 -0.1362  0.4388 -0.1841
16976TIP3    H172419   0.143   2.185  35.106  0.4785  2.7172 -2.6225
16976TIP3    H272420   0.026   2.280  35.101 -0.1501  2.2480  0.7269
16977TIP3   OH272421   0.562   4.036   2.807 -0.1213  0.2625  0.2095
16977TIP3    H172422   0.565   3.974   2.734  2.4044 -0.2352  0.6206
16977TIP3    H272423   0.553   3.981   2.885 -1.4621  0.7020  0.3935
16978TIP3   OH272424   3.421   2.689   8.108  0.3945 -0.3055  0.6839
16978TIP3    H172425   3.432   2.762   8.169  0.4465  0.3019 -0.0374
16978TIP3    H272426   3.509   2.671   8.075  0.3241 -0.4285  0.5608
16979TIP3   OH272427   1.402   0.066  12.522  0.1264 -0.1069  0.1808
16979TIP3    H172428   1.343   0.117  12.577 -1.4954 -0.0675 -1.5132
16979TIP3    H272429   1.420  -0.013  12.574 -3.3383 -1.2271 -0.1215
16980TIP3   OH272430   4.079   2.024  43.046  0.2564 -0.2451  0.5205
16980TIP3    H172431   4.160   2.029  42.995  0.1056 -2.2247 -0.0034
16980TIP3    H272432   4.085   2.097  43.107  1.9971  0.2192 -0.1334
16981TIP3   OH272433   3.333   1.537   8.573 -0.2670 -0.1132  0.2331
16981TIP3    H172434   3.397   1.473   8.603  0.2044  1.0459  1.7889
16981TIP3    H272435   3.248   1.498   8.595 -0.0726 -1.0951 -0.7034
16982TIP3   OH272436   1.392   0.956   3.342  0.4861  0.9903 -0.0024
16982TIP3    H172437   1.342   0.914   3.272 -0.0285  0.4709  0.6712
16982TIP3    H272438   1.397   1.048   3.316 -2.1674  1.4058  0.6628
16983TIP3   OH272439   2.748   3.437   4.764  0.2512  0.2120  0.5189
16983TIP3    H172440   2.774   3.369   4.703  1.7508 -1.5109  2.9051
16983TIP3    H272441   2.652   3.432   4.767  0.1199  0.4863 -1.7284
16984TIP3   OH272442   3.350   0.757   7.822 -0.1167  0.4070 -0.3285
16984TIP3    H172443   3.408   0.807   7.764  0.3128 -1.5289 -1.6648
16984TIP3    H272444   3.394   0.759   7.907  1.9748 -0.9956 -1.3061
16985TIP3   OH272445   3.653   3.917  35.340 -0.2530  0.3676 -0.2125
16985TIP3    H172446   3.604   3.863  35.402 -0.5658  1.0546  0.1578
16985TIP3    H272447   3.731   3.866  35.320 -0.6026 -0.2698  0.0341
16986TIP3   OH272448   0.025   0.864   6.909 -0.1625  0.2057  0.3625
16986TIP3    H172449   0.004   0.958   6.906 -1.1146 -0.0019  0.0561
16986TIP3    H272450   0.060   0.850   6.997  0.0607  0.8661  0.3832
16987TIP3   OH272451   0.227   2.652   9.752 -0.1714 -0.0258  0.3907
16987TIP3    H172452   0.197   2.561   9.760 -1.1247  0.0842 -1.4627
16987TIP3    H272453   0.152   2.704   9.780  0.2157  0.2282  0.9892
16988TIP3   OH272454   3.863   1.335  13.682 -0.0367 -0.4309  0.6916
16988TIP3    H172455   3.949   1.373  13.697 -0.5046  0.8654  0.2222
16988TIP3    H272456   3.845   1.350  13.590 -0.3096 -1.7117  0.5065
16989TIP3   OH272457   0.746   1.031  34.995  0.4869 -0.3077 -0.1993
16989TIP3    H172458   0.680   1.095  35.020 -0.5818 -0.9877 -1.2117
16989TIP3    H272459   0.799   1.075  34.929  0.5258 -0.0583 -0.0007
16990TIP3   OH272460   0.230   2.753  46.765  0.1407  0.2483 -0.2507
16990TIP3    H172461   0.296   2.716  46.706 -0.4446 -2.1329  0.4608
16990TIP3    H272462   0.160   2.688  46.765 -1.4804  1.9305  0.3085
16991TIP3   OH272463   1.726   2.629   3.180  0.2007  0.0977  0.0300
16991TIP3    H172464   1.807   2.607   3.134 -0.3854 -0.6427 -0.6838
16991TIP3    H272465   1.656   2.600   3.121 -0.6272 -3.2053  2.3136
16992TIP3   OH272466   0.319   3.823  29.372  0.3599 -0.1969 -0.1905
16992TIP3    H172467   0.328   3.759  29.443  1.0296 -1.8035 -1.6700
16992TIP3    H272468   0.399   3.876  29.377 -0.7509  1.4569  1.8234
16993TIP3   OH272469   1.660   1.827  42.321 -0.0555 -0.4112 -0.2153
16993TIP3    H172470   1.701   1.844  42.237 -1.1049  0.6117 -0.5565
16993TIP3    H272471   1.619   1.741  42.311  0.1680 -0.4737 -0.6087
16994TIP3   OH272472   0.815   0.471  37.383  0.2750 -0.1618 -0.5961
16994TIP3    H172473   0.834   0.553  37.429  1.1290 -0.1216 -1.0135
16994TIP3    H272474   0.871   0.406  37.426  0.5393 -0.2721 -1.1054
16995TIP3   OH272475   1.648   2.628  32.205 -0.2927 -0.5263  0.5395
16995TIP3    H172476   1.717   2.575  32.165  0.2717  0.4942  0.1434
16995TIP3    H272477   1.695   2.690  32.261 -0.4440  3.1030 -2.9750
16996TIP3   OH272478   3.736   1.750  21.627 -0.3835 -0.1543 -0.1052
16996TIP3    H172479   3.777   1.836  21.629 -2.3984  0.9873 -2.7273
16996TIP3    H272480   3.779   1.705  21.554 -4.0142  1.4135 -3.5673
16997TIP3   OH272481   3.650   2.686  11.030  0.0279 -0.2077 -0.3731
16997TIP3    H172482   3.600   2.676  10.949 -0.8317 -0.2414  0.1479
16997TIP3    H272483   3.679   2.598  11.052  0.1552 -0.2165 -0.5767
16998TIP3   OH272484   1.084   3.125  36.635 -0.0028  0.2834  0.1164
16998TIP3    H172485   1.053   3.215  36.626  0.6902  0.7070  1.6482
16998TIP3    H272486   1.058   3.082  36.553 -0.7756  1.7369 -0.4296
16999TIP3   OH272487   0.688   3.596  32.016 -0.2364  0.2940  0.5142
16999TIP3    H172488   0.771   3.551  32.033  0.6301  1.7034  0.2197
16999TIP3    H272489   0.634   3.531  31.972  0.7862 -0.6144  0.5566
17000TIP3   OH272490   1.997   2.299  40.931 -0.2127  0.3504 -0.1851
17000TIP3    H172491   2.059   2.284  40.860 -1.2324  1.3708 -1.3486
17000TIP3    H272492   2.002   2.393  40.947 -0.7297  0.2840  0.3961
17001TIP3   OH272493   1.208   0.064  43.596  0.7504  0.2636 -0.2029
17001TIP3    H172494   1.197   0.030  43.685  0.5832 -0.1516 -0.3771
17001TIP3    H272495   1.197   0.159  43.604 -2.5279 -0.0105 -0.2461
17002TIP3   OH272496   3.172   3.649  33.759  0.2570  0.2370  0.9972
17002TIP3    H172497   3.087   3.617  33.792 -0.0212  1.4912  1.5288
17002TIP3    H272498   3.235   3.618  33.824  0.6573 -2.9888 -0.6928
17003TIP3   OH272499   1.261   2.624  47.406 -0.1718  0.0515  0.4269
17003TIP3    H172500   1.176   2.611  47.365  0.7153 -1.7228 -0.9982
17003TIP3    H272501   1.257   2.712  47.443 -1.8202  0.8749 -1.5669
17004TIP3   OH272502   1.558   1.246  43.493  0.1228 -0.8086  0.1434
17004TIP3    H172503   1.464   1.231  43.482  0.2607 -0.9330 -0.9367
17004TIP3    H272504   1.581   1.195  43.570 -1.0856  0.8806  1.7374
17005TIP3   OH272505   3.636   3.677  36.382 -0.7742 -0.2690  0.4862
17005TIP3    H172506   3.655   3.657  36.290 -1.4773 -0.2366  0.3262
17005TIP3    H272507   3.554   3.726  36.379 -1.4718 -1.3530  1.2305
17006TIP3   OH272508   1.081   3.774  43.683  0.1690  0.3473 -0.8892
17006TIP3    H172509   1.083   3.862  43.720  2.3037 -0.1497  0.3580
17006TIP3    H272510   1.172   3.755  43.662  0.4872 -2.9721  2.5072
17007TIP3   OH272511   3.257   3.684  30.317 -0.8013 -0.0103 -0.0797
17007TIP3    H172512   3.268   3.601  30.271 -2.1861 -0.0758 -0.3460
17007TIP3    H272513   3.175   3.675  30.364 -0.0069  0.5112  1.4709
17008TIP3   OH272514   0.221   1.063  34.029  0.1971 -0.2817 -0.0885
17008TIP3    H172515   0.174   1.146  34.023 -1.5099 -1.1961 -0.0349
17008TIP3    H272516   0.170   1.011  34.090  0.2344 -1.9792 -1.4188
17009TIP3   OH272517   1.718   2.336  12.857 -0.1102 -0.2811 -0.3624
17009TIP3    H172518   1.769   2.364  12.933 -0.1980  2.2931 -1.1526
17009TIP3    H272519   1.638   2.300  12.894 -1.0901  2.8045  0.8564
17010TIP3   OH272520   0.615   3.391   8.925 -0.0299  0.0517  0.1723
17010TIP3    H172521   0.524   3.390   8.957  0.4359 -0.7892  1.5592
17010TIP3    H272522   0.615   3.328   8.852 -1.0006  1.6519 -1.3016
17011TIP3   OH272523   0.305   1.905  41.078  0.3821  0.1903  0.2406
17011TIP3    H172524   0.299   2.000  41.077 -1.5607  0.1658  1.9619
17011TIP3    H272525   0.240   1.877  41.013 -0.0812  0.0487  0.7577
17012TIP3   OH272526   1.457   3.866  47.351 -0.0940  0.3444 -0.0830
17012TIP3    H172527   1.468   3.789  47.406 -0.7805  0.4275  0.1888
17012TIP3    H272528   1.446   3.938  47.412 -0.8257  0.4421 -0.3131
17013TIP3   OH272529   3.245   3.650  14.818  0.2727  0.2882  0.1689
17013TIP3    H172530   3.224   3.614  14.904  1.3508  0.9876  0.7588
17013TIP3    H272531   3.220   3.582  14.756  1.5287 -1.1670  1.1873
17014TIP3   OH272532   0.870   1.735  44.817  0.3114 -0.1285 -0.7661
17014TIP3    H172533   0.815   1.679  44.872  0.7826 -0.6615 -0.8291
17014TIP3    H272534   0.956   1.734  44.860  0.3153  0.5925 -0.7414
17015TIP3   OH272535   3.606   1.180  44.216 -0.3173 -0.1245 -0.1739
17015TIP3    H172536   3.564   1.261  44.188 -2.0905 -0.3496  1.6061
17015TIP3    H272537   3.570   1.163  44.303  1.4211 -1.8496  0.2819
17016TIP3   OH272538   0.558   2.440   5.892 -0.5830 -0.2024 -0.5176
17016TIP3    H172539   0.610   2.500   5.837 -1.0970 -1.2806 -2.2531
17016TIP3    H272540   0.590   2.456   5.980  1.7202  0.2006 -1.3462
17017TIP3   OH272541   1.503   3.895  30.621 -0.1299 -0.2757  0.6292
17017TIP3    H172542   1.531   3.948  30.695 -1.1357 -1.4878  1.9553
17017TIP3    H272543   1.581   3.884  30.568  0.3359  1.6201  0.8543
17018TIP3   OH272544   1.615   1.247  21.864  0.0249 -0.3334  0.3919
17018TIP3    H172545   1.535   1.298  21.853  0.4562  0.0578 -1.2489
17018TIP3    H272546   1.662   1.290  21.935 -0.1466  0.8995 -0.2060
17019TIP3   OH272547   0.285   0.253  42.722 -0.4191 -0.0634 -0.1837
17019TIP3    H172548   0.334   0.300  42.653  1.3004 -0.9538  0.3646
17019TIP3    H272549   0.335   0.172  42.735 -2.4837 -1.3660 -0.0627
17020TIP3   OH272550   3.844   0.732  42.198  0.1149  0.0440 -0.3451
17020TIP3    H172551   3.803   0.759  42.280 -1.3648 -1.3718 -0.5753
17020TIP3    H272552   3.778   0.679  42.154  0.7661  0.9829 -2.6031
17021TIP3   OH272553   1.754   0.191  15.353 -0.2022  0.5409  0.3040
17021TIP3    H172554   1.692   0.125  15.382  0.1022 -0.1827 -0.6228
17021TIP3    H272555   1.738   0.267  15.409 -2.8896  0.8761 -0.7752
17022TIP3   OH272556   3.489   0.754   6.539  0.0908  0.3198 -0.4219
17022TIP3    H172557   3.462   0.673   6.582  1.4263 -0.3566 -0.8114
17022TIP3    H272558   3.520   0.809   6.611 -0.6176  0.4221 -0.1811
17023TIP3   OH272559   1.231   2.128  43.268 -0.2465  0.8574 -0.3433
17023TIP3    H172560   1.312   2.174  43.291  0.7551 -0.3869 -1.2248
17023TIP3    H272561   1.245   2.098  43.178 -0.0968 -2.5580  0.6615
17024TIP3   OH272562   0.517   3.284  30.579 -0.3424 -0.4040  0.1932
17024TIP3    H172563   0.452   3.351  30.600  0.2607  0.6036 -0.9998
17024TIP3    H272564   0.597   3.316  30.620  0.0662 -0.1008 -0.8023
17025TIP3   OH272565   2.611   1.950  45.219  0.0865 -0.1449 -0.0175
17025TIP3    H172566   2.703   1.930  45.232 -0.2389 -0.8491  1.4657
17025TIP3    H272567   2.586   1.998  45.299 -1.1763 -1.3042  0.3109
17026TIP3   OH272568   3.490   1.797  13.441 -0.2654 -0.1420 -0.6600
17026TIP3    H172569   3.490   1.788  13.537  0.5212  0.2889 -0.6058
17026TIP3    H272570   3.499   1.707  13.409  0.4249 -0.2143 -0.2955
17027TIP3   OH272571   1.624   3.100  37.740 -0.1618  0.7352  0.3205
17027TIP3    H172572   1.704   3.126  37.784  0.8071  0.5827 -1.2788
17027TIP3    H272573   1.651   3.080  37.650 -1.8658 -0.0042 -0.0697
17028TIP3   OH272574   1.870   3.384  38.117  0.1046  0.6202 -0.3161
17028TIP3    H172575   1.965   3.373  38.119  0.1602  1.1505  0.5202
17028TIP3    H272576   1.840   3.353  38.202 -0.5514 -0.1587 -0.8209
17029TIP3   OH272577   3.815   0.176  10.383 -0.1276  0.2859 -0.4194
17029TIP3    H172578   3.887   0.151  10.326  0.9340 -0.6137  1.2440
17029TIP3    H272579   3.767   0.094  10.398  0.0775  0.3319  0.5736
17030TIP3   OH272580   1.607   3.425  29.428 -0.0248 -0.3169  0.5475
17030TIP3    H172581   1.699   3.438  29.451  0.0032  1.0036 -0.1839
17030TIP3    H272582   1.610   3.392  29.338 -0.2732  0.6542  0.1697
17031TIP3   OH272583   2.301   1.211   4.320 -0.0149  0.3739 -0.3861
17031TIP3    H172584   2.248   1.184   4.245  1.6507 -1.5014 -0.9807
17031TIP3    H272585   2.289   1.140   4.384  1.4268  0.0838 -0.3979
17032TIP3   OH272586   2.647   0.760  25.360  0.6163 -0.4465  0.6885
17032TIP3    H172587   2.691   0.682  25.394  0.7088 -0.8878 -0.4120
17032TIP3    H272588   2.719   0.820  25.338  0.5470 -0.0477  1.4841
17033TIP3   OH272589   1.264   3.070   4.080  0.4475  0.1585 -0.2347
17033TIP3    H172590   1.350   3.067   4.040  1.1566  0.1697  1.2038
17033TIP3    H272591   1.245   3.164   4.089  0.3931  0.1576 -0.3426
17034TIP3   OH272592   3.123   1.859   4.312 -0.6228 -0.4145  0.0528
17034TIP3    H172593   3.140   1.919   4.239 -1.7467  0.4664  0.4784
17034TIP3    H272594   3.045   1.810   4.285  0.0803 -1.4516 -0.1361
17035TIP3   OH272595   3.095   1.079  36.381  0.1773 -0.2129 -0.0268
17035TIP3    H172596   3.140   1.008  36.426 -0.4674 -0.3915  0.3502
17035TIP3    H272597   3.076   1.143  36.450 -0.9568 -0.5609  0.0102
17036TIP3   OH272598   3.859   1.889  33.778  0.2259 -0.4534  0.2052
17036TIP3    H172599   3.895   1.915  33.863  0.1495 -0.0139  0.1062
17036TIP3    H272600   3.926   1.917  33.715 -0.8333  1.5899 -0.1015
17037TIP3   OH272601   2.410   1.076  14.739 -0.0196 -0.0560 -0.3886
17037TIP3    H172602   2.416   1.166  14.771 -0.1443 -1.0507  2.8787
17037TIP3    H272603   2.317   1.059  14.731  0.0028  0.0885 -0.9681
17038TIP3   OH272604   0.275   2.642  14.837 -0.2329  0.0790  0.1183
17038TIP3    H172605   0.345   2.642  14.773  1.0142 -1.0432  1.4177
17038TIP3    H272606   0.310   2.691  14.912 -0.7523 -0.6613  0.8621
17039TIP3   OH272607   3.773   1.566  42.893  0.4184  0.4179 -0.0735
17039TIP3    H172608   3.678   1.575  42.888  0.2210 -0.8083  0.7935
17039TIP3    H272609   3.798   1.616  42.972  0.4132  0.2431  0.0395
17040TIP3   OH272610   0.916   3.407   7.229  0.1680  0.1659 -0.3734
17040TIP3    H172611   1.004   3.415   7.267  0.1128 -0.4499 -0.0986
17040TIP3    H272612   0.929   3.356   7.149  0.2457  1.2377 -1.0656
17041TIP3   OH272613   0.685   3.615  39.888 -0.1690 -0.3337  0.0610
17041TIP3    H172614   0.763   3.565  39.913  0.5647  0.7106 -0.0716
17041TIP3    H272615   0.619   3.591  39.953  1.0229  0.6452  1.7165
17042TIP3   OH272616   1.753   1.705   5.012 -0.6194  0.0509  0.1845
17042TIP3    H172617   1.767   1.611   5.018 -0.4315  0.1683  2.7236
17042TIP3    H272618   1.839   1.743   5.029  0.1298  0.7991 -4.0653
17043TIP3   OH272619   1.422   0.738  10.287 -0.0330 -0.2430  0.3481
17043TIP3    H172620   1.381   0.791  10.219 -0.6407 -1.6632 -0.4397
17043TIP3    H272621   1.404   0.785  10.368  1.4319  1.9339 -0.5045
17044TIP3   OH272622   2.708   0.793  44.225  0.5369  0.2138  0.3226
17044TIP3    H172623   2.737   0.838  44.146 -0.6828 -1.3583 -1.0838
17044TIP3    H272624   2.731   0.701  44.210 -0.0305 -0.1729  1.6583
17045TIP3   OH272625   1.155   2.394   1.779 -0.0311  0.0700 -0.2126
17045TIP3    H172626   1.099   2.411   1.855  1.3628  2.3422  0.4089
17045TIP3    H272627   1.241   2.376   1.816  0.3010 -0.4672 -1.2281
17046TIP3   OH272628   0.329   2.542   9.307  0.3982 -0.4999  0.1997
17046TIP3    H172629   0.379   2.561   9.387  0.7957 -1.5049  0.2123
17046TIP3    H272630   0.239   2.532   9.338  0.8570 -3.1056  0.9467
17047TIP3   OH272631   2.448   3.639  14.088 -0.1471  0.6548  0.1653
17047TIP3    H172632   2.517   3.574  14.079 -0.5812  0.2754 -0.5987
17047TIP3    H272633   2.473   3.709  14.028  0.1744  1.0714  0.7759
17048TIP3   OH272634   1.036   2.785  39.919 -0.0831 -0.3745  0.2883
17048TIP3    H172635   1.052   2.860  39.976  1.2589 -0.6360  0.2802
17048TIP3    H272636   0.965   2.814  39.862  0.3685  0.8851  0.3246
17049TIP3   OH272637   2.843   1.342  13.049 -0.1691 -0.1177 -0.7179
17049TIP3    H172638   2.794   1.423  13.065 -0.7466 -1.0375  2.9440
17049TIP3    H272639   2.776   1.278  13.025 -0.5881 -0.8214  2.0653
17050TIP3   OH272640   1.054   0.215  39.991  0.3039 -0.2420  0.7914
17050TIP3    H172641   0.998   0.163  39.932  0.5119 -1.2100  1.4159
17050TIP3    H272642   1.143   0.183  39.973  0.1864 -2.1192  3.0872
17051TIP3   OH272643   1.030   0.696  42.923 -0.4130 -0.1032  0.3225
17051TIP3    H172644   1.071   0.743  42.850 -0.1667 -0.1008  0.4605
17051TIP3    H272645   1.072   0.610  42.922 -1.1343 -0.4563 -0.1630
17052TIP3   OH272646   1.294   0.157  29.928  0.2436 -0.4393 -0.0821
17052TIP3    H172647   1.273   0.081  29.981 -0.5465  0.8178  1.4781
17052TIP3    H272648   1.389   0.160  29.925  0.2760 -1.3108  0.0773
17053TIP3   OH272649   3.935   3.745   0.145  0.4156 -0.1277  0.8925
17053TIP3    H172650   3.928   3.725   0.239 -0.0107  1.4270  1.2144
17053TIP3    H272651   3.871   3.687   0.104  0.4518 -0.6701  1.5854
17054TIP3   OH272652   2.416   2.526  38.976  0.7822  0.4659  0.2527
17054TIP3    H172653   2.336   2.570  39.003  0.7965  0.9967 -0.5096
17054TIP3    H272654   2.484   2.563  39.032  0.6642  0.8239  0.1631
17055TIP3   OH272655   2.731   3.185  38.728 -0.2742  0.5286 -0.3613
17055TIP3    H172656   2.735   3.109  38.786  0.5950 -0.0893 -1.2071
17055TIP3    H272657   2.728   3.260  38.787 -2.8855 -0.1704  0.5335
17056TIP3   OH272658   3.964   1.222  33.059 -0.0369 -0.5075 -0.1285
17056TIP3    H172659   3.973   1.249  32.968  0.0500 -1.2707 -0.3531
17056TIP3    H272660   4.052   1.230  33.096  0.4029 -2.2132 -0.6999
17057TIP3   OH272661   3.742   3.375   7.989  0.0439  0.1582 -0.0923
17057TIP3    H172662   3.802   3.436   8.032 -0.3984 -0.7024  1.8775
17057TIP3    H272663   3.674   3.430   7.952  0.5179  0.9611  0.2009
17058TIP3   OH272664   0.778   0.047  36.743  0.2950  0.0148 -0.2335
17058TIP3    H172665   0.785  -0.026  36.681  0.3599 -1.0862  1.0218
17058TIP3    H272666   0.826   0.017  36.820  0.8144  1.6376  0.1094
17059TIP3   OH272667   3.136   2.844   6.604 -0.3333 -0.0173  0.3179
17059TIP3    H172668   3.048   2.807   6.600 -0.8232  1.1411 -0.4252
17059TIP3    H272669   3.175   2.825   6.518  0.0908 -0.4012  0.5916
17060TIP3   OH272670   0.029   1.176  46.469 -0.2521 -0.2591  0.1405
17060TIP3    H172671  -0.014   1.170  46.384 -1.5295  1.4545  0.6105
17060TIP3    H272672  -0.038   1.214  46.527  2.0772  3.3915  0.7341
17061TIP3   OH272673   3.567   0.365  43.501  0.5406 -0.1223 -0.5050
17061TIP3    H172674   3.579   0.283  43.548 -2.4109 -0.6165 -0.4208
17061TIP3    H272675   3.509   0.417  43.557  0.6207  1.1210 -1.5249
17062TIP3   OH272676   3.688   1.125   2.845 -0.2235  0.0504 -0.0919
17062TIP3    H172677   3.629   1.061   2.807 -0.9312  0.3240  0.5122
17062TIP3    H272678   3.740   1.157   2.772 -1.5941  0.6215 -0.8403
17063TIP3   OH272679   1.532   3.389  33.709 -0.0434 -0.4134 -0.2686
17063TIP3    H172680   1.547   3.446  33.634  0.1055  0.0483  0.1092
17063TIP3    H272681   1.470   3.323  33.677 -0.9637  0.5037 -0.4525
17064TIP3   OH272682   2.251   1.541  32.900  0.3275  0.4022  0.2890
17064TIP3    H172683   2.288   1.456  32.876  1.2002  1.3775 -2.0584
17064TIP3    H272684   2.326   1.595  32.922  0.1551  1.5883 -1.8026
17065TIP3   OH272685   2.023   1.816  18.449  0.0070 -0.0576  0.5325
17065TIP3    H172686   2.051   1.783  18.534 -1.2492  0.1221  1.0226
17065TIP3    H272687   2.015   1.911  18.461 -0.8202 -0.1074  0.4038
17066TIP3   OH272688   3.612   3.768  37.811  0.2057  0.4633 -0.7033
17066TIP3    H172689   3.579   3.711  37.881  0.3005  0.8842 -0.3125
17066TIP3    H272690   3.558   3.746  37.735 -0.1825  0.3009 -0.3849
17067TIP3   OH272691   1.197   3.294  32.468 -0.6206 -0.2659  0.5675
17067TIP3    H172692   1.241   3.344  32.537 -0.7995 -0.1983  0.6333
17067TIP3    H272693   1.135   3.238  32.515 -0.0412 -0.9405  0.5353
17068TIP3   OH272694   3.438   2.898  45.860 -0.3658  0.4608 -0.3930
17068TIP3    H172695   3.349   2.883  45.892 -0.2542  0.0853 -0.2600
17068TIP3    H272696   3.466   2.979  45.904  0.0619 -0.4408  1.0450
17069TIP3   OH272697   3.799   1.189  31.147 -0.8743 -0.1455 -0.3982
17069TIP3    H172698   3.882   1.235  31.154  0.5536 -2.0213 -3.1739
17069TIP3    H272699   3.737   1.255  31.117 -0.4462  1.2513  1.5793
17070TIP3   OH272700   1.267   2.539   6.056  0.0108 -0.4606 -0.0152
17070TIP3    H172701   1.204   2.593   6.103 -0.9249 -0.8197 -0.8173
17070TIP3    H272702   1.216   2.465   6.023  0.7863 -0.6140 -0.9401
17071TIP3   OH272703   0.277   0.494  32.758 -0.0608 -0.0466 -0.2664
17071TIP3    H172704   0.225   0.534  32.688  0.0612 -2.3983 -1.8556
17071TIP3    H272705   0.348   0.448  32.711  1.6745  0.5635  1.6337
17072TIP3   OH272706   1.946   1.308  44.935 -0.0662 -0.4607 -0.0780
17072TIP3    H172707   1.918   1.380  44.991 -1.9189 -0.8678 -0.4083
17072TIP3    H272708   2.018   1.267  44.982  0.5307  1.1567  0.4494
17073TIP3   OH272709   0.751   0.231  38.408 -0.0932 -0.3898  0.1525
17073TIP3    H172710   0.742   0.257  38.317 -0.4880  0.0414  0.3091
17073TIP3    H272711   0.766   0.137  38.405 -1.6684 -0.6618 -0.3046
17074TIP3   OH272712   0.362   0.085  37.688  0.0688  0.0786 -0.1867
17074TIP3    H172713   0.352   0.046  37.601  1.0652  0.3615 -0.4481
17074TIP3    H272714   0.449   0.057  37.717 -0.0009  0.4921  0.4547
17075TIP3   OH272715   2.858   3.942   8.239 -0.1664  0.9599 -0.5066
17075TIP3    H172716   2.897   3.947   8.151 -2.1879 -0.2440 -1.5363
17075TIP3    H272717   2.777   3.992   8.232 -0.7241  0.2175  0.4390
17076TIP3   OH272718   3.689   1.936  43.136  0.5199  0.6202 -0.4284
17076TIP3    H172719   3.617   1.973  43.085  1.4907  2.2065 -0.7374
17076TIP3    H272720   3.649   1.908  43.218 -0.5935  0.6581 -0.9420
17077TIP3   OH272721   3.663   1.556  46.986 -0.6131  0.0160 -0.1812
17077TIP3    H172722   3.569   1.575  46.983 -0.4011  2.2993  2.8519
17077TIP3    H272723   3.703   1.632  46.944 -0.0712  0.4550  1.0987
17078TIP3   OH272724   2.398   0.051  26.822  0.4871  0.0737 -0.5611
17078TIP3    H172725   2.418   0.008  26.739  0.3092 -0.7355 -0.2007
17078TIP3    H272726   2.357   0.134  26.797  0.1374 -0.3041 -1.2889
17079TIP3   OH272727   3.800   3.050  33.181  0.0102  0.1448  0.6863
17079TIP3    H172728   3.743   3.113  33.226  0.0729  0.7146 -0.0282
17079TIP3    H272729   3.859   3.019  33.250 -0.2279  0.6278  1.1162
17080TIP3   OH272730   2.555   0.476  25.180 -0.1733 -0.2349 -0.5042
17080TIP3    H172731   2.479   0.423  25.204 -0.9763 -0.0011 -2.3681
17080TIP3    H272732   2.592   0.503  25.264 -1.8632 -0.7629  0.4662
17081TIP3   OH272733   3.881   1.175  46.551 -0.2314  0.0984 -0.5440
17081TIP3    H172734   3.894   1.114  46.624  1.7100  2.0828  0.9082
17081TIP3    H272735   3.792   1.159  46.521 -0.0897 -2.7720  0.3536
17082TIP3   OH272736   0.552   2.153   3.624 -0.0961 -0.1306 -0.1594
17082TIP3    H172737   0.473   2.109   3.593  1.2658 -2.5703 -0.4346
17082TIP3    H272738   0.529   2.184   3.712 -0.9726 -2.0428  0.3382
17083TIP3   OH272739   2.664   2.012  33.808 -0.3213  0.1574 -0.6842
17083TIP3    H172740   2.659   2.106  33.790 -2.2742  0.0641 -0.9333
17083TIP3    H272741   2.629   2.002  33.896  2.3379 -0.1332  0.4233
17084TIP3   OH272742   0.807   3.828  15.297  0.0244 -0.3024  0.5381
17084TIP3    H172743   0.885   3.809  15.349  1.0201  1.5780 -0.1816
17084TIP3    H272744   0.815   3.772  15.220  1.8176  1.3161 -0.5408
17085TIP3   OH272745   1.523   1.762  33.687 -0.0710  0.1484 -0.2987
17085TIP3    H172746   1.518   1.832  33.752  0.3889 -0.7449  0.7462
17085TIP3    H272747   1.599   1.711  33.713 -1.2999 -1.6591 -0.0262
17086TIP3   OH272748   0.471   2.451   5.145  0.1256  0.3997 -0.0971
17086TIP3    H172749   0.447   2.543   5.135  2.1909  1.1401  1.3091
17086TIP3    H272750   0.563   2.447   5.119 -0.2011 -1.5127 -1.1712
17087TIP3   OH272751   2.880   3.206  14.856  0.0228  0.6235 -0.0916
17087TIP3    H172752   2.912   3.283  14.808  0.1881  0.8373  0.3602
17087TIP3    H272753   2.892   3.134  14.795  2.7836  0.4343  0.5652
17088TIP3   OH272754   2.571   0.820  44.976 -0.5221  0.0394  0.3003
17088TIP3    H172755   2.593   0.780  45.060  0.1552 -0.3345 -0.0449
17088TIP3    H272756   2.525   0.752  44.927 -0.3809  0.0552  0.1425
17089TIP3   OH272757   2.354   1.044  13.278 -0.2398  0.0008 -0.4167
17089TIP3    H172758   2.400   1.007  13.203 -0.1820  0.5825 -0.6725
17089TIP3    H272759   2.405   1.120  13.303 -1.5366  1.2206 -1.3044
17090TIP3   OH272760   0.296   1.139  35.784  0.1501  0.8845  0.4235
17090TIP3    H172761   0.383   1.119  35.749 -0.3034 -0.9707  0.2709
17090TIP3    H272762   0.314   1.189  35.864  1.2468  3.2048 -1.1492
17091TIP3   OH272763   0.904   1.632  36.772 -0.1333  1.0186 -0.0607
17091TIP3    H172764   0.876   1.550  36.732 -0.1231  1.2246 -0.4975
17091TIP3    H272765   0.832   1.656  36.830 -1.4719  2.1746 -2.0973
17092TIP3   OH272766   1.830   0.534  39.340 -0.3070 -0.1011 -0.1533
17092TIP3    H172767   1.791   0.500  39.260 -0.3026  0.2888 -0.3242
17092TIP3    H272768   1.820   0.464  39.404  0.2065 -0.6443 -0.6491
17093TIP3   OH272769   2.324   1.524  44.472  0.1708 -0.0370  0.3142
17093TIP3    H172770   2.325   1.447  44.416 -0.4919  0.3515 -0.2343
17093TIP3    H272771   2.416   1.552  44.476  0.5365 -1.2595  1.1090
17094TIP3   OH272772   1.761   0.539  32.042  0.0632  0.2987  0.2225
17094TIP3    H172773   1.672   0.528  32.009  0.0225 -0.3310  0.5220
17094TIP3    H272774   1.760   0.625  32.084 -0.7757 -0.2501  1.3691
17095TIP3   OH272775   0.874   3.922  28.446 -0.4024  0.3778 -0.3274
17095TIP3    H172776   0.868   3.853  28.512 -2.5452  0.9002  0.1126
17095TIP3    H272777   0.834   3.885  28.368  0.6568  0.3183 -0.8597
17096TIP3   OH272778   1.522   3.925  36.394  0.0119 -0.0246  0.0976
17096TIP3    H172779   1.462   3.850  36.402  0.6702 -0.5562  0.1193
17096TIP3    H272780   1.606   3.886  36.369  0.4971  0.6518  0.6315
17097TIP3   OH272781   0.957   0.225  37.309  0.4499  0.0507  0.0678
17097TIP3    H172782   0.896   0.237  37.236 -1.7728 -0.8239  1.6497
17097TIP3    H272783   1.010   0.150  37.284  0.2471  0.2302 -0.9607
17098TIP3   OH272784   1.950   3.957   0.698 -0.0916 -0.0229  0.5471
17098TIP3    H172785   1.892   4.016   0.747 -1.2053 -0.5933 -0.0350
17098TIP3    H272786   1.919   3.963   0.607  1.9078  0.9888 -0.1363
17099TIP3   OH272787   0.725   2.108  41.598  0.2357 -0.0451  0.1121
17099TIP3    H172788   0.696   2.193  41.633  1.3576  0.8755 -1.0723
17099TIP3    H272789   0.804   2.129  41.548 -0.4237 -1.5135 -1.6572
17100TIP3   OH272790   3.861   3.414  13.979  0.2204 -1.0348  0.2496
17100TIP3    H172791   3.936   3.420  13.919  0.4237 -0.1538  0.5745
17100TIP3    H272792   3.793   3.371  13.928  0.1359  0.3655 -0.8888
17101TIP3   OH272793   0.135   3.441  42.293  0.0748 -0.0649  0.6604
17101TIP3    H172794   0.228   3.437  42.312 -0.3023  3.3875  4.9879
17101TIP3    H272795   0.124   3.519  42.239 -0.3355  0.3922  1.3734
17102TIP3   OH272796   0.516   1.749  33.370 -0.0703  0.6910  0.1181
17102TIP3    H172797   0.436   1.698  33.383  0.8232 -1.1821 -1.2011
17102TIP3    H272798   0.504   1.792  33.285  0.1208  0.8015  0.1472
17103TIP3   OH272799   2.852   0.986   2.379  0.0540 -0.0299  0.2723
17103TIP3    H172800   2.757   0.976   2.388  0.0244  0.0832  0.0916
17103TIP3    H272801   2.877   1.050   2.445 -0.1078  0.5311 -0.2064
17104TIP3   OH272802   0.744   1.388  39.541 -0.1075 -0.1535  0.0598
17104TIP3    H172803   0.761   1.314  39.598 -0.6439 -0.1491  0.2299
17104TIP3    H272804   0.648   1.395  39.538 -0.1084 -0.4646 -1.2244
17105TIP3   OH272805   2.728   2.458  41.316  0.5100  0.2266  0.2580
17105TIP3    H172806   2.746   2.387  41.255  1.5049  1.2380 -0.6555
17105TIP3    H272807   2.714   2.414  41.400  0.5688 -1.0752 -0.3868
17106TIP3   OH272808   0.241   2.976  37.746  0.2483 -0.6249  0.7718
17106TIP3    H172809   0.239   2.959  37.652 -0.9473 -0.1031  0.6848
17106TIP3    H272810   0.332   2.961  37.772  0.5982 -0.7153 -0.4742
17107TIP3   OH272811   3.527   0.207   5.213  1.0739  0.4557 -0.4594
17107TIP3    H172812   3.530   0.296   5.180  5.1783  0.3054 -0.8955
17107TIP3    H272813   3.529   0.152   5.135 -0.5089 -0.0969 -0.1591
17108TIP3   OH272814   1.890   3.730  31.053 -0.0139  0.7111 -0.0527
17108TIP3    H172815   1.954   3.799  31.072  0.8113  0.4116 -1.5653
17108TIP3    H272816   1.942   3.660  31.013 -1.1399  0.0406 -0.3867
17109TIP3   OH272817   0.125   3.502   0.388 -0.0126 -0.0869 -0.3475
17109TIP3    H172818   0.184   3.426   0.385 -1.0078 -0.9078 -0.0050
17109TIP3    H272819   0.038   3.463   0.397 -0.4900  1.1269  0.4085
17110TIP3   OH272820   0.968   1.679  47.268 -0.7231 -0.3999 -0.6155
17110TIP3    H172821   0.936   1.597  47.306 -0.3431 -0.9830 -1.5240
17110TIP3    H272822   1.057   1.658  47.240 -0.6773  0.2853 -0.9892
17111TIP3   OH272823   3.648   3.180  46.848  0.5568 -0.0991 -0.0026
17111TIP3    H172824   3.728   3.147  46.888  0.1697 -0.7813  0.2193
17111TIP3    H272825   3.675   3.260  46.803  1.3695 -0.3606  0.0118
17112TIP3   OH272826   3.795   0.042  45.290  0.7537 -0.3275  0.6929
17112TIP3    H172827   3.751   0.031  45.375 -0.3087  1.1967  0.3785
17112TIP3    H272828   3.725   0.034  45.226  1.2444  0.2873  0.0655
17113TIP3   OH272829   2.221   1.993  13.487  0.2375  0.3466  0.2412
17113TIP3    H172830   2.209   2.082  13.518 -0.6384 -0.1038  1.2678
17113TIP3    H272831   2.147   1.977  13.428 -0.1681 -0.0207  0.8409
17114TIP3   OH272832   2.727   3.652  46.247 -0.1452  0.0294 -0.2413
17114TIP3    H172833   2.660   3.617  46.305 -1.3273  1.4405 -0.7115
17114TIP3    H272834   2.770   3.720  46.299 -1.8096  1.9298 -1.2532
17115TIP3   OH272835   1.112   0.395   5.992  0.5279 -0.3299  0.0747
17115TIP3    H172836   1.061   0.350   6.060 -1.2168  1.2406 -0.0927
17115TIP3    H272837   1.175   0.330   5.962  1.2803 -1.1213  3.0861
17116TIP3   OH272838   1.321   3.633  46.724 -0.7409 -0.3221  0.4827
17116TIP3    H172839   1.397   3.671  46.680 -0.3839 -1.3599  0.1772
17116TIP3    H272840   1.348   3.623  46.815 -1.1231  0.8885  0.7414
17117TIP3   OH272841   2.871   0.723  11.894  0.5776  0.4841 -0.3317
17117TIP3    H172842   2.779   0.703  11.879  0.9121 -0.2067 -1.7133
17117TIP3    H272843   2.900   0.763  11.812  1.3725  1.2207  0.2941
17118TIP3   OH272844   0.814   3.504  32.467  0.0993 -0.3806 -0.3168
17118TIP3    H172845   0.874   3.546  32.406 -0.7822 -1.7785 -2.2423
17118TIP3    H272846   0.727   3.537  32.443 -0.0544  1.2465  2.1184
17119TIP3   OH272847   0.874   0.964  12.395 -0.2754 -0.2600 -0.1116
17119TIP3    H172848   0.887   1.031  12.328  1.9210 -0.1974  0.3042
17119TIP3    H272849   0.848   1.013  12.473 -0.5443 -0.0931 -0.3063
17120TIP3   OH272850   3.724   2.612   9.228 -0.1020  0.0981 -0.1234
17120TIP3    H172851   3.759   2.523   9.240 -0.2757  0.0989  0.4134
17120TIP3    H272852   3.764   2.642   9.146  2.2271  0.6117  1.1229
17121TIP3   OH272853   1.781   2.341  15.438  0.2870  0.7542  0.0039
17121TIP3    H172854   1.743   2.426  15.459  1.1200  1.1597 -0.1125
17121TIP3    H272855   1.776   2.291  15.519 -2.2738  0.0895 -0.4694
17122TIP3   OH272856   3.134   1.486  16.379 -0.0030  0.1823  0.4715
17122TIP3    H172857   3.167   1.452  16.463 -0.6873  0.8855  1.0379
17122TIP3    H272858   3.081   1.415  16.344  0.9614 -0.4307  0.2256
17123TIP3   OH272859   1.484   3.825  26.610 -0.1617  0.1614 -0.1266
17123TIP3    H172860   1.514   3.748  26.660  0.4223 -0.3279 -1.2094
17123TIP3    H272861   1.528   3.899  26.651  3.4617 -0.5957 -2.2401
17124TIP3   OH272862   2.509   1.493   3.402 -0.2554  0.0424  0.4047
17124TIP3    H172863   2.483   1.582   3.427  1.3130  0.6393 -0.0370
17124TIP3    H272864   2.570   1.504   3.330 -1.4114 -1.4967 -0.8858
17125TIP3   OH272865   2.507   2.208  20.121  0.2992 -0.2022 -0.1690
17125TIP3    H172866   2.579   2.229  20.180 -0.8629  0.6301  1.0110
17125TIP3    H272867   2.432   2.256  20.156 -0.3230  0.8640 -2.6742
17126TIP3   OH272868   2.059   1.798   8.086  0.0296 -0.1415  0.1602
17126TIP3    H172869   2.089   1.708   8.077 -0.2084 -0.0717 -1.7818
17126TIP3    H272870   2.131   1.843   8.131  1.4663 -0.6926 -1.4524
17127TIP3   OH272871   3.743   0.204  32.297 -0.0557  0.3012  0.1090
17127TIP3    H172872   3.662   0.189  32.248  0.4224  0.6974 -0.8306
17127TIP3    H272873   3.731   0.290  32.337  0.5989  1.2058 -1.5346
17128TIP3   OH272874   0.576   2.169  42.424  0.1195 -0.5005  0.1879
17128TIP3    H172875   0.610   2.179  42.513  1.1494 -2.4564  0.0610
17128TIP3    H272876   0.481   2.180  42.433  0.2456 -0.3159  1.4578
17129TIP3   OH272877   2.702   1.396  34.982  0.0842  0.2018 -0.1576
17129TIP3    H172878   2.663   1.455  35.047 -1.5099 -0.2418 -0.6616
17129TIP3    H272879   2.661   1.312  34.998  1.6482 -0.5795 -0.0631
17130TIP3   OH272880   2.958   3.096  11.016 -0.0758 -0.3138  0.0630
17130TIP3    H172881   2.920   3.091  10.929  1.1421  0.7607 -0.5489
17130TIP3    H272882   2.888   3.065  11.074 -1.7123  1.1185 -1.0570
17131TIP3   OH272883   3.005   1.671  37.734  0.3058  0.3371 -0.3111
17131TIP3    H172884   2.970   1.750  37.692 -0.8110  0.2593  0.4390
17131TIP3    H272885   2.979   1.680  37.826  2.3433  0.3148  0.3226
17132TIP3   OH272886   2.784   1.653   9.887 -0.9667  0.0121 -0.0591
17132TIP3    H172887   2.852   1.690   9.942 -0.1004 -1.4500 -0.1056
17132TIP3    H272888   2.776   1.562   9.916 -1.7084 -0.3065 -1.1927
17133TIP3   OH272889   0.114   0.515  10.429  0.0748  0.0995  0.2625
17133TIP3    H172890   0.097   0.608  10.444  1.4210  0.7796 -1.9449
17133TIP3    H272891   0.104   0.504  10.334 -0.2054 -2.0564  0.5004
17134TIP3   OH272892   1.559   0.046  15.077  0.2715 -0.4497  0.5431
17134TIP3    H172893   1.474   0.084  15.099  0.1346 -1.1740  1.3267
17134TIP3    H272894   1.621   0.119  15.082 -0.1993 -0.0510  0.5945
17135TIP3   OH272895   0.281   1.268   9.667  0.1227 -0.1717 -0.1152
17135TIP3    H172896   0.213   1.213   9.705  0.7606 -0.1985  1.0273
17135TIP3    H272897   0.361   1.244   9.714  1.1606 -0.9096 -2.1565
17136TIP3   OH272898   1.542   2.856  10.066 -0.2348 -0.6121 -0.0829
17136TIP3    H172899   1.582   2.864   9.979  3.2128 -0.3684  1.3450
17136TIP3    H272900   1.506   2.943  10.084  3.3381  0.9535  0.4740
17137TIP3   OH272901   3.100   1.386  34.359  0.1996  0.6043  0.3069
17137TIP3    H172902   3.012   1.399  34.395  1.1009 -0.3787  3.1062
17137TIP3    H272903   3.120   1.294  34.377  2.0289  0.9603  0.2541
17138TIP3   OH272904   3.556   3.580  29.519 -0.1207 -0.3978  0.2615
17138TIP3    H172905   3.605   3.534  29.451  0.9795  0.3210  0.5371
17138TIP3    H272906   3.475   3.608  29.476  0.5445  0.0370 -0.7628
17139TIP3   OH272907   2.350   3.639   1.879 -0.1309  0.2643  0.3670
17139TIP3    H172908   2.402   3.583   1.937 -0.6334 -0.0426  0.5325
17139TIP3    H272909   2.346   3.591   1.797 -2.1803 -0.9114  1.0853
17140TIP3   OH272910   0.649   3.256  40.483  0.0168  0.2302 -0.0579
17140TIP3    H172911   0.717   3.265  40.549  0.8357  0.5263 -0.9172
17140TIP3    H272912   0.587   3.326  40.503  0.0155  0.0351  0.6621
17141TIP3   OH272913   3.408   0.613  39.387 -0.1647 -0.2873 -0.6178
17141TIP3    H172914   3.357   0.629  39.467  0.4312  0.5468 -0.3834
17141TIP3    H272915   3.418   0.518  39.382  2.2819 -0.3117  1.9502
17142TIP3   OH272916   3.541   0.913  39.461  0.0148  0.4072  0.6503
17142TIP3    H172917   3.626   0.910  39.505 -0.0626 -0.6352  0.7429
17142TIP3    H272918   3.485   0.855  39.512 -0.6056  0.6744  0.2808
17143TIP3   OH272919   1.454   2.040   0.675 -0.4736  0.1205  0.2355
17143TIP3    H172920   1.380   2.043   0.614 -1.5168  1.8001  1.5280
17143TIP3    H272921   1.441   2.114   0.734  1.6191 -0.2330  1.2507
17144TIP3   OH272922   3.666   0.325  42.170 -0.5256  0.5274 -0.2080
17144TIP3    H172923   3.644   0.232  42.168 -2.3156  0.8393  1.5501
17144TIP3    H272924   3.742   0.331  42.229  0.9274  0.0309 -1.9313
17145TIP3   OH272925   2.482   2.263  46.382 -0.4493  0.1827 -0.2721
17145TIP3    H172926   2.527   2.293  46.303 -0.4540  1.7247  0.2763
17145TIP3    H272927   2.522   2.178  46.402  1.8142  1.2133 -0.1515
17146TIP3   OH272928   2.957   1.682  38.549  0.2970  0.1418 -0.4330
17146TIP3    H172929   3.016   1.755  38.534 -0.6987  1.2260  0.6687
17146TIP3    H272930   2.947   1.677  38.644 -0.5968 -0.6396 -0.5418
17147TIP3   OH272931   3.018   2.988  32.491  0.1398 -0.0579  0.0840
17147TIP3    H172932   2.933   3.030  32.487  0.7974  1.3646  0.5291
17147TIP3    H272933   3.026   2.941  32.407 -0.5461  0.8558 -0.5055
17148TIP3   OH272934   3.051   1.426  43.867 -0.2875 -0.0596 -0.3871
17148TIP3    H172935   2.994   1.439  43.943  1.0024 -1.3470  0.8656
17148TIP3    H272936   3.103   1.506  43.863  1.0240 -0.7434  1.3929
17149TIP3   OH272937   3.065   0.408   8.919 -0.3740  0.0835  0.7903
17149TIP3    H172938   3.088   0.475   8.854  0.5807 -1.2764 -0.3392
17149TIP3    H272939   3.081   0.450   9.004 -1.6510  1.9054  0.1901
17150TIP3   OH272940   1.519   0.873   9.744 -0.0419 -0.6026 -0.0948
17150TIP3    H172941   1.567   0.868   9.827  2.8616  0.6564 -1.5491
17150TIP3    H272942   1.569   0.818   9.684 -0.5223  0.6179 -1.6760
17151TIP3   OH272943   3.739   1.828  33.382 -0.2798 -0.6039  0.6168
17151TIP3    H172944   3.664   1.886  33.391 -0.7107 -1.1180  0.4267
17151TIP3    H272945   3.703   1.740  33.397  0.4554 -0.7799  1.4381
17152TIP3   OH272946   1.671   3.025   4.869 -0.0167 -0.4796 -0.0501
17152TIP3    H172947   1.632   2.962   4.929 -0.4323  0.9967  1.3050
17152TIP3    H272948   1.759   2.991   4.852  0.5324 -0.3874  2.3049
17153TIP3   OH272949   1.081   2.981   9.043  0.1778 -0.3767 -0.3096
17153TIP3    H172950   1.103   2.964   9.135  1.3120  1.1531 -0.2477
17153TIP3    H272951   1.116   3.068   9.027 -1.5996  0.1300 -1.7087
17154TIP3   OH272952   3.048   3.285  43.684  0.0826 -0.0256  0.2111
17154TIP3    H172953   3.122   3.341  43.660 -0.2625  0.4821  0.3319
17154TIP3    H272954   2.979   3.346  43.710 -0.1503 -0.5136  0.7632
17155TIP3   OH272955   3.185   3.232  42.391 -0.0159  0.7102  0.2931
17155TIP3    H172956   3.166   3.253  42.299  0.0475  1.4095  0.4371
17155TIP3    H272957   3.279   3.249  42.400  1.0278 -3.4468 -0.6332
17156TIP3   OH272958   3.242   1.055   9.495 -0.3352 -0.3476  0.4739
17156TIP3    H172959   3.194   0.992   9.550  1.9196 -2.3680  0.2963
17156TIP3    H272960   3.280   1.001   9.426 -0.0591  1.5954 -0.9592
17157TIP3   OH272961   2.599   0.899   2.446 -0.0363  0.3664 -0.3367
17157TIP3    H172962   2.532   0.885   2.513  0.3441 -0.6129 -0.1400
17157TIP3    H272963   2.550   0.928   2.369 -0.2908  3.9131  0.9713
17158TIP3   OH272964   0.751   0.235  45.402 -0.7413 -0.2453  0.3566
17158TIP3    H172965   0.796   0.260  45.483  1.0216  0.9523 -0.9126
17158TIP3    H272966   0.666   0.278  45.407 -0.5543  0.0233  1.4431
17159TIP3   OH272967   2.372   2.248  35.770  0.1014  0.3687 -0.4082
17159TIP3    H172968   2.468   2.253  35.765  0.4331 -2.6301  0.9173
17159TIP3    H272969   2.342   2.319  35.714  3.0955  0.8681 -1.5860
17160TIP3   OH272970   0.378   0.627  10.567 -0.0704  0.0569 -0.0097
17160TIP3    H172971   0.368   0.567  10.494 -1.1068 -0.6822  0.7068
17160TIP3    H272972   0.450   0.589  10.619  0.1761  0.1794 -0.2621
17161TIP3   OH272973   2.429   0.261  47.010 -0.5111 -0.3170  0.6423
17161TIP3    H172974   2.459   0.248  47.099  0.2861 -0.7738  0.3145
17161TIP3    H272975   2.507   0.249  46.956 -1.0588 -0.4560 -0.1418
17162TIP3   OH272976   1.897   2.796  34.134  0.0630  0.2070  0.2613
17162TIP3    H172977   1.809   2.763  34.119  0.6660 -1.3028 -0.1224
17162TIP3    H272978   1.891   2.845  34.216 -0.9882 -0.4625  0.5987
17163TIP3   OH272979   3.929   3.013  39.789  0.2602  0.2650 -0.1852
17163TIP3    H172980   3.850   2.971  39.755  0.6115  0.9621 -1.9352
17163TIP3    H272981   3.999   2.950  39.772  0.1240 -0.3680  1.3961
17164TIP3   OH272982   1.025   3.178  31.664  0.0730 -0.2033  0.6981
17164TIP3    H172983   1.047   3.266  31.695 -0.7172  0.0436  0.5762
17164TIP3    H272984   1.093   3.158  31.600 -0.7888  1.0820 -0.6577
17165TIP3   OH272985   0.336   2.686  41.101 -0.0720 -0.6235  0.3846
17165TIP3    H172986   0.261   2.718  41.050 -0.8881  0.0915  1.9646
17165TIP3    H272987   0.380   2.766  41.131  0.2569 -1.0258  0.9869
17166TIP3   OH272988   2.687   1.695  15.444  0.0399  0.2481 -0.4591
17166TIP3    H172989   2.772   1.738  15.455 -0.4948  1.0540  0.7329
17166TIP3    H272990   2.623   1.762  15.471 -0.8553 -1.0281  0.7131
17167TIP3   OH272991   4.066   3.443  43.172  0.4808 -0.5607  0.1954
17167TIP3    H172992   4.021   3.464  43.254  0.4959 -0.3308  0.1447
17167TIP3    H272993   3.996   3.436  43.108  0.4636 -0.8014  0.2401
17168TIP3   OH272994   0.012   2.725  10.671 -0.1367  0.0744 -0.3069
17168TIP3    H172995  -0.020   2.745  10.583  0.7819 -2.0312 -1.1868
17168TIP3    H272996  -0.063   2.684  10.715 -0.7147  1.4680  0.0758
17169TIP3   OH272997   1.341   0.495  11.317 -0.3203  0.3496  0.1990
17169TIP3    H172998   1.294   0.571  11.283 -0.7527 -0.6658 -1.5923
17169TIP3    H272999   1.362   0.443  11.239  0.3313 -1.1640  1.3350
17170TIP3   OH273000   0.180   1.431  10.817  0.0912  0.1098 -0.0986
17170TIP3    H173001   0.196   1.478  10.899 -0.4299  0.2418 -0.0648
17170TIP3    H273002   0.141   1.497  10.760  0.8617  0.1330 -0.6073
17171TIP3   OH273003   1.414   0.881  43.328  0.3430 -0.1363 -0.0949
17171TIP3    H173004   1.474   0.873  43.402  0.3566  1.2968  0.0777
17171TIP3    H273005   1.327   0.870  43.367  0.2609  1.8853  0.4100
17172TIP3   OH273006   0.927   1.160   5.896  0.6561  0.6194  0.5157
17172TIP3    H173007   0.943   1.071   5.864  3.0011  1.1757  0.0219
17172TIP3    H273008   0.831   1.166   5.900  0.4039 -2.2120  1.4379
17173TIP3   OH273009   3.684   0.950  43.834 -0.0080 -0.3192  0.0654
17173TIP3    H173010   3.737   0.886  43.882  0.1865 -0.0784  0.1735
17173TIP3    H273011   3.721   0.950  43.745  0.6544  0.3834  0.3333
17174TIP3   OH273012   2.492   3.292  41.106  0.1262  0.3209 -0.0073
17174TIP3    H173013   2.539   3.357  41.159 -0.6028  1.3646 -0.5985
17174TIP3    H273014   2.439   3.344  41.046 -1.6135 -0.8191  0.4876
17175TIP3   OH273015   2.045   3.358   0.095 -0.6066  0.0256  0.1826
17175TIP3    H173016   2.060   3.358   0.189  0.6965  0.2639 -0.0044
17175TIP3    H273017   2.048   3.266   0.070  1.5955  0.0674  0.0439
17176TIP3   OH273018   4.036   1.783  11.770 -0.3873 -0.5829 -0.5889
17176TIP3    H173019   4.099   1.742  11.711 -0.6795 -2.0619  0.0923
17176TIP3    H273020   4.019   1.869  11.731  2.6731  0.2485 -0.3426
17177TIP3   OH273021   0.076   3.219  31.588  0.2496  0.0484  0.7484
17177TIP3    H173022  -0.003   3.241  31.638  0.4050  0.0582  0.9915
17177TIP3    H273023   0.127   3.299  31.586 -0.6603  0.6333 -1.1512
17178TIP3   OH273024   0.742   0.076  33.120 -0.0316 -0.0093  0.0605
17178TIP3    H173025   0.712   0.157  33.078 -0.9071 -2.6530 -5.3009
17178TIP3    H273026   0.666   0.045  33.169 -0.8648  0.7827 -0.6854
17179TIP3   OH273027   0.891   3.399  36.020  0.4982  0.0258 -0.0287
17179TIP3    H173028   0.888   3.402  35.925  0.8705  2.1597 -0.0302
17179TIP3    H273029   0.815   3.346  36.046 -0.4481  0.6255 -1.4744
17180TIP3   OH273030   0.712   0.561  13.591 -0.4300 -0.1734  0.4831
17180TIP3    H173031   0.732   0.502  13.664 -0.9336 -0.4293  0.4161
17180TIP3    H273032   0.620   0.545  13.572 -0.8700  1.3762  1.1565
17181TIP3   OH273033   3.099   3.500  40.961  0.6242  0.1799 -0.3949
17181TIP3    H173034   3.149   3.580  40.975 -2.8586  2.2685  1.4254
17181TIP3    H273035   3.056   3.512  40.877 -1.0748  1.0172  0.5464
17182TIP3   OH273036   2.500   2.521  18.824 -0.4639  0.3329  0.3527
17182TIP3    H173037   2.484   2.564  18.908 -3.5704  0.7075 -0.3236
17182TIP3    H273038   2.536   2.435  18.847 -2.4474 -0.0807  2.1620
17183TIP3   OH273039   1.922   3.661  10.798  0.2364 -0.0442 -0.0947
17183TIP3    H173040   1.979   3.727  10.760 -1.2018  2.0409  1.1650
17183TIP3    H273041   1.979   3.612  10.859  1.4592 -0.4454 -1.5064
17184TIP3   OH273042   0.072   1.727  31.871  0.8558 -0.2327 -0.1393
17184TIP3    H173043   0.068   1.772  31.786  0.3768 -2.0111 -1.1210
17184TIP3    H273044   0.154   1.756  31.910  1.4193  0.1094 -1.5204
17185TIP3   OH273045   1.712   2.151  32.943 -0.0163  0.2615  0.2168
17185TIP3    H173046   1.743   2.231  32.985  1.1367  0.4996 -1.0522
17185TIP3    H273047   1.668   2.181  32.864 -0.5664 -0.2996  0.3040
17186TIP3   OH273048   2.141   3.956  44.012 -0.1377 -0.1474 -0.4273
17186TIP3    H173049   2.143   3.880  44.069 -0.6424  0.0348 -0.1629
17186TIP3    H273050   2.161   4.030  44.070 -1.0799  0.0918 -0.3881
17187TIP3   OH273051   1.638   2.172  39.751  0.0272  0.3227  0.6938
17187TIP3    H173052   1.611   2.200  39.838 -0.1056  1.1925  0.3917
17187TIP3    H273053   1.727   2.140  39.762 -0.1063  0.1248  1.2051
17188TIP3   OH273054   4.020   3.910  32.606  0.2122  1.0343  0.3128
17188TIP3    H173055   4.040   3.882  32.517 -1.7147  1.8849 -0.4491
17188TIP3    H273056   4.105   3.918  32.649  1.1075 -0.4936 -1.0936
17189TIP3   OH273057   3.021   3.704   3.061  0.1299 -0.0591  0.3899
17189TIP3    H173058   3.093   3.705   3.124  0.5424  0.9953 -0.0670
17189TIP3    H273059   2.985   3.616   3.066  1.6906 -0.7233  0.3654
17190TIP3   OH273060   2.997   1.764   9.084 -0.4811 -0.2150 -0.0042
17190TIP3    H173061   2.976   1.853   9.112 -2.1574  0.1332 -2.0584
17190TIP3    H273062   3.060   1.733   9.148  0.2003  2.4605  0.7712
17191TIP3   OH273063   0.387   0.912  14.468 -0.1623  0.4746  0.2640
17191TIP3    H173064   0.322   0.845  14.489  0.6922 -0.1136  1.0770
17191TIP3    H273065   0.351   0.956  14.390 -0.2913 -1.5033 -0.8471
17192TIP3   OH273066   2.849   1.574  22.386 -0.5784 -0.7714  0.5710
17192TIP3    H173067   2.938   1.597  22.358 -0.3807 -2.8483 -0.7325
17192TIP3    H273068   2.799   1.572  22.304 -1.9435  0.6759  1.3221
17193TIP3   OH273069   2.429   2.958  41.697 -0.8392 -0.4235 -0.1364
17193TIP3    H173070   2.464   2.881  41.652 -0.8504 -0.0088 -0.8864
17193TIP3    H273071   2.507   3.008  41.721 -0.8644  0.4466 -1.7078
17194TIP3   OH273072   3.944   2.792   4.827  0.3476 -0.5265 -0.5537
17194TIP3    H173073   3.869   2.790   4.886  1.5782 -1.3972  1.0465
17194TIP3    H273074   3.922   2.727   4.759 -0.2045 -1.0134  0.0720
17195TIP3   OH273075   1.483   2.637  44.187 -0.4011 -0.1985 -0.4832
17195TIP3    H173076   1.552   2.580  44.222 -1.0916 -1.5673 -1.2369
17195TIP3    H273077   1.443   2.585  44.116 -2.4414  0.3625  0.1776
17196TIP3   OH273078   1.121   0.670  10.818 -0.1412 -0.0759 -0.4170
17196TIP3    H173079   1.145   0.761  10.802  1.5649 -0.3012  0.5721
17196TIP3    H273080   1.130   0.628  10.732 -0.1374  0.5185 -0.7171
17197TIP3   OH273081   2.268   2.717   0.337  0.3901  0.0559  0.2264
17197TIP3    H173082   2.306   2.657   0.272  1.5068  1.4228 -0.4510
17197TIP3    H273083   2.326   2.793   0.336  0.0511  0.4138  2.3647
17198TIP3   OH273084   1.079   1.891  41.172  0.2658  0.4909 -0.0159
17198TIP3    H173085   1.021   1.873  41.246 -1.2238  0.0313 -1.2492
17198TIP3    H273086   1.115   1.978  41.189 -2.3631  1.6794 -0.1848
17199TIP3   OH273087   3.492   0.115  33.723 -0.1697  0.5249  0.0482
17199TIP3    H173088   3.471   0.035  33.675 -0.9272  1.1165 -0.6605
17199TIP3    H273089   3.585   0.109  33.742  0.1205  0.1656 -1.3616
17200TIP3   OH273090   1.971   1.836  13.309 -0.3033  0.3168 -0.1532
17200TIP3    H173091   1.958   1.772  13.239  1.1975 -1.4052  1.0643
17200TIP3    H273092   1.973   1.785  13.389  0.9028  1.8764  0.8777
17201TIP3   OH273093   1.125   2.261  40.705  0.4265 -0.0953  0.0220
17201TIP3    H173094   1.172   2.324  40.651  0.7295  1.2898  1.7937
17201TIP3    H273095   1.052   2.231  40.650  0.8914  0.9968 -1.2341
17202TIP3   OH273096   3.063   1.891  11.543  0.0664  0.0833  0.5139
17202TIP3    H173097   3.027   1.940  11.469  0.3407  0.9416  0.9254
17202TIP3    H273098   3.084   1.805  11.508 -0.6726  0.1784 -0.1747
17203TIP3   OH273099   2.366   3.625   4.394  0.1491 -0.3650 -0.5024
17203TIP3    H173100   2.348   3.717   4.414 -0.3202 -0.8143  1.4173
17203TIP3    H273101   2.458   3.623   4.369 -0.0008  0.7069 -1.1952
17204TIP3   OH273102   0.210   1.814  35.862 -0.2742 -0.2308  0.2434
17204TIP3    H173103   0.185   1.840  35.773  4.0855  2.4827 -0.5124
17204TIP3    H273104   0.245   1.726  35.852  0.1132  0.0201 -0.7972
17205TIP3   OH273105   1.475   1.732  39.247 -0.1779 -0.2562  0.8674
17205TIP3    H173106   1.507   1.822  39.258  1.3887 -0.9858  2.8838
17205TIP3    H273107   1.493   1.690  39.331 -0.2520 -2.6421 -0.2358
17206TIP3   OH273108   1.574   0.040  31.291  0.3611  1.1089  0.0581
17206TIP3    H173109   1.483   0.012  31.280 -0.2212  2.9292  0.0404
17206TIP3    H273110   1.570   0.113  31.351  1.6177  2.3033 -1.2249
17207TIP3   OH273111   3.478   2.507  40.358 -0.4363 -0.1927 -0.0954
17207TIP3    H173112   3.438   2.431  40.398  1.9624 -1.2945  0.3858
17207TIP3    H273113   3.550   2.472  40.306  1.2117  1.7543  0.7125
17208TIP3   OH273114   2.240   0.534   5.035  0.1218  0.1459 -0.4567
17208TIP3    H173115   2.317   0.516   4.982 -0.7359  1.1883 -2.1412
17208TIP3    H273116   2.264   0.505   5.123  1.5004 -1.9384 -1.4379
17209TIP3   OH273117   3.930   3.230  15.754  0.0903  0.3339 -0.1923
17209TIP3    H173118   4.021   3.211  15.778 -0.3073  0.6323  1.7020
17209TIP3    H273119   3.931   3.235  15.658  1.8209 -0.8854 -0.2863
17210TIP3   OH273120   3.202   3.344  39.568 -0.7315  0.3746 -0.0869
17210TIP3    H173121   3.109   3.334  39.585 -0.6135  0.1066  0.4160
17210TIP3    H273122   3.244   3.326  39.652 -0.1649 -0.5261 -0.5402
17211TIP3   OH273123   2.662   3.889  27.411  0.4603 -0.8469 -0.0884
17211TIP3    H173124   2.660   3.920  27.501  0.2859 -1.9977  0.3211
17211TIP3    H273125   2.570   3.878  27.387  0.4319  0.8971 -0.9526
17212TIP3   OH273126   0.956   0.801  33.862  0.1169 -0.4796 -0.1051
17212TIP3    H173127   1.024   0.781  33.797 -0.0915 -0.4861 -0.3199
17212TIP3    H273128   0.916   0.882  33.830  1.3390  0.6434  1.0494
17213TIP3   OH273129   2.608   1.139  15.259 -0.2039 -0.6232  0.2425
17213TIP3    H173130   2.580   1.214  15.312  1.2942  1.1083 -1.2901
17213TIP3    H273131   2.663   1.087  15.318 -0.1184  0.2394  0.9442
17214TIP3   OH273132   0.853   2.596  42.279  0.4470  0.0810  0.1184
17214TIP3    H173133   0.791   2.523  42.274  1.0243 -0.3362 -1.7052
17214TIP3    H273134   0.809   2.668  42.234  1.6913 -0.6078 -2.4259
17215TIP3   OH273135   0.065   1.710   5.345 -0.0585 -0.3299 -0.4071
17215TIP3    H173136   0.059   1.646   5.417 -0.1760 -2.9907 -2.6361
17215TIP3    H273137   0.019   1.787   5.378  0.2999 -1.2379  2.5270
17216TIP3   OH273138   2.290   1.923  37.957  0.2679 -0.2264 -0.6786
17216TIP3    H173139   2.198   1.938  37.976  0.4628  0.6739 -0.4278
17216TIP3    H273140   2.331   1.911  38.042  0.4085 -0.5172 -0.7813
17217TIP3   OH273141   0.009   0.418  46.255 -0.1430 -0.4540 -0.1216
17217TIP3    H173142   0.094   0.378  46.236  0.5354  0.8856  0.0457
17217TIP3    H273143  -0.046   0.392  46.181  0.4536 -1.1782 -0.3273
17218TIP3   OH273144   3.653   3.263  44.716 -0.3781  0.9145 -0.6808
17218TIP3    H173145   3.569   3.234  44.752 -0.0577  1.8979  0.9684
17218TIP3    H273146   3.717   3.234  44.781  0.5051  0.7535 -1.5993
17219TIP3   OH273147   0.709   2.401  11.610 -0.3935 -0.0707 -0.1973
17219TIP3    H173148   0.750   2.332  11.662  0.9650  0.6807 -0.2033
17219TIP3    H273149   0.681   2.466  11.674  2.3267  1.4008 -0.3712
17220TIP3   OH273150   0.673   3.907  12.150 -0.0747 -0.1020  0.3543
17220TIP3    H173151   0.607   3.840  12.133  1.6583 -1.4702 -1.5661
17220TIP3    H273152   0.730   3.869  12.217 -0.7678  0.7428  1.4415
17221TIP3   OH273153   0.007   0.408  10.015 -0.4706 -0.1801 -0.1352
17221TIP3    H173154  -0.045   0.329   9.998  0.8626 -0.9257 -0.9663
17221TIP3    H273155   0.084   0.398   9.959  0.2246  1.2292  0.5200
17222TIP3   OH273156   1.175   2.427   1.304 -0.2559  0.0113  0.4911
17222TIP3    H173157   1.172   2.409   1.210 -0.7771  0.1507  0.4794
17222TIP3    H273158   1.086   2.456   1.326 -0.0335  0.3636  0.9470
17223TIP3   OH273159   1.835   3.850  43.206 -0.4905 -0.4599 -0.2079
17223TIP3    H173160   1.750   3.817  43.233 -2.1250  2.2853 -1.5278
17223TIP3    H273161   1.855   3.920  43.268 -0.0349  0.0395 -0.8962
17224TIP3   OH273162   1.914   3.766  28.392 -0.1447  0.1592  0.3261
17224TIP3    H173163   1.970   3.794  28.464  2.1678 -1.8232 -0.5580
17224TIP3    H273164   1.966   3.781  28.313 -1.3070 -0.6861 -0.6497
17225TIP3   OH273165   2.623   3.020  44.641 -0.1087  0.2381 -0.2813
17225TIP3    H173166   2.535   3.005  44.606 -0.8905  3.1363  0.1680
17225TIP3    H273167   2.622   2.977  44.727 -0.9920 -0.0069 -0.4083
17226TIP3   OH273168   0.721   1.525  34.137  0.0642 -0.3667  0.2968
17226TIP3    H173169   0.773   1.461  34.087  1.0165  0.5735  0.0484
17226TIP3    H273170   0.775   1.604  34.138 -0.6049  0.0996  1.5505
17227TIP3   OH273171   3.101   2.993  33.205  0.0297  0.0190  0.3127
17227TIP3    H173172   3.035   2.950  33.258  0.0616 -0.1643  0.2069
17227TIP3    H273173   3.117   2.932  33.133 -0.6735  0.6689 -0.4101
17228TIP3   OH273174   1.677   1.001   6.679 -0.0137 -0.0281 -0.0835
17228TIP3    H173175   1.702   1.061   6.748  1.2113  0.5851 -1.0307
17228TIP3    H273176   1.630   1.055   6.615  0.6165 -0.1658 -0.6783
17229TIP3   OH273177   0.361   1.573  44.587  0.6935 -0.6987 -0.3205
17229TIP3    H173178   0.361   1.490  44.540 -1.5456 -0.9184 -0.0438
17229TIP3    H273179   0.271   1.606  44.578  1.3085  1.2866  0.2866
17230TIP3   OH273180   1.756   1.907  36.904 -0.0621 -0.3479 -0.1434
17230TIP3    H173181   1.673   1.930  36.944 -0.0200 -0.3718 -0.0428
17230TIP3    H273182   1.737   1.830  36.850 -0.3890  0.4214 -1.1425
17231TIP3   OH273183   1.557   2.070  45.159  0.8056 -0.6956  0.1407
17231TIP3    H173184   1.557   2.165  45.151  1.6847 -0.3201  3.3225
17231TIP3    H273185   1.620   2.040  45.093  0.8613  0.9304 -0.5945
17232TIP3   OH273186   3.360   2.576  31.503  0.1396 -0.8944  0.0490
17232TIP3    H173187   3.417   2.615  31.569  1.6688 -1.0016 -1.1380
17232TIP3    H273188   3.304   2.515  31.551  0.4196 -0.1354  1.3761
17233TIP3   OH273189   2.134   3.081   2.576 -0.8975  0.1842  0.4235
17233TIP3    H173190   2.130   3.166   2.620  0.8095  1.2878 -1.3695
17233TIP3    H273191   2.218   3.044   2.603 -0.5757  0.1480 -0.5743
17234TIP3   OH273192   0.953   0.827  15.837  0.6867  0.0000 -0.2659
17234TIP3    H173193   0.882   0.822  15.772  1.2235  1.4004 -1.0024
17234TIP3    H273194   0.918   0.884  15.905  0.2595 -1.1835  0.5443
17235TIP3   OH273195   3.281   1.893   9.950 -0.0806  0.9463 -0.2649
17235TIP3    H173196   3.289   1.805   9.915 -0.8359  1.8173 -2.8305
17235TIP3    H273197   3.370   1.927   9.949 -0.0941  1.0086 -1.6461
17236TIP3   OH273198   0.310   2.445  10.077  0.3891  0.0551  0.3422
17236TIP3    H173199   0.342   2.392  10.150  0.0104  0.5655  0.8899
17236TIP3    H273200   0.300   2.533  10.114  0.0564  0.2869 -0.2872
17237TIP3   OH273201   1.451   0.450  37.765  0.5623 -0.2642  0.1536
17237TIP3    H173202   1.475   0.360  37.746  1.2983  0.3510 -2.1806
17237TIP3    H273203   1.526   0.486  37.814  0.5428 -0.7238  0.5258
17238TIP3   OH273204   3.759   0.141   6.694  0.2929 -0.3790 -0.5354
17238TIP3    H173205   3.720   0.200   6.759  0.4006 -0.5137 -0.3488
17238TIP3    H273206   3.807   0.200   6.635 -0.5750 -0.1635 -1.0504
17239TIP3   OH273207   1.215   0.638   2.577 -0.0310  0.5144  0.3636
17239TIP3    H173208   1.146   0.572   2.585  0.5046 -0.0888  0.0459
17239TIP3    H273209   1.252   0.644   2.666 -1.1786  1.6226  0.8032
17240TIP3   OH273210   2.848   3.728  41.102 -0.5466 -0.3125  0.1908
17240TIP3    H173211   2.939   3.716  41.073 -0.5829 -1.6881  0.5681
17240TIP3    H273212   2.854   3.731  41.198 -0.8584  0.0289  0.2016
17241TIP3   OH273213   1.087   1.282  33.384  0.2180 -0.4286 -0.2584
17241TIP3    H173214   1.085   1.257  33.476 -1.6562 -0.4689 -0.2753
17241TIP3    H273215   1.113   1.374  33.384  0.2873 -0.4489  0.2980
17242TIP3   OH273216   0.626   2.010  39.661  0.1849 -0.9684 -0.7996
17242TIP3    H173217   0.645   1.993  39.569 -1.0200 -1.7611 -0.9302
17242TIP3    H273218   0.607   1.924  39.698  1.1471 -0.7200  0.3209
17243TIP3   OH273219   3.759   0.145  34.835 -0.2603 -0.1109  0.0377
17243TIP3    H173220   3.704   0.223  34.840  2.1127  1.6802  0.0175
17243TIP3    H273221   3.824   0.158  34.905 -0.9095 -3.0627  1.3264
17244TIP3   OH273222   0.115   1.801   7.435 -0.3241 -0.5622  0.2173
17244TIP3    H173223   0.123   1.895   7.419  0.4333 -0.5904  0.3901
17244TIP3    H273224   0.100   1.794   7.530  0.4631 -0.6535  0.3389
17245TIP3   OH273225   1.879   1.066  12.352 -0.0940 -0.6263  0.2059
17245TIP3    H173226   1.929   1.122  12.413  0.7188  2.2610 -2.8012
17245TIP3    H273227   1.792   1.059  12.391  0.1962  1.6730  1.4271
17246TIP3   OH273228   3.664   0.063  11.782 -0.0915 -0.4213  0.2501
17246TIP3    H173229   3.755   0.091  11.768  0.0653 -1.0835 -0.1125
17246TIP3    H273230   3.672  -0.026  11.817 -0.5995 -0.4750  0.2277
17247TIP3   OH273231   2.220   1.803  17.569 -0.2580 -0.7369 -0.7628
17247TIP3    H173232   2.144   1.772  17.618 -1.0211  0.1242 -1.3703
17247TIP3    H273233   2.220   1.898  17.583 -0.1588 -0.5506 -1.9552
17248TIP3   OH273234   2.378   2.524  11.926 -0.4959  0.1857  0.2491
17248TIP3    H173235   2.437   2.570  11.986 -0.9684  0.2503  0.6683
17248TIP3    H273236   2.412   2.434  11.924 -0.4240  0.2064  0.5417
17249TIP3   OH273237   2.750   0.297  35.592 -0.4295 -0.4351 -0.3074
17249TIP3    H173238   2.654   0.287  35.592 -0.3437 -1.2803 -0.8480
17249TIP3    H273239   2.779   0.252  35.513  0.4162 -0.1366 -0.1705
17250TIP3   OH273240   2.220   2.492  13.075  0.1328 -0.1480 -0.5132
17250TIP3    H173241   2.268   2.567  13.109 -2.0993  0.8422  0.6529
17250TIP3    H273242   2.277   2.457  13.006  3.6157 -0.5972  2.2853
17251TIP3   OH273243   3.344   3.436  40.664  0.7832  0.0196  0.0755
17251TIP3    H173244   3.318   3.477  40.746  0.1075  0.5154 -0.3793
17251TIP3    H273245   3.438   3.457  40.656  0.8794 -0.1319  0.7647
17252TIP3   OH273246   3.277   1.643   2.465 -0.3414 -0.3547  0.3153
17252TIP3    H173247   3.287   1.598   2.381 -0.5872  2.4499 -1.3636
17252TIP3    H273248   3.183   1.642   2.482 -0.3285 -0.6219  0.3666
17253TIP3   OH273249   0.135   1.127  15.956  0.0790  0.0341 -0.1834
17253TIP3    H173250   0.210   1.101  15.903  0.8388  0.3945  0.6824
17253TIP3    H273251   0.072   1.162  15.892  0.2770 -1.0532 -1.0114
17254TIP3   OH273252   0.734   3.808   4.116 -0.3469 -0.6539  0.0145
17254TIP3    H173253   0.678   3.731   4.124 -0.0028 -0.8208  0.9792
17254TIP3    H273254   0.758   3.830   4.206  1.9902 -1.2215 -0.3959
17255TIP3   OH273255   3.018   1.928  31.482 -0.0669  0.4830  0.0742
17255TIP3    H173256   2.930   1.903  31.455 -0.5921  2.7687 -0.5996
17255TIP3    H273257   3.022   1.907  31.575 -1.2384  0.1463  0.0598
17256TIP3   OH273258   3.510   2.411   6.747  0.1489 -0.2928  0.2452
17256TIP3    H173259   3.429   2.380   6.788 -0.7990 -0.1609 -1.4569
17256TIP3    H273260   3.578   2.353   6.783 -1.1278 -2.3644 -0.4808
17257TIP3   OH273261   2.680   3.645  47.554 -0.1281 -0.5713  0.2744
17257TIP3    H173262   2.686   3.740  47.565 -2.7949 -0.1635 -0.9392
17257TIP3    H273263   2.648   3.634  47.464 -0.4341 -2.5764  0.5901
17258TIP3   OH273264   1.644   3.515  12.841  0.0500 -0.0689 -0.0309
17258TIP3    H173265   1.715   3.580  12.847 -0.8768  0.8713  1.2360
17258TIP3    H273266   1.689   3.434  12.817  1.1126  1.2216 -2.8110
17259TIP3   OH273267   0.754   1.003  45.337  0.4296  0.1285 -0.1048
17259TIP3    H173268   0.705   1.077  45.301  0.6320 -0.5980 -1.9693
17259TIP3    H273269   0.785   1.034  45.422  1.1155  2.4788 -1.1120
17260TIP3   OH273270   0.888   1.879  42.987  0.1744  0.2905  0.1162
17260TIP3    H173271   0.829   1.946  43.022  0.2331 -0.0054  0.8168
17260TIP3    H273272   0.833   1.801  42.978  0.9130 -0.7202  3.1252
17261TIP3   OH273273   4.023   3.935  37.689  0.1814 -0.2408  0.5785
17261TIP3    H173274   4.070   4.015  37.669 -0.4940  0.0900  0.2767
17261TIP3    H273275   4.091   3.873  37.716  0.7165  0.4026  0.7336
17262TIP3   OH273276   2.490   1.621  32.978 -0.2118  0.2235  0.1038
17262TIP3    H173277   2.530   1.691  32.927 -1.1229  0.0984 -0.8272
17262TIP3    H273278   2.563   1.565  33.005  0.3263  0.4763 -0.7863
17263TIP3   OH273279   3.511   1.602  12.390  0.0736 -0.4108 -0.2803
17263TIP3    H173280   3.578   1.633  12.451  0.4291  1.9544 -1.7854
17263TIP3    H273281   3.558   1.544  12.330  0.0522 -1.4219  0.6495
17264TIP3   OH273282   0.029   1.286   5.962  0.1285 -0.0513 -0.6738
17264TIP3    H173283   0.106   1.249   6.005  0.8391 -0.5690 -2.3015
17264TIP3    H273284   0.065   1.342   5.893 -0.9308 -0.9526 -1.9998
17265TIP3   OH273285   2.690   0.533   1.242 -0.1618 -0.0156 -0.1975
17265TIP3    H173286   2.730   0.577   1.166  1.8280 -0.0382  0.7631
17265TIP3    H273287   2.638   0.601   1.285 -1.3366 -0.0099 -1.5583
17266TIP3   OH273288   0.951   3.145   3.207  0.7614  0.8371  0.3733
17266TIP3    H173289   0.917   3.153   3.118  0.2099 -0.4151  0.4419
17266TIP3    H273290   1.017   3.214   3.214  0.7324  1.0332 -0.9609
17267TIP3   OH273291   1.239   2.979  38.200 -0.0127  0.3574  0.6464
17267TIP3    H173292   1.212   3.065  38.169  0.3584  0.6234  1.0593
17267TIP3    H273293   1.275   2.994  38.287  1.8289  0.0930 -0.0087
17268TIP3   OH273294   2.424   2.873  13.074 -0.9735 -0.3800 -0.6573
17268TIP3    H173295   2.446   2.966  13.082 -2.2888  0.0703 -1.8291
17268TIP3    H273296   2.451   2.850  12.985  0.0392 -1.3389 -0.1191
17269TIP3   OH273297   2.956   3.882  27.337 -0.3066 -0.1699 -0.0908
17269TIP3    H173298   2.864   3.862  27.355 -0.1183 -0.1793  0.9738
17269TIP3    H273299   2.976   3.833  27.258 -0.5389 -2.2462  1.0739
17270TIP3   OH273300   3.408   3.555  35.910 -0.4521  0.5359  0.1948
17270TIP3    H173301   3.472   3.583  35.844  0.4662 -1.0496  0.3562
17270TIP3    H273302   3.459   3.547  35.990 -0.8498 -0.6245  0.3536
17271TIP3   OH273303   0.274   0.593   5.029 -0.1828 -0.0761  0.1292
17271TIP3    H173304   0.338   0.555   5.090 -0.7210 -0.5338  0.4201
17271TIP3    H273305   0.192   0.596   5.079 -0.4905  0.0999 -0.3815
17272TIP3   OH273306   2.653   1.125  12.309 -0.3994  0.7146 -0.4410
17272TIP3    H173307   2.581   1.183  12.285 -1.7390 -0.6274  0.1130
17272TIP3    H273308   2.690   1.165  12.388  0.1481  1.9585 -1.3049
17273TIP3   OH273309   3.268   3.455  45.092  0.2871 -0.0822 -0.4170
17273TIP3    H173310   3.312   3.461  45.177 -1.6471 -0.3640  0.6599
17273TIP3    H273311   3.174   3.461  45.113 -0.2188  0.6227 -2.6072
17274TIP3   OH273312   2.393   2.902  46.491 -0.4154  0.2400 -0.2753
17274TIP3    H173313   2.335   2.870  46.422  0.4837  0.5816 -1.2028
17274TIP3    H273314   2.373   2.995  46.498 -1.2934 -0.0045  0.7229
17275TIP3   OH273315   2.504   3.681  25.748  0.5499  0.2854  0.6083
17275TIP3    H173316   2.597   3.662  25.754  0.9014  0.5011 -2.4575
17275TIP3    H273317   2.469   3.614  25.690 -0.5887  1.8413 -0.6068
17276TIP3   OH273318   1.159   0.298  32.384  0.1877  0.1339  0.3318
17276TIP3    H173319   1.108   0.275  32.462  0.7559 -1.4266  0.2805
17276TIP3    H273320   1.185   0.389  32.398 -1.4105  0.5196  1.0074
17277TIP3   OH273321   1.342   3.777   5.883 -0.0969  0.7282  1.0760
17277TIP3    H173322   1.367   3.691   5.919 -1.2556  0.0404  0.2971
17277TIP3    H273323   1.355   3.838   5.956  0.3693 -0.1652  1.7652
17278TIP3   OH273324   1.352   0.959   0.004  0.3892  0.1318 -0.3484
17278TIP3    H173325   1.300   0.968  -0.076  0.8584 -1.6788 -0.9104
17278TIP3    H273326   1.299   0.901   0.060  0.9107 -0.1455 -0.1319
17279TIP3   OH273327   3.010   2.425   8.874  0.3924  0.0832  0.0309
17279TIP3    H173328   3.043   2.496   8.929  0.3600  0.1145  0.0100
17279TIP3    H273329   2.915   2.436   8.874  0.4037  0.1896 -0.1729
17280TIP3   OH273330   3.895   2.491  45.538 -0.1523  0.4654 -0.0625
17280TIP3    H173331   3.862   2.580  45.528 -1.4456 -0.2858 -4.5647
17280TIP3    H273332   3.989   2.498  45.522 -0.6883  0.7907 -3.8041
17281TIP3   OH273333   0.798   2.530   5.191 -0.2708 -0.1848  0.4429
17281TIP3    H173334   0.738   2.590   5.147  0.0613  1.1581  1.7503
17281TIP3    H273335   0.877   2.530   5.137 -0.1646  0.7988  0.5894
17282TIP3   OH273336   2.951   2.292  33.674 -0.6466 -0.5263  0.9131
17282TIP3    H173337   2.994   2.353  33.734  0.1140 -0.2615  0.1094
17282TIP3    H273338   3.011   2.218  33.667 -1.9647 -1.8339  2.5917
17283TIP3   OH273339   0.129   1.325  41.937  0.6155  0.1899  0.2828
17283TIP3    H173340   0.110   1.414  41.965  2.0511  0.6802 -0.2652
17283TIP3    H273341   0.222   1.312  41.955  0.0810 -1.8874  2.1725
17284TIP3   OH273342   0.739   1.985  45.835  0.1056 -0.2561 -0.0792
17284TIP3    H173343   0.779   2.039  45.767 -0.2301  0.5240  0.3271
17284TIP3    H273344   0.790   1.904  45.834  1.3954  0.5188  0.0982
17285TIP3   OH273345   2.608   1.396  43.851 -0.3668  0.9155 -0.0584
17285TIP3    H173346   2.615   1.489  43.829 -2.4482  1.4038  1.0838
17285TIP3    H273347   2.526   1.368  43.811 -0.4046 -0.1017  0.6923
17286TIP3   OH273348   2.505   1.420  45.713 -0.0636  0.5548  0.5445
17286TIP3    H173349   2.468   1.379  45.791 -0.3997  1.4631  0.8816
17286TIP3    H273350   2.583   1.465  45.744  0.9381 -0.7150 -0.0237
17287TIP3   OH273351   0.615   0.708  35.937 -0.3015 -0.0622 -0.3497
17287TIP3    H173352   0.597   0.621  35.971 -2.8040  1.1712  1.8852
17287TIP3    H273353   0.651   0.756  36.012  0.9588  0.8771 -1.5122
17288TIP3   OH273354   0.722   0.417  44.637  0.1964  0.6506  0.0679
17288TIP3    H173355   0.727   0.506  44.674 -2.1339  2.0724 -2.6315
17288TIP3    H273356   0.641   0.381  44.671 -1.0964  1.3244 -2.1116
17289TIP3   OH273357   1.566   3.072  40.847 -0.0214 -0.1177  0.5230
17289TIP3    H173358   1.579   2.987  40.888  0.7463 -0.7227 -0.8976
17289TIP3    H273359   1.542   3.130  40.919  0.5826 -1.2769  1.6979
17290TIP3   OH273360   0.396   2.258   0.344  0.1470 -0.1315 -0.7767
17290TIP3    H173361   0.320   2.271   0.400  1.1575  2.1952  0.2059
17290TIP3    H273362   0.468   2.244   0.405  1.0285  1.0459 -1.5026
17291TIP3   OH273363   2.170   1.516  13.288  0.1057  0.1070 -0.6426
17291TIP3    H173364   2.076   1.501  13.294 -0.1884  1.9201 -0.0752
17291TIP3    H273365   2.196   1.540  13.378  0.9432  0.4505 -0.9634
17292TIP3   OH273366   1.595   0.030   7.174  0.2021  0.0281  0.3637
17292TIP3    H173367   1.539   0.043   7.251 -0.8056 -0.4347 -0.2800
17292TIP3    H273368   1.535   0.017   7.102  1.1463 -1.0787 -0.2555
17293TIP3   OH273369   2.466   1.916  38.803 -0.3500 -0.0558 -0.1449
17293TIP3    H173370   2.493   1.919  38.895  2.5551 -2.2873 -0.7848
17293TIP3    H273371   2.548   1.921  38.754 -1.5538 -1.6806 -2.5094
17294TIP3   OH273372   2.796   2.050   2.745  0.3608  0.2965  0.0430
17294TIP3    H173373   2.701   2.038   2.755  0.0187 -1.5667 -3.6331
17294TIP3    H273374   2.805   2.138   2.711  0.2205  1.1292  1.9979
17295TIP3   OH273375   0.431   1.225  39.047  0.4664  0.1609 -0.2445
17295TIP3    H173376   0.372   1.287  39.004 -0.8619 -1.0161 -0.2012
17295TIP3    H273377   0.468   1.173  38.975 -3.0131 -2.9208 -0.1300
17296TIP3   OH273378   1.270   3.841  14.626 -0.3613 -0.4023 -0.1764
17296TIP3    H173379   1.179   3.844  14.656 -0.3619  1.0132 -0.2652
17296TIP3    H273380   1.266   3.864  14.533  0.2616  2.0932  0.3290
17297TIP3   OH273381   2.836   0.407  10.105 -0.6935  0.0150 -0.8856
17297TIP3    H173382   2.755   0.368  10.073 -0.9068 -0.0291 -0.3106
17297TIP3    H273383   2.905   0.349  10.075 -1.0641 -1.2885  0.6459
17298TIP3   OH273384   2.160   1.378   9.023 -0.2673  0.2779  0.0839
17298TIP3    H173385   2.184   1.467   9.048  0.4801 -0.0866  0.7624
17298TIP3    H273386   2.243   1.329   9.030 -0.4930 -0.2976 -1.0820
17299TIP3   OH273387   3.044   0.062  30.399  0.1738  0.1357  0.2101
17299TIP3    H173388   3.050   0.023  30.312 -0.0932  1.9159 -0.6512
17299TIP3    H273389   2.961   0.031  30.434  1.4501 -2.7011  0.9655
17300TIP3   OH273390   0.578   0.795  41.609  0.1468 -0.2591  0.2806
17300TIP3    H173391   0.511   0.861  41.626  1.3068  1.1118 -0.2971
17300TIP3    H273392   0.657   0.845  41.588  0.8856 -1.8333 -0.8997
17301TIP3   OH273393   2.714   3.038  33.002 -0.7172 -0.1909 -0.1329
17301TIP3    H173394   2.680   3.103  33.064  0.3931  0.7671 -0.4816
17301TIP3    H273395   2.696   3.076  32.916  0.8516  0.1700 -0.3285
17302TIP3   OH273396   2.394   3.336   3.627  0.0108  0.4767 -0.1499
17302TIP3    H173397   2.360   3.376   3.708  1.2546 -0.6350  0.9758
17302TIP3    H273398   2.321   3.282   3.596  0.2120 -0.8713  1.5243
17303TIP3   OH273399   0.216   1.261   0.169 -0.8026  0.2227  0.6025
17303TIP3    H173400   0.264   1.306   0.100 -0.8549  0.2197  0.5641
17303TIP3    H273401   0.281   1.242   0.236 -0.8537  0.6990  0.7905
17304TIP3   OH273402   1.227   3.698  26.596 -0.2236  0.0026 -0.1957
17304TIP3    H173403   1.208   3.749  26.518 -1.0290  0.9286  0.5723
17304TIP3    H273404   1.323   3.701  26.604  0.0498 -1.5761 -2.0637
17305TIP3   OH273405   2.380   2.737  12.364  0.2517 -0.4018 -0.2511
17305TIP3    H173406   2.360   2.678  12.291  0.5727 -1.4761  0.5057
17305TIP3    H273407   2.380   2.680  12.441 -3.4709  1.1892  1.1657
17306TIP3   OH273408   1.245   0.759   1.985 -0.0193 -0.2350  0.5521
17306TIP3    H173409   1.213   0.764   1.895 -0.4839  1.3108  0.7726
17306TIP3    H273410   1.336   0.734   1.977  0.8801  2.9136 -0.6011
17307TIP3   OH273411   2.335   1.858  10.742 -0.6202 -0.3454 -0.6132
17307TIP3    H173412   2.244   1.879  10.761 -0.4015  1.3251 -1.2452
17307TIP3    H273413   2.384   1.935  10.770  0.5346 -0.9442 -0.9095
17308TIP3   OH273414   0.502   0.114   7.591  0.7902 -0.6100  0.0830
17308TIP3    H173415   0.503   0.040   7.531 -0.4320  0.2232 -1.0135
17308TIP3    H273416   0.589   0.114   7.631  1.2051 -1.9232 -0.7600
17309TIP3   OH273417   2.745   1.639  34.655 -0.2183 -1.0361 -0.3187
17309TIP3    H173418   2.787   1.690  34.585 -0.2589  1.0649  1.0852
17309TIP3    H273419   2.734   1.702  34.726 -2.6033 -2.4090  0.6308
17310TIP3   OH273420   1.800   1.452   7.868 -0.0918  0.5177  0.4154
17310TIP3    H173421   1.834   1.401   7.795 -2.1101  1.8571 -1.5702
17310TIP3    H273422   1.861   1.435   7.939  1.0284 -2.1847 -1.0411
17311TIP3   OH273423   1.273   1.097  37.208  0.1816 -0.0434 -0.3573
17311TIP3    H173424   1.238   1.020  37.254  0.1349 -0.9560 -1.8395
17311TIP3    H273425   1.238   1.088  37.119 -1.1508  2.5691 -0.1909
17312TIP3   OH273426   2.664   2.452  39.480  0.7956  0.3326 -0.4425
17312TIP3    H173427   2.752   2.470  39.447 -0.0590  3.9939 -1.1633
17312TIP3    H273428   2.608   2.452  39.402  0.0461 -1.6775  0.0232
17313TIP3   OH273429   2.573   0.399   8.742  0.7131 -0.2886 -0.3695
17313TIP3    H173430   2.629   0.463   8.699  1.2159  0.3621  1.1763
17313TIP3    H273431   2.558   0.434   8.830  0.8547 -2.1880  0.4808
17314TIP3   OH273432   3.060   3.422  47.015 -0.3209 -0.0701 -0.0913
17314TIP3    H173433   3.113   3.343  47.023 -1.3256 -0.9852 -1.7582
17314TIP3    H273434   3.102   3.472  46.945 -1.3019 -0.5592 -1.0656
17315TIP3   OH273435   0.513   2.662  13.053  0.2505 -0.0756  0.3377
17315TIP3    H173436   0.449   2.599  13.021 -0.8742 -0.1467  2.5931
17315TIP3    H273437   0.523   2.724  12.981  0.1699 -1.8758 -1.3181
17316TIP3   OH273438   1.212   1.470   0.949  0.8726 -0.2958  0.1517
17316TIP3    H173439   1.141   1.530   0.972  1.8975  0.7600  0.6474
17316TIP3    H273440   1.167   1.391   0.920 -0.5143 -0.2266  1.9301
17317TIP3   OH273441   2.213   1.338  43.866  0.6342  1.0202 -0.2260
17317TIP3    H173442   2.227   1.412  43.925 -1.2823  0.7113  0.6841
17317TIP3    H273443   2.141   1.365  43.810  0.0504 -0.0631 -0.0212
17318TIP3   OH273444   3.845   0.447  46.118  0.0878 -0.0534  0.1196
17318TIP3    H173445   3.774   0.401  46.163  0.4821  0.5408  1.3940
17318TIP3    H273446   3.831   0.540  46.139  1.5418  0.0249  0.8816
17319TIP3   OH273447   1.694   1.470  16.807  0.1085  0.1578 -0.1744
17319TIP3    H173448   1.639   1.549  16.816 -1.0979 -0.7102  0.3089
17319TIP3    H273449   1.726   1.453  16.896 -1.3760 -1.0953  0.1503
17320TIP3   OH273450   2.189   2.164  34.281 -0.0053 -0.0573  0.6330
17320TIP3    H173451   2.146   2.174  34.366 -0.1455  2.2418  0.3404
17320TIP3    H273452   2.119   2.179  34.217  0.5869  0.6299  0.1378
17321TIP3   OH273453   1.072   3.493  14.467 -0.0680  0.2945  0.5789
17321TIP3    H173454   1.051   3.561  14.403 -0.7790  0.7185  1.2553
17321TIP3    H273455   1.028   3.521  14.547  2.8111  1.1251  2.0276
17322TIP3   OH273456   1.471   3.156  14.439  0.3913  0.1839 -0.1402
17322TIP3    H173457   1.433   3.152  14.351 -0.2329  2.2399 -0.0162
17322TIP3    H273458   1.420   3.223  14.484  0.9576 -0.5528  1.6882
17323TIP3   OH273459   0.135   3.324  34.593 -0.0245  0.9272  0.2271
17323TIP3    H173460   0.189   3.281  34.660 -1.7106 -1.3521  0.2435
17323TIP3    H273461   0.199   3.364  34.533  1.6124 -0.1970  1.1302
17324TIP3   OH273462   3.102   3.501   3.763 -0.2814 -0.4949  0.2743
17324TIP3    H173463   3.054   3.443   3.821 -0.4717  0.8454  1.5456
17324TIP3    H273464   3.145   3.563   3.823  2.5472 -1.2507 -0.8116
17325TIP3   OH273465   2.377   0.321  44.365 -0.7795 -0.5910 -0.2680
17325TIP3    H173466   2.303   0.371  44.398 -0.0335 -0.1764  0.8283
17325TIP3    H273467   2.366   0.234  44.404  0.9951  0.3433  2.6119
17326TIP3   OH273468   0.114   2.330  42.569 -0.3535 -0.7737 -0.1849
17326TIP3    H173469   0.070   2.261  42.518  0.6434 -2.2651  0.8785
17326TIP3    H273470   0.100   2.305  42.660  1.3451 -0.4537  0.1982
17327TIP3   OH273471   0.963   2.597   3.559 -0.5894  0.1676  0.2157
17327TIP3    H173472   1.014   2.564   3.485 -2.4477 -0.8808 -0.6511
17327TIP3    H273473   0.939   2.519   3.609 -1.7555  0.5843  0.3275
17328TIP3   OH273474   1.110   2.622  31.713  0.0345 -0.4222  0.1338
17328TIP3    H173475   1.079   2.535  31.737 -0.2923 -0.3197  0.0902
17328TIP3    H273476   1.167   2.648  31.785  0.3094 -0.7612  0.0439
17329TIP3   OH273477   1.331   1.228  47.406  0.3448 -0.0310 -0.2126
17329TIP3    H173478   1.394   1.157  47.393  0.9072 -0.1690  2.5776
17329TIP3    H273479   1.379   1.308  47.386  0.2852 -0.3160 -1.5422
17330TIP3   OH273480   2.414   3.192  36.338 -0.0704  0.3803  0.0513
17330TIP3    H173481   2.374   3.262  36.286  1.8686  1.3079 -0.2963
17330TIP3    H273482   2.379   3.111  36.300 -0.7074  1.1058 -0.9722
17331TIP3   OH273483   1.778   1.636  21.569  0.2220  0.4611 -0.0715
17331TIP3    H173484   1.780   1.599  21.481  1.1595  1.6453 -0.5753
17331TIP3    H273485   1.870   1.658  21.588 -0.0859  1.0150  0.8509
17332TIP3   OH273486   1.777   1.143  38.263  0.2177  0.0619  0.3311
17332TIP3    H173487   1.695   1.104  38.295 -0.7211  0.9321 -0.9116
17332TIP3    H273488   1.799   1.093  38.185  0.5287  0.2485  0.2975
17333TIP3   OH273489   0.593   1.501  18.336  1.0291 -0.3407 -0.2966
17333TIP3    H173490   0.611   1.591  18.361  0.4018  0.1538 -1.5721
17333TIP3    H273491   0.676   1.455  18.348  1.2681  0.3221  0.6613
17334TIP3   OH273492   0.038   2.585  39.445 -0.1226 -0.9682 -0.0879
17334TIP3    H173493   0.005   2.645  39.378  0.3361 -0.2209  0.3571
17334TIP3    H273494  -0.040   2.554  39.490 -0.2499  1.3681  1.4671
17335TIP3   OH273495   0.778   3.178  40.073  0.0361  0.5135  0.2006
17335TIP3    H173496   0.857   3.153  40.122  0.9730 -1.1055 -1.9763
17335TIP3    H273497   0.728   3.096  40.066 -0.7954  1.0546 -0.2738
17336TIP3   OH273498   1.856   3.064   1.931  0.2875  0.0604 -0.4927
17336TIP3    H173499   1.802   2.986   1.921 -0.9069  0.5897  1.2023
17336TIP3    H273500   1.940   3.042   1.891 -0.4241 -1.6474 -1.1026
17337TIP3   OH273501   2.045   3.995  38.722 -0.3098 -0.0476 -0.6614
17337TIP3    H173502   1.992   3.928  38.679  2.4980 -1.5790 -1.9260
17337TIP3    H273503   2.113   4.017  38.658  1.5270  0.6936  1.4286
17338TIP3   OH273504   1.848   3.929  15.342  0.1420 -0.0133  0.1644
17338TIP3    H173505   1.938   3.946  15.369 -0.5522  1.9014  1.5462
17338TIP3    H273506   1.854   3.907  15.250  2.0373 -0.1196  0.2764
17339TIP3   OH273507   4.006   1.723   4.425 -0.2457  0.5125 -0.1810
17339TIP3    H173508   3.976   1.656   4.364 -1.1258  0.9741 -0.2717
17339TIP3    H273509   4.093   1.694   4.452  0.1174  0.2553 -1.5778
17340TIP3   OH273510   0.328   3.096  42.224  0.7866 -0.4556  0.3205
17340TIP3    H173511   0.316   3.180  42.268 -1.5917 -0.1738 -0.7427
17340TIP3    H273512   0.336   3.118  42.132  1.7555 -1.3062  0.1862
17341TIP3   OH273513   1.367   3.347  43.744 -0.4351  0.2958 -0.3484
17341TIP3    H173514   1.369   3.339  43.648  0.7539 -1.8839 -0.1981
17341TIP3    H273515   1.435   3.411  43.763  0.9256 -0.9586 -0.8633
17342TIP3   OH273516   2.276   2.827  43.880 -0.6005  0.4941  0.0288
17342TIP3    H173517   2.284   2.732  43.877  2.4663  0.4931  2.8369
17342TIP3    H273518   2.252   2.847  43.971  1.7742  2.4172  0.3419
17343TIP3   OH273519   1.760   3.257  44.718  0.2450 -0.0059  0.7298
17343TIP3    H173520   1.719   3.264  44.804  0.6115  0.1604  0.8953
17343TIP3    H273521   1.699   3.301  44.658  0.4359  0.7213  1.0610
17344TIP3   OH273522   2.827   2.636   9.824 -0.3179  0.2183  0.0479
17344TIP3    H173523   2.788   2.675   9.902 -2.8861 -1.6619 -0.1629
17344TIP3    H273524   2.846   2.546   9.849  2.3124  0.5754 -0.4608
17345TIP3   OH273525   0.407   0.147  32.078  0.5908 -0.3987  0.0220
17345TIP3    H173526   0.450   0.219  32.125  0.5651  0.2678 -0.9404
17345TIP3    H273527   0.416   0.071  32.136 -0.0131  0.5346  1.3860
17346TIP3   OH273528   2.210   2.718  41.472  0.7256  0.6541 -0.2127
17346TIP3    H173529   2.264   2.683  41.401  2.6898  0.0306  1.4781
17346TIP3    H273530   2.210   2.813  41.458 -2.0840  0.3720 -3.0889
17347TIP3   OH273531   1.897   1.586  19.326 -0.0167  0.8560  0.2432
17347TIP3    H173532   1.812   1.560  19.361  0.2682  0.1955  0.4575
17347TIP3    H273533   1.927   1.655  19.385 -1.1985  2.3896 -0.8742
17348TIP3   OH273534   2.675   2.170   4.408  0.0235 -0.5670  0.5591
17348TIP3    H173535   2.718   2.087   4.431  1.1385  0.3825  2.1192
17348TIP3    H273536   2.747   2.234   4.404 -1.0735  0.8364  2.0002
17349TIP3   OH273537   2.641   1.957  16.815 -0.0362  0.0562  0.4609
17349TIP3    H173538   2.575   2.001  16.869  0.1302 -0.0754  0.7754
17349TIP3    H273539   2.721   2.008  16.831  0.2246 -0.5217  1.0481
17350TIP3   OH273540   3.501   2.043  40.529  0.0044 -0.2188 -0.0493
17350TIP3    H173541   3.524   2.010  40.616 -0.8143  0.0421  0.2710
17350TIP3    H273542   3.462   1.968  40.484 -1.2357  0.0992  0.4464
17351TIP3   OH273543   1.986   0.789   6.381 -0.1771  0.4692  0.3471
17351TIP3    H173544   1.893   0.780   6.360  0.1109 -1.4323 -0.3813
17351TIP3    H273545   2.028   0.807   6.297  0.3380 -1.1717  0.2066
17352TIP3   OH273546   1.130   1.999  19.334 -0.3403 -0.1761  0.2053
17352TIP3    H173547   1.145   2.060  19.261 -3.1761  1.5107  0.8827
17352TIP3    H273548   1.171   2.042  19.409 -2.1663  0.9032  0.6411
17353TIP3   OH273549   3.761   2.174   6.554 -0.6877 -0.4421 -0.2724
17353TIP3    H173550   3.748   2.079   6.550 -4.1471 -0.2347  1.9254
17353TIP3    H273551   3.828   2.186   6.621 -2.1938 -1.3537  1.4862
17354TIP3   OH273552   0.352   0.296  43.257 -0.0377 -0.1347  0.1089
17354TIP3    H173553   0.333   0.233  43.327 -1.5320 -0.4333 -0.5303
17354TIP3    H273554   0.297   0.371  43.277  1.6354  0.9831  0.7918
17355TIP3   OH273555   4.021   0.009  28.975 -0.0264 -0.2942  0.4251
17355TIP3    H173556   3.985   0.001  28.887  2.3378  0.3924 -0.6857
17355TIP3    H273557   3.985  -0.066  29.023  0.1341 -1.8018 -1.6951
17356TIP3   OH273558   3.424   2.062  17.231 -0.9409 -0.0789 -0.3044
17356TIP3    H173559   3.385   2.147  17.212 -1.2035 -0.1048  0.1052
17356TIP3    H273560   3.514   2.081  17.256 -0.8335  0.0266 -0.7665
17357TIP3   OH273561   0.728   3.366   3.032 -0.4791 -0.0024 -0.0837
17357TIP3    H173562   0.711   3.339   3.122 -1.2085 -0.9631 -0.4911
17357TIP3    H273563   0.646   3.349   2.986  0.3139 -0.8601 -1.2304
17358TIP3   OH273564   3.666   0.931  33.584  0.3242  0.0004  0.4720
17358TIP3    H173565   3.633   0.845  33.559  2.8564 -0.9392  0.0173
17358TIP3    H273566   3.625   0.950  33.668 -3.3846  0.2653 -1.2221
17359TIP3   OH273567   4.020   2.610  44.121 -0.2806 -0.5485  0.1148
17359TIP3    H173568   4.006   2.645  44.210  0.9981 -0.1094  0.1636
17359TIP3    H273569   3.981   2.676  44.064 -0.9291 -0.7321  0.3347
17360TIP3   OH273570   4.062   1.004  30.834 -0.5269  0.1488 -0.5182
17360TIP3    H173571   4.102   1.071  30.777 -0.9313  0.1685 -0.7836
17360TIP3    H273572   4.133   0.942  30.851 -0.6059 -0.2917 -1.7108
17361TIP3   OH273573   1.501   3.713  35.472  0.1471 -0.4258 -0.3402
17361TIP3    H173574   1.438   3.642  35.484  1.3080 -1.2408  1.2889
17361TIP3    H273575   1.545   3.693  35.390 -0.3789 -0.8976 -0.5203
17362TIP3   OH273576   1.427   0.058  27.947  0.1769  0.2049 -0.8088
17362TIP3    H173577   1.348   0.114  27.946  0.4281  0.5712 -1.6576
17362TIP3    H273578   1.481   0.095  28.016 -0.1480  0.3125 -0.6063
17363TIP3   OH273579   0.889   2.859   8.814  0.3397  0.4404 -0.2111
17363TIP3    H173580   0.971   2.810   8.806  0.7085  1.0356 -0.1037
17363TIP3    H273581   0.830   2.817   8.750  0.3545 -0.7104  0.4994
17364TIP3   OH273582   2.060   0.618  33.884 -0.5715 -0.6207  0.3340
17364TIP3    H173583   2.126   0.619  33.815 -0.5406  2.0594  0.2817
17364TIP3    H273584   2.074   0.536  33.931  2.5588 -0.3185  0.1057
17365TIP3   OH273585   3.829   3.130   6.131  0.0534 -0.3149  0.3744
17365TIP3    H173586   3.777   3.192   6.181  0.6925  0.3530  0.2469
17365TIP3    H273587   3.797   3.044   6.156  0.1088  0.0185  1.6463
17366TIP3   OH273588   1.056   0.593  45.050  0.2633 -0.0043 -0.1964
17366TIP3    H173589   0.988   0.607  45.116 -0.7878 -0.1211 -1.2256
17366TIP3    H273590   1.116   0.530  45.091 -0.3428 -0.0507  0.6563
17367TIP3   OH273591   1.729   2.726  13.118  0.6773 -0.0771  0.4451
17367TIP3    H173592   1.700   2.683  13.199 -3.1443  3.0294  1.1009
17367TIP3    H273593   1.665   2.700  13.053  1.2310  0.6727 -0.4229
17368TIP3   OH273594   1.026   3.667  31.162 -0.2692  0.1845  0.4579
17368TIP3    H173595   1.054   3.672  31.253 -0.7703 -1.3730  0.7269
17368TIP3    H273596   1.056   3.582  31.132 -0.9269  0.2928 -0.5533
17369TIP3   OH273597   1.839   0.796  36.880 -0.1198 -0.6307 -0.2364
17369TIP3    H173598   1.790   0.831  36.955 -0.8998  0.5693 -1.2675
17369TIP3    H273599   1.931   0.816  36.900 -0.4516  1.1115 -0.2914
17370TIP3   OH273600   0.703   2.394  36.144  0.0079 -0.0743  0.1535
17370TIP3    H173601   0.769   2.372  36.079  0.0343  0.0980  0.1213
17370TIP3    H273602   0.638   2.324  36.136  0.0563 -0.1025  0.0040
17371TIP3   OH273603   3.334   2.501  37.338 -0.0629  0.2922 -0.1266
17371TIP3    H173604   3.317   2.486  37.245  0.7516 -0.6783 -0.1322
17371TIP3    H273605   3.280   2.437  37.383 -0.7239  0.9897  0.1026
17372TIP3   OH273606   0.510   1.075  41.009  0.3647  0.1201 -0.6392
17372TIP3    H173607   0.445   1.030  40.954 -0.4466  0.5373 -0.0436
17372TIP3    H273608   0.586   1.086  40.952  0.0010 -0.5779 -1.2870
17373TIP3   OH273609   1.762   0.318   3.505 -0.4294  0.4168 -0.0532
17373TIP3    H173610   1.734   0.330   3.595 -0.6175 -1.0147  0.1062
17373TIP3    H273611   1.788   0.405   3.476 -1.8731  1.1888  0.8587
17374TIP3   OH273612   1.761   0.881   4.988 -0.4526  0.4656  0.1252
17374TIP3    H173613   1.848   0.878   5.029  0.0301 -2.0095 -0.9173
17374TIP3    H273614   1.756   0.969   4.949  2.0339  0.3483 -0.6485
17375TIP3   OH273615   3.712   1.106  20.467  0.2657  0.1978 -0.3216
17375TIP3    H173616   3.769   1.055  20.525 -0.0467 -0.9287 -0.9719
17375TIP3    H273617   3.624   1.091  20.502  0.1110 -0.2120 -0.8791
17376TIP3   OH273618   0.731   3.045  32.668  0.2060 -0.0478  0.8511
17376TIP3    H173619   0.703   3.134  32.691  1.2764  0.2987  0.8675
17376TIP3    H273620   0.730   3.044  32.572  4.1290  1.3867  0.6228
17377TIP3   OH273621   1.464   0.550   1.159  0.0286  0.2614  0.0993
17377TIP3    H173622   1.407   0.473   1.160  1.6737 -1.0905  2.8435
17377TIP3    H273623   1.405   0.625   1.169 -1.4210 -0.9104  0.6091
17378TIP3   OH273624   3.661   0.798  39.225 -0.3822 -0.2732 -0.1954
17378TIP3    H173625   3.575   0.768  39.195 -1.2653  2.1479 -0.2617
17378TIP3    H273626   3.643   0.857  39.297  1.3862 -1.1320  1.0364
17379TIP3   OH273627   1.809   0.653   7.597  0.1433 -0.5973 -0.6548
17379TIP3    H173628   1.745   0.721   7.578 -0.9507 -1.2286  0.6321
17379TIP3    H273629   1.894   0.695   7.581 -0.4956  1.0498  0.0070
17380TIP3   OH273630   0.296   1.568  33.359  0.5379  0.5616  0.5115
17380TIP3    H173631   0.339   1.520  33.431 -1.7199 -0.4074  1.3163
17380TIP3    H273632   0.236   1.628  33.403 -1.3065 -0.4478 -0.4996
17381TIP3   OH273633   3.010   0.586   0.421 -0.2082 -0.9128  0.2356
17381TIP3    H173634   2.935   0.646   0.416  0.2820 -0.3637 -1.1027
17381TIP3    H273635   3.008   0.538   0.338  0.3414 -1.6108  0.6161
17382TIP3   OH273636   3.534   1.136  10.749 -0.2000 -0.0243 -0.7141
17382TIP3    H173637   3.514   1.066  10.811  1.7466 -0.9603 -1.0679
17382TIP3    H273638   3.628   1.153  10.762  0.2574 -0.2076 -3.3503
17383TIP3   OH273639   2.082   3.308   0.382 -0.4230  1.0014  0.0527
17383TIP3    H173640   2.119   3.257   0.453 -2.6800 -1.9925 -0.7221
17383TIP3    H273641   1.996   3.335   0.414 -0.3157  2.0999 -0.5354
17384TIP3   OH273642   0.032   3.711  41.496 -0.2254 -0.3099  0.7665
17384TIP3    H173643  -0.035   3.643  41.493  2.0240 -2.6891  0.6468
17384TIP3    H273644   0.021   3.759  41.414 -1.5966 -0.7984  0.6373
17385TIP3   OH273645   3.012   0.876  47.415  0.2769  0.3534  0.1331
17385TIP3    H173646   3.030   0.939  47.346  1.0606  0.7769  0.7104
17385TIP3    H273647   3.029   0.924  47.497  2.0762 -0.9242  0.5666
17386TIP3   OH273648   2.150   0.478  12.924 -0.9993  0.5785 -0.5871
17386TIP3    H173649   2.149   0.450  13.015 -0.4446  0.5144 -0.5951
17386TIP3    H273650   2.132   0.572  12.927 -2.6331  0.2890 -0.5403
17387TIP3   OH273651   0.843   0.834  34.136 -0.3220 -0.1548 -0.1707
17387TIP3    H173652   0.925   0.839  34.185 -0.3579 -1.8682  0.0976
17387TIP3    H273653   0.870   0.832  34.045 -0.1912  1.5642 -0.1994
17388TIP3   OH273654   2.868   4.077  29.942 -0.5113 -0.8796  0.3655
17388TIP3    H173655   2.934   4.122  29.996 -0.0255 -0.9197 -0.1850
17388TIP3    H273656   2.867   3.988  29.977 -0.8231 -0.6816  0.8705
17389TIP3   OH273657   1.439   0.275  30.910  0.1811  0.0238  0.3014
17389TIP3    H173658   1.526   0.291  30.945  0.1891 -1.1255  0.8529
17389TIP3    H273659   1.454   0.243  30.821  0.2655  0.8113  0.0273
17390TIP3   OH273660   1.911   0.032  12.728  0.6156 -0.2415  0.2827
17390TIP3    H173661   1.917   0.104  12.666  2.1336  0.1605  0.8464
17390TIP3    H273662   1.960  -0.039  12.687  1.5831  0.0103  0.9527
17391TIP3   OH273663   4.003   4.025   3.705  0.6061 -0.1930  0.0482
17391TIP3    H173664   4.035   4.114   3.718 -0.6442  0.1952  0.6560
17391TIP3    H273665   3.985   4.020   3.611  1.4551 -0.0836 -0.1240
17392TIP3   OH273666   0.065   4.061  35.698 -0.3429 -0.3782  0.0299
17392TIP3    H173667   0.116   4.011  35.762  0.0069  0.1311  0.1529
17392TIP3    H273668   0.115   4.141  35.684 -0.2612 -0.6150 -1.1212
17393TIP3   OH273669   1.721   3.926   9.189  0.5468 -0.3362  0.2259
17393TIP3    H173670   1.729   3.933   9.284  2.1858  1.6177  0.0224
17393TIP3    H273671   1.629   3.945   9.171  0.4988  0.6279  1.3482
17394TIP3   OH273672   0.348   1.405  47.734  0.4042 -0.2804 -0.1649
17394TIP3    H173673   0.430   1.400  47.784  0.6476 -0.4712 -0.5790
17394TIP3    H273674   0.375   1.394  47.643  0.1269  1.3352 -0.4813
17395TIP3   OH273675   0.928   1.236  37.232  0.3440  0.4636  0.1162
17395TIP3    H173676   0.960   1.253  37.143  1.6539  2.3135  0.8776
17395TIP3    H273677   0.880   1.315  37.256 -1.5650 -0.7438  0.4391
17396TIP3   OH273678   0.589   3.838  37.689 -0.4330 -0.0475  0.2387
17396TIP3    H173679   0.532   3.815  37.616  0.1074  1.2811 -0.6527
17396TIP3    H273680   0.669   3.788  37.674 -0.2048  0.4561 -0.2875
17397TIP3   OH273681   2.935   3.612  46.029 -0.2235  0.2820  0.3267
17397TIP3    H173682   2.885   3.621  46.110  0.4991  1.1750  0.6771
17397TIP3    H273683   2.877   3.562  45.971 -0.6914 -0.4855  1.4226
17398TIP3   OH273684   0.523   0.578  39.916 -0.5078 -0.2806  0.6385
17398TIP3    H173685   0.449   0.576  39.976 -1.3884 -3.3286 -0.3897
17398TIP3    H273686   0.579   0.506  39.944  1.3141  0.9677  0.3978
17399TIP3   OH273687   0.773   2.429   8.364  0.4134 -0.0654  0.1784
17399TIP3    H173688   0.715   2.369   8.318  0.0856  0.0005  0.4992
17399TIP3    H273689   0.860   2.389   8.357  0.5168  0.3795 -1.2281
17400TIP3   OH273690   0.532   0.125  31.831 -0.0899 -0.5417 -0.3503
17400TIP3    H173691   0.467   0.121  31.901  0.5473 -1.4277  0.2063
17400TIP3    H273692   0.547   0.219  31.817 -1.3390 -0.3289 -0.3677
17401TIP3   OH273693   0.436   3.532  10.497 -0.2794  0.1819 -0.4198
17401TIP3    H173694   0.434   3.475  10.574 -0.5372  0.9851  0.1918
17401TIP3    H273695   0.357   3.585  10.505  0.5085  1.3917 -0.3518
17402TIP3   OH273696   1.506   1.070   2.135 -0.4801 -1.0984 -0.0018
17402TIP3    H173697   1.459   1.100   2.213 -0.1302 -1.6506  0.4282
17402TIP3    H273698   1.551   0.991   2.163 -0.8447 -1.6512 -0.9435
17403TIP3   OH273699   0.440   0.429  42.591  0.2693 -0.1687  0.3304
17403TIP3    H173700   0.509   0.430  42.657 -0.5684 -1.9304  1.3414
17403TIP3    H273701   0.485   0.440  42.508  1.5686  0.3181  1.0767
17404TIP3   OH273702   3.232   2.521  46.506 -0.6781  0.2485  0.1041
17404TIP3    H173703   3.272   2.571  46.435 -2.1194  2.3022  0.6257
17404TIP3    H273704   3.218   2.434  46.469  0.2905  0.7237 -1.4953
17405TIP3   OH273705   2.331   2.589   8.715  0.5547 -0.5766  0.0699
17405TIP3    H173706   2.245   2.557   8.741  0.2575  0.4062  0.3346
17405TIP3    H273707   2.392   2.522   8.746  0.0802 -0.2283  1.8890
17406TIP3   OH273708   0.676   3.463   8.195  0.0858  0.2422 -0.0317
17406TIP3    H173709   0.608   3.425   8.250  1.4751 -1.6667  0.4781
17406TIP3    H273710   0.687   3.552   8.228 -1.4537  0.2652  0.5049
17407TIP3   OH273711   1.366   1.087   4.976  0.1843  0.1630 -0.2900
17407TIP3    H173712   1.325   1.171   4.997 -0.3292  0.6916 -3.0569
17407TIP3    H273713   1.293   1.027   4.962  0.2346  0.6080 -3.2454
17408TIP3   OH273714   3.311   3.035  45.055  0.1191 -0.3053 -0.1124
17408TIP3    H173715   3.395   3.080  45.069  0.4225 -0.6938 -0.6414
17408TIP3    H273716   3.292   2.992  45.139  0.2636  0.0868  0.1236
17409TIP3   OH273717   3.602   2.105   0.458 -0.8770 -0.1542  0.4667
17409TIP3    H173718   3.560   2.180   0.417  2.9212 -0.2615 -4.5293
17409TIP3    H273719   3.609   2.039   0.389  2.9214 -1.9569  2.2296
17410TIP3   OH273720   0.659   1.836   7.354 -0.6606  0.0075  0.2933
17410TIP3    H173721   0.659   1.820   7.259 -0.3075 -0.5774  0.3923
17410TIP3    H273722   0.643   1.750   7.393  1.2156 -0.1375  0.8252
17411TIP3   OH273723   1.541   0.027  34.480  1.0298  0.5126  0.2984
17411TIP3    H173724   1.562   0.110  34.522  0.9640  0.8160 -0.2524
17411TIP3    H273725   1.560  -0.040  34.546 -0.2480  1.0443  1.2327
17412TIP3   OH273726   1.364   0.162  43.113 -0.4252  0.2278  0.4044
17412TIP3    H173727   1.277   0.126  43.094  0.5439 -1.8669 -0.3941
17412TIP3    H273728   1.396   0.192  43.028  0.3321 -0.7479  0.3185
17413TIP3   OH273729   2.691   2.635  43.182 -0.5499 -0.1190 -0.5476
17413TIP3    H173730   2.753   2.664  43.115  0.7813 -0.4492  0.4950
17413TIP3    H273731   2.708   2.541  43.192 -1.6097 -0.3352 -0.6269
17414TIP3   OH273732   1.238   0.468  42.917 -0.3069 -0.3584 -0.4951
17414TIP3    H173733   1.270   0.496  42.831 -1.5047  1.7016 -0.3266
17414TIP3    H273734   1.316   0.469  42.972  0.3042 -0.7868 -1.3189
17415TIP3   OH273735   1.397   2.437  46.135  0.2274 -0.0422 -0.2046
17415TIP3    H173736   1.334   2.370  46.160  0.6378 -0.1161  0.6501
17415TIP3    H273737   1.454   2.394  46.071 -0.0636 -0.2286 -0.3402
17416TIP3   OH273738   2.767   3.531   9.657 -0.0217 -0.4592  0.2533
17416TIP3    H173739   2.673   3.521   9.670 -0.3159  1.4026 -0.1621
17416TIP3    H273740   2.793   3.599   9.719  0.3831  1.4247 -1.8603
17417TIP3   OH273741   0.270   2.096  43.601  0.1708  0.0844 -0.0767
17417TIP3    H173742   0.272   2.175  43.547  2.0900  0.6147  0.6805
17417TIP3    H273743   0.360   2.062  43.596 -0.9714 -3.1155 -1.8437
17418TIP3   OH273744   0.125   0.818  40.670  0.6014 -0.3329  0.5578
17418TIP3    H173745   0.092   0.897  40.627 -0.4582 -1.7020 -1.2685
17418TIP3    H273746   0.220   0.827  40.667  0.5349  0.1250 -1.1316
17419TIP3   OH273747   0.583   0.201  25.130 -0.2351  0.1433 -0.1274
17419TIP3    H173748   0.546   0.115  25.151 -0.9904  0.4646 -0.0848
17419TIP3    H273749   0.676   0.185  25.118 -0.6651 -1.0883 -2.3657
17420TIP3   OH273750   3.324   3.950  41.699  0.3518  0.1318  0.0262
17420TIP3    H173751   3.262   3.942  41.771  1.0570  1.0864  0.7654
17420TIP3    H273752   3.288   4.019  41.644 -1.2406 -1.9379 -1.6794
17421TIP3   OH273753   3.524   3.710   5.955 -0.1906 -0.2310  0.2011
17421TIP3    H173754   3.466   3.717   5.880 -0.3216  0.1076  0.3346
17421TIP3    H273755   3.474   3.662   6.021 -0.0835 -0.5086  0.0829
17422TIP3   OH273756   3.606   2.645  33.381 -0.3798  0.1200 -1.0366
17422TIP3    H173757   3.676   2.585  33.357  0.8089  0.4534  1.2791
17422TIP3    H273758   3.608   2.714  33.314  1.2728 -0.0810 -1.2214
17423TIP3   OH273759   1.319   2.459  31.968  0.1142 -0.0323  0.4966
17423TIP3    H173760   1.290   2.460  32.059 -1.7060  1.4062 -0.0388
17423TIP3    H273761   1.373   2.538  31.960 -2.4872  1.7682 -0.4132
17424TIP3   OH273762   1.413   0.116   7.353 -0.2688 -0.6073 -0.0985
17424TIP3    H173763   1.319   0.119   7.365 -0.3650 -2.9154  0.2124
17424TIP3    H273764   1.450   0.144   7.437 -0.7243 -1.5383  0.4228
17425TIP3   OH273765   2.296   2.959  39.254  0.8383  0.0180 -0.2177
17425TIP3    H173766   2.300   2.916  39.339  0.5682 -0.3481 -0.3885
17425TIP3    H273767   2.247   2.899  39.199 -0.0476  0.8006 -0.3049
17426TIP3   OH273768   0.591   3.973  29.339 -0.1528  0.2777 -0.4450
17426TIP3    H173769   0.589   4.047  29.279 -1.4394  0.8177  0.2233
17426TIP3    H273770   0.659   3.915  29.304 -0.1053  1.1028 -1.7731
17427TIP3   OH273771   2.137   1.450  34.958 -0.3619  0.1581 -0.1178
17427TIP3    H173772   2.142   1.428  34.865 -1.0560  1.5588 -0.5274
17427TIP3    H273773   2.227   1.450  34.989 -0.2182 -1.4928 -0.4853
17428TIP3   OH273774   0.933   2.942   4.708  0.0062 -0.1886  0.5079
17428TIP3    H173775   0.906   2.885   4.781 -0.6619 -1.4140 -0.6585
17428TIP3    H273776   0.985   3.011   4.750  0.8896 -1.6740  1.9832
17429TIP3   OH273777   0.507   2.004  37.941  0.2848 -0.4074 -0.0631
17429TIP3    H173778   0.564   1.961  38.006 -0.1509 -3.4819 -1.5392
17429TIP3    H273779   0.418   1.980  37.967  0.0978 -1.6638 -1.6798
17430TIP3   OH273780   1.610   0.180  43.573  0.2653 -0.2987  0.4348
17430TIP3    H173781   1.579   0.242  43.639 -0.6329  1.2008 -1.3082
17430TIP3    H273782   1.665   0.233  43.515  0.7689 -1.5093 -0.2188
17431TIP3   OH273783   3.038   2.024  46.534  0.0452 -0.0839  0.1539
17431TIP3    H173784   3.026   1.963  46.607 -0.6826 -0.9732 -0.6839
17431TIP3    H273785   3.014   1.973  46.457 -0.1042  1.1313 -0.6131
17432TIP3   OH273786   0.466   2.310  15.676 -0.0077  0.4911  0.0218
17432TIP3    H173787   0.389   2.279  15.724 -0.9363  1.1706 -0.9751
17432TIP3    H273788   0.441   2.305  15.584  2.1606 -1.8896 -0.5308
17433TIP3   OH273789   3.084   2.121   8.858  0.1668 -0.0703  0.3216
17433TIP3    H173790   3.131   2.165   8.788 -1.5846  0.3337 -0.6649
17433TIP3    H273791   3.056   2.192   8.916 -1.7252  0.0611 -0.6907
17434TIP3   OH273792   0.002   2.795  42.151 -0.4909  0.0247 -0.4180
17434TIP3    H173793   0.047   2.801  42.067 -1.0972 -0.3322 -0.7841
17434TIP3    H273794  -0.032   2.705  42.154  0.4361 -0.3091  0.6936
17435TIP3   OH273795   2.064   1.884  39.361 -0.0629  0.4346  0.0416
17435TIP3    H173796   1.969   1.874  39.352 -0.1496  1.0210  0.2674
17435TIP3    H273797   2.079   1.978  39.348  0.7471  0.0463 -2.4020
17436TIP3   OH273798   2.583   3.757  30.548  0.1080  0.0763  0.1714
17436TIP3    H173799   2.627   3.842  30.540  1.7269 -0.7326  0.0486
17436TIP3    H273800   2.540   3.745  30.463 -0.9675  1.1818  0.5250
17437TIP3   OH273801   0.829   3.968  32.283  0.0338  0.1247  0.7683
17437TIP3    H173802   0.773   3.934  32.213  0.9240 -0.9648  0.5633
17437TIP3    H273803   0.796   3.926  32.362  1.2265 -1.4148  0.4943
17438TIP3   OH273804   1.767   2.281  38.074  0.9835  0.1186 -1.0275
17438TIP3    H173805   1.848   2.306  38.119  1.3105  0.6195 -1.8675
17438TIP3    H273806   1.745   2.358  38.022 -0.1520  0.0556 -0.6611
17439TIP3   OH273807   0.960   2.123  42.555  0.4424 -0.0297 -0.6707
17439TIP3    H173808   1.054   2.118  42.574  0.2929 -2.5154 -0.3224
17439TIP3    H273809   0.918   2.123  42.641  0.0740  1.1932 -0.8244
17440TIP3   OH273810   2.277   3.800  32.585  0.2107 -0.5603  0.1023
17440TIP3    H173811   2.222   3.838  32.654  0.8948  0.7535 -0.0485
17440TIP3    H273812   2.250   3.845  32.506  0.6956 -0.7697 -0.1833
17441TIP3   OH273813   2.340   1.380  33.182 -0.0233 -0.2139 -0.2636
17441TIP3    H173814   2.276   1.314  33.208  0.6339 -1.1194 -0.8855
17441TIP3    H273815   2.352   1.366  33.088  0.0821  0.8445 -0.4235
17442TIP3   OH273816   0.725   1.009   1.892  0.0574  0.1190 -0.2195
17442TIP3    H173817   0.665   0.980   1.960 -0.2703 -0.5874 -0.7975
17442TIP3    H273818   0.794   0.943   1.891 -0.9460 -0.9786 -1.8747
17443TIP3   OH273819   3.836   4.096  38.350 -0.4043 -0.0388 -0.0808
17443TIP3    H173820   3.855   4.012  38.391  0.4115  0.1051 -0.1527
17443TIP3    H273821   3.884   4.093  38.267  0.4972  0.9105  0.3868
17444TIP3   OH273822   3.638   3.134  30.378  0.1250 -0.1976 -0.1174
17444TIP3    H173823   3.623   3.151  30.285 -1.3737 -2.4520 -0.3627
17444TIP3    H273824   3.731   3.111  30.384 -0.0639 -1.3005 -1.2875
17445TIP3   OH273825   0.294   2.870  43.026  0.4643 -0.0360 -0.3044
17445TIP3    H173826   0.270   2.924  42.951 -2.1235 -0.8458 -0.1353
17445TIP3    H273827   0.272   2.923  43.103 -1.0631 -0.8379 -0.1466
17446TIP3   OH273828   2.381   2.029  12.613  0.6211  0.2619 -0.5853
17446TIP3    H173829   2.415   2.045  12.525  1.2341  2.1666 -0.0511
17446TIP3    H273830   2.296   2.072  12.614  0.7076  0.4267 -0.1795
17447TIP3   OH273831   0.892   3.033  44.575 -0.1785 -0.5763 -0.0519
17447TIP3    H173832   0.969   3.083  44.603  0.1264 -0.2037 -1.4730
17447TIP3    H273833   0.916   2.941  44.591  0.2412 -0.4229  0.2325
17448TIP3   OH273834   2.956   0.770  34.437 -0.9207  0.3419  0.0939
17448TIP3    H173835   2.913   0.819  34.508 -1.3910  0.0665  0.0070
17448TIP3    H273836   2.917   0.683  34.441 -2.1621  0.7735 -1.5309
17449TIP3   OH273837   3.334   1.029   2.037 -0.0349 -0.5495 -0.1292
17449TIP3    H173838   3.243   1.042   2.011  0.3992  1.3539 -0.9112
17449TIP3    H273839   3.368   0.964   1.976 -0.8343 -1.2423  0.1392
17450TIP3   OH273840   0.862   0.829  34.748  0.1021  0.0197 -0.2630
17450TIP3    H173841   0.774   0.809  34.781 -0.7857  0.1659 -2.3461
17450TIP3    H273842   0.873   0.923  34.765 -0.2098  0.0320 -0.1139
17451TIP3   OH273843   3.377   2.110  33.060 -0.5882  0.0083 -0.3349
17451TIP3    H173844   3.434   2.053  33.008  0.4923  2.1947 -1.6897
17451TIP3    H273845   3.288   2.090  33.030 -0.0206  0.8562 -2.7439
17452TIP3   OH273846   1.592   0.291  44.353 -0.9671 -0.0822  0.9868
17452TIP3    H173847   1.614   0.292  44.446  0.3521  0.3429  0.6893
17452TIP3    H273848   1.527   0.361  44.343 -0.2567  0.6499  1.3989
17453TIP3   OH273849   3.040   1.152  10.211 -0.2812 -0.6551  0.8203
17453TIP3    H173850   3.047   1.088  10.140  2.2922  0.0881  0.2815
17453TIP3    H273851   3.056   1.237  10.168 -2.9669  0.3518  1.6207
17454TIP3   OH273852   3.421   3.567  41.180 -0.5633 -0.6433  0.4524
17454TIP3    H173853   3.403   3.593  41.270  1.4106 -1.6652  1.2068
17454TIP3    H273854   3.335   3.552  41.141 -1.5366  1.4434  1.6244
17455TIP3   OH273855   3.221   3.771  33.502 -0.1287 -0.1814  0.1389
17455TIP3    H173856   3.188   3.710  33.436 -2.7502  0.4102  0.7847
17455TIP3    H273857   3.187   3.738  33.585  1.9701 -0.1448  1.0850
17456TIP3   OH273858   3.322   2.426  45.522  0.3832  0.2706 -0.3639
17456TIP3    H173859   3.381   2.449  45.593 -1.0393 -0.5670  1.1695
17456TIP3    H273860   3.363   2.462  45.444  2.1199  1.0340  0.8365
17457TIP3   OH273861   2.409   1.234   5.758  0.2417  0.0089  0.5734
17457TIP3    H173862   2.436   1.143   5.763 -1.9885 -0.6456  2.2456
17457TIP3    H273863   2.372   1.243   5.670  0.1504 -0.8136  0.5220
17458TIP3   OH273864   1.957   0.576  35.744 -0.4696  0.1536 -0.4674
17458TIP3    H173865   1.932   0.668  35.735  1.1129  0.5834 -0.8322
17458TIP3    H273866   1.889   0.538  35.800  0.4477  2.3101  2.3612
17459TIP3   OH273867   4.075   2.424  46.039 -0.2140 -0.1256 -0.2758
17459TIP3    H173868   3.994   2.456  45.999 -0.6697  1.2565  1.5872
17459TIP3    H273869   4.138   2.495  46.027  0.4095 -0.7477 -0.7595
17460TIP3   OH273870   3.546   4.043  40.738  0.0834 -0.0952  0.1682
17460TIP3    H173871   3.453   4.020  40.738  0.0709 -0.0441  0.4185
17460TIP3    H273872   3.551   4.128  40.781  0.1866  0.1569 -0.3409
17461TIP3   OH273873   1.662   0.625  46.994  0.3025 -0.1181 -0.5657
17461TIP3    H173874   1.614   0.669  47.064 -1.0589 -1.7065 -0.4666
17461TIP3    H273875   1.753   0.629  47.022 -0.0919  0.2355  0.7476
17462TIP3   OH273876   0.608   3.217  30.139 -0.3341 -0.0597  1.1102
17462TIP3    H173877   0.545   3.204  30.210 -2.1148  1.8898 -0.0084
17462TIP3    H273878   0.678   3.269  30.178 -0.6375 -0.1279  1.7612
17463TIP3   OH273879   3.312   2.261   0.433  0.3720 -0.2223 -0.3716
17463TIP3    H173880   3.245   2.318   0.471 -0.0939 -0.4010 -0.9052
17463TIP3    H273881   3.395   2.298   0.464  0.0522  0.3348 -0.1555
17464TIP3   OH273882   3.127   2.886   1.912 -0.2365  0.3278  0.2724
17464TIP3    H173883   3.185   2.859   1.983  2.3532  1.4140 -1.2776
17464TIP3    H273884   3.115   2.980   1.926  1.2857  0.7976 -1.3076
17465TIP3   OH273885   0.748   1.395  36.807  0.2139  0.5179 -0.0019
17465TIP3    H173886   0.681   1.399  36.739  0.1396  1.8461  0.1159
17465TIP3    H273887   0.718   1.456  36.874  0.8661  0.1041  0.6796
17466TIP3   OH273888   2.485   2.587   6.167 -0.0480 -0.7300 -0.2860
17466TIP3    H173889   2.405   2.624   6.132  0.7411 -0.7667 -2.2392
17466TIP3    H273890   2.540   2.663   6.187  0.8284 -0.7065 -2.4926
17467TIP3   OH273891   1.310   3.457  35.216  0.1922 -0.0966  0.2381
17467TIP3    H173892   1.374   3.527  35.226  0.8865 -0.6676 -0.1128
17467TIP3    H273893   1.353   3.392  35.160 -0.3027 -0.9703  0.8386
17468TIP3   OH273894   1.818   3.958  43.605 -0.0503 -0.0420 -0.6633
17468TIP3    H173895   1.891   3.949  43.666  0.5596  1.9800 -1.0023
17468TIP3    H273896   1.858   3.992  43.524 -1.3611  1.5520 -0.7107
17469TIP3   OH273897   0.731   0.108   0.404  0.5572  0.1269  0.3912
17469TIP3    H173898   0.674   0.056   0.461  0.6638  0.8242  1.1528
17469TIP3    H273899   0.799   0.047   0.376 -1.2023 -1.0876 -1.5525
17470TIP3   OH273900   2.273   1.155  32.330 -0.1530 -0.1722  0.2353
17470TIP3    H173901   2.192   1.150  32.381  0.5110  0.0730  1.3301
17470TIP3    H273902   2.342   1.132  32.391  0.5522 -1.1946 -0.8960
17471TIP3   OH273903   0.496   1.554   8.320 -0.0593 -0.0165 -0.4555
17471TIP3    H173904   0.437   1.610   8.371  1.1882  2.1532 -1.2536
17471TIP3    H273905   0.471   1.465   8.344 -3.5069  0.7782 -0.6395
17472TIP3   OH273906   2.026   3.703  36.179  0.7590 -0.0652  0.5792
17472TIP3    H173907   2.041   3.646  36.255  1.2061 -2.2074 -1.0210
17472TIP3    H273908   2.019   3.643  36.105  0.9600  1.9840 -1.1960
17473TIP3   OH273909   2.164   2.916  43.354 -0.2689 -0.2425  0.5575
17473TIP3    H173910   2.176   2.822  43.338 -0.4397 -0.1701 -0.0156
17473TIP3    H273911   2.207   2.931  43.438  0.2770 -0.7225  0.3768
17474TIP3   OH273912   1.721   3.721  33.994 -0.7662  0.9276  0.5443
17474TIP3    H173913   1.696   3.674  34.074  1.1377 -1.0653  0.0603
17474TIP3    H273914   1.654   3.699  33.930  0.2626 -1.5746  0.2219
17475TIP3   OH273915   3.299   3.840  39.859 -0.2945 -0.2119 -0.2973
17475TIP3    H173916   3.354   3.774  39.818  0.5784 -0.2505  0.8922
17475TIP3    H273917   3.235   3.791  39.911 -0.8721 -0.1429 -0.9162
17476TIP3   OH273918   2.514   1.515  42.109 -1.0298 -0.1051 -0.8030
17476TIP3    H173919   2.512   1.535  42.203 -0.8742  0.8209 -0.9824
17476TIP3    H273920   2.574   1.441  42.102  0.4140  0.9727 -0.3490
17477TIP3   OH273921   0.855   0.094   2.741  0.0635 -0.4083 -0.2294
17477TIP3    H173922   0.763   0.074   2.761 -0.1708  1.7389  1.1263
17477TIP3    H273923   0.851   0.161   2.674  0.7443 -1.8858 -1.8164
17478TIP3   OH273924   0.148   3.268  39.588 -0.5384  0.3706  0.4352
17478TIP3    H173925   0.214   3.321  39.543 -2.5560  3.5049  0.8414
17478TIP3    H273926   0.091   3.237  39.519 -0.2019 -0.0384  0.3342
17479TIP3   OH273927   2.009   2.046  47.043 -0.2204 -0.2330 -0.5242
17479TIP3    H173928   2.079   2.045  46.978  0.4096  1.7050  0.0332
17479TIP3    H273929   2.014   2.134  47.081 -2.2654 -0.4191  0.3030
17480TIP3   OH273930   3.392   3.959  43.026  0.2376  0.1494 -0.3053
17480TIP3    H173931   3.482   3.983  43.006  1.2478 -3.8919 -1.3811
17480TIP3    H273932   3.346   3.967  42.942 -0.0169  0.5770 -0.1297
17481TIP3   OH273933   0.583   2.106  14.971 -0.1176 -0.4177  0.2902
17481TIP3    H173934   0.534   2.035  15.012 -0.2562 -0.4299  0.1029
17481TIP3    H273935   0.555   2.184  15.018 -0.1071 -0.4618  0.3708
17482TIP3   OH273936   3.459   3.583  44.465 -0.1328  0.1774  0.0704
17482TIP3    H173937   3.444   3.661  44.517 -0.2918 -0.4525  1.0009
17482TIP3    H273938   3.401   3.517  44.503  1.1292 -0.8317  0.3406
17483TIP3   OH273939   3.904   2.905   8.648 -0.3443  0.5421 -0.1996
17483TIP3    H173940   3.824   2.851   8.649  0.8254 -1.3007  1.6404
17483TIP3    H273941   3.962   2.863   8.711  1.8110  2.2981 -0.8874
17484TIP3   OH273942   0.240   3.151   6.448 -0.5498 -0.1093  0.3764
17484TIP3    H173943   0.318   3.206   6.442 -1.3706  1.0498  0.0837
17484TIP3    H273944   0.254   3.100   6.528  0.1049  0.7224  0.8103
17485TIP3   OH273945   1.284   2.145  19.510 -0.2613  0.1283 -0.4434
17485TIP3    H173946   1.357   2.188  19.556  0.1860  0.1010 -1.1102
17485TIP3    H273947   1.223   2.121  19.580  0.9018 -0.8800  0.2720
17486TIP3   OH273948   0.437   0.814  31.666  0.4366 -0.0863 -0.8860
17486TIP3    H173949   0.464   0.745  31.606 -0.2976 -0.1395 -1.1616
17486TIP3    H273950   0.519   0.855  31.693  0.8511 -0.8108 -1.0201
17487TIP3   OH273951   3.842   0.302  25.184  0.4282  0.1412  0.4715
17487TIP3    H173952   3.921   0.249  25.180  0.0477 -0.6799  2.4196
17487TIP3    H273953   3.784   0.264  25.118  1.3375  0.2287 -0.3979
17488TIP3   OH273954   3.198   1.010   6.755 -0.1188 -0.7887 -0.1446
17488TIP3    H173955   3.130   1.053   6.703  0.1595  0.3978  0.4443
17488TIP3    H273956   3.248   1.082   6.793  0.8482 -1.6463  0.2473
17489TIP3   OH273957   0.343   2.246   8.117  0.1614  0.4715  0.0336
17489TIP3    H173958   0.439   2.248   8.119  0.1926 -0.0628 -0.5862
17489TIP3    H273959   0.316   2.317   8.176  0.9340  0.4730  0.3947
17490TIP3   OH273960   2.253   1.472  35.377  0.3215 -0.0411 -0.1458
17490TIP3    H173961   2.203   1.543  35.337  1.4699 -0.2279 -2.0078
17490TIP3    H273962   2.333   1.514  35.409  1.5456 -0.6258 -2.3006
17491TIP3   OH273963   2.329   1.484  41.380  0.5461  0.3186  0.0397
17491TIP3    H173964   2.355   1.411  41.324 -0.2646  1.1174 -1.4441
17491TIP3    H273965   2.234   1.475  41.388  0.4899  0.9895  0.1634
17492TIP3   OH273966   2.896   0.628  30.438  0.5111  0.5339  0.4696
17492TIP3    H173967   2.835   0.591  30.374 -0.0032  0.1401  1.1654
17492TIP3    H273968   2.982   0.621  30.397  0.5056 -1.8100  0.6890
17493TIP3   OH273969   1.644   2.252  38.498 -0.2927  0.5680  0.3797
17493TIP3    H173970   1.718   2.311  38.505 -1.3437  2.1187 -0.8932
17493TIP3    H273971   1.586   2.277  38.570 -0.7449  1.1231 -0.1688
17494TIP3   OH273972   0.107   2.722  38.133  0.1778 -0.2571 -0.5799
17494TIP3    H173973   0.089   2.671  38.211 -0.7830  1.5262  0.4293
17494TIP3    H273974   0.026   2.718  38.082 -0.6043  1.7379  0.4200
17495TIP3   OH273975   3.769   0.643  24.868 -0.5485 -0.3413 -0.2299
17495TIP3    H173976   3.685   0.602  24.891 -1.1767  1.1178  0.2544
17495TIP3    H273977   3.800   0.682  24.950 -0.3239  0.6931 -0.7881
17496TIP3   OH273978   3.278   0.216  34.467 -0.1985 -0.0337 -0.3041
17496TIP3    H173979   3.319   0.136  34.433  1.8242  0.9875 -0.4004
17496TIP3    H273980   3.317   0.228  34.553  1.2561  1.9774 -1.1551
17497TIP3   OH273981   2.313   0.944  12.485 -0.2977 -0.5074 -0.0963
17497TIP3    H173982   2.251   0.878  12.454  0.8884 -1.0628 -1.3835
17497TIP3    H273983   2.399   0.906  12.468  0.4169  1.2083 -0.5193
17498TIP3   OH273984   3.652   2.233   6.243 -0.0811  0.8688  0.5043
17498TIP3    H173985   3.667   2.148   6.284  1.1769  0.7362 -0.1641
17498TIP3    H273986   3.626   2.290   6.315 -1.7640 -0.2416  0.8473
17499TIP3   OH273987   0.578   1.435   0.121 -0.0186 -0.2151 -0.0358
17499TIP3    H173988   0.654   1.433   0.063 -0.2029  1.5635 -0.3813
17499TIP3    H273989   0.594   1.510   0.179 -1.2314 -0.1696  0.2681
17500TIP3   OH273990   3.665   0.875  46.129 -0.3464  0.2130 -0.7951
17500TIP3    H173991   3.717   0.899  46.052  1.8482 -0.4669  0.3731
17500TIP3    H273992   3.714   0.803  46.169 -2.6803 -1.0370 -0.0267
17501TIP3   OH273993   0.647   3.918   3.614  0.6508 -0.4244  0.6548
17501TIP3    H173994   0.596   3.839   3.598  1.2409 -0.7877  0.5297
17501TIP3    H273995   0.724   3.908   3.558 -0.3435  1.3065 -1.1230
17502TIP3   OH273996   3.036   2.051  13.718 -0.1254 -0.1918  0.0070
17502TIP3    H173997   2.951   2.009  13.705 -0.3016 -0.1965  1.0617
17502TIP3    H273998   3.091   2.014  13.649 -0.8964 -0.4008 -0.5179
17503TIP3   OH273999   0.972   0.437  10.922  0.3336 -0.2259 -0.6436
17503TIP3    H174000   1.018   0.513  10.884  0.2095  0.5897  0.7961
17503TIP3    H274001   1.042   0.385  10.962  0.2459 -0.1060 -0.3370
17504TIP3   OH274002   1.192   2.720   4.600  0.1007  0.1975 -0.5403
17504TIP3    H174003   1.194   2.653   4.531  2.1093 -0.9938  0.5726
17504TIP3    H274004   1.122   2.692   4.659  2.5788 -2.6353  1.3624
17505TIP3   OH274005   3.530   1.129  35.841 -0.6102  0.0179  0.1259
17505TIP3    H174006   3.447   1.160  35.805 -0.8866 -0.9627 -0.1054
17505TIP3    H274007   3.593   1.141  35.770 -0.7304 -0.0318  0.0102
17506TIP3   OH274008   2.563   2.010  45.673 -0.4682 -0.5988  0.3571
17506TIP3    H174009   2.501   2.030  45.602 -0.3965 -0.4715  0.3285
17506TIP3    H274010   2.628   2.079  45.667  0.7660 -1.7897 -0.8747
17507TIP3   OH274011   1.799   0.635   3.690 -0.1071 -0.1197  0.2789
17507TIP3    H174012   1.759   0.554   3.721 -1.8532  0.7507  0.4635
17507TIP3    H274013   1.883   0.640   3.736  0.2079 -1.9661 -0.0194
17508TIP3   OH274014   3.162   0.239  14.841 -0.0678 -0.5542  0.0468
17508TIP3    H174015   3.228   0.274  14.902  0.5383 -2.2904  0.4497
17508TIP3    H274016   3.213   0.197  14.772 -0.6803  3.0156 -2.8696
17509TIP3   OH274017   0.082   3.805  13.835 -0.0467 -0.4046 -0.2625
17509TIP3    H174018   0.129   3.732  13.877  1.0882  1.2016  1.3844
17509TIP3    H274019   0.019   3.833  13.901 -0.5309  0.0659 -0.9222
17510TIP3   OH274020   1.264   0.916  10.787  0.1906  0.1360 -0.0560
17510TIP3    H174021   1.347   0.914  10.834 -0.6091  1.0184  1.4993
17510TIP3    H274022   1.254   1.007  10.759 -0.4223  0.1323  0.1291
17511TIP3   OH274023   3.813   3.207  37.122 -0.2107 -0.1848  0.0278
17511TIP3    H174024   3.854   3.215  37.208  1.9858  0.6411 -1.0073
17511TIP3    H274025   3.820   3.295  37.084 -0.8388 -0.6088 -1.1091
17512TIP3   OH274026   3.629   1.842   5.101  0.2413 -0.3189  0.0126
17512TIP3    H174027   3.622   1.761   5.051 -0.8641  0.3206 -0.9638
17512TIP3    H274028   3.656   1.907   5.036 -2.0411  0.7048 -0.0084
17513TIP3   OH274029   0.513   0.610  40.360  0.3651  0.3193  0.0988
17513TIP3    H174030   0.460   0.531  40.358 -0.7036  1.0171 -2.2326
17513TIP3    H274031   0.578   0.598  40.290  1.8757  0.4455  1.4215
17514TIP3   OH274032   2.872   3.099   4.059  0.1856 -0.0397  0.0063
17514TIP3    H174033   2.789   3.060   4.033  0.8774 -1.3289 -0.3583
17514TIP3    H274034   2.924   3.025   4.091  0.8211  0.9017  1.2206
17515TIP3   OH274035   0.497   2.104  43.920 -0.6415  0.0090 -0.2552
17515TIP3    H174036   0.433   2.167  43.954 -0.8366 -0.0046 -0.5903
17515TIP3    H274037   0.556   2.088  43.993 -1.1794 -0.1810  0.1457
17516TIP3   OH274038   1.565   2.711   8.537  0.4028 -0.1674  0.6578
17516TIP3    H174039   1.478   2.749   8.548 -0.2796 -1.6135  0.5480
17516TIP3    H274040   1.552   2.641   8.473  1.5721 -0.6528  0.9287
17517TIP3   OH274041   2.240   1.093  20.649  0.0585  0.1851 -0.2634
17517TIP3    H174042   2.234   1.187  20.665  0.3966  0.3524 -1.0511
17517TIP3    H274043   2.157   1.058  20.679 -0.2246  0.7918 -0.3231
17518TIP3   OH274044   2.414   3.610   5.248 -0.2350 -0.1522  0.6324
17518TIP3    H174045   2.428   3.563   5.165  0.8570  0.1898  0.6144
17518TIP3    H274046   2.417   3.702   5.223  0.8067 -0.0316  1.1436
17519TIP3   OH274047   2.635   1.418   5.665 -0.1892  0.1053 -0.4231
17519TIP3    H174048   2.610   1.467   5.743  1.1429  0.2039 -0.0261
17519TIP3    H274049   2.592   1.333   5.675 -1.0419  0.5605 -0.2093
17520TIP3   OH274050   4.051   0.452   1.867 -0.0834 -0.3665 -0.0803
17520TIP3    H174051   4.006   0.505   1.933 -0.7090 -1.0156  0.0334
17520TIP3    H274052   4.120   0.408   1.915  0.7430  0.6884 -0.2675
17521TIP3   OH274053   0.138   0.303   5.560 -0.1328 -0.2529 -0.3443
17521TIP3    H174054   0.091   0.291   5.643 -0.9291  2.9315 -0.2115
17521TIP3    H274055   0.231   0.296   5.584 -0.3971 -1.8009  0.3163
17522TIP3   OH274056   2.815   1.905  13.674 -0.4993  1.1826 -0.5930
17522TIP3    H174057   2.762   1.975  13.712  0.6272  1.8056 -0.1489
17522TIP3    H274058   2.771   1.825  13.701 -1.3287  1.6931 -0.4054
17523TIP3   OH274059   0.387   1.224   8.835 -0.1999 -0.2908  0.7732
17523TIP3    H174060   0.402   1.318   8.832  1.5699 -0.5145 -2.5973
17523TIP3    H274061   0.293   1.215   8.852 -0.8312  2.1990 -0.8776
17524TIP3   OH274062   2.053   2.346  33.607 -0.0028  0.0821  0.1953
17524TIP3    H174063   2.138   2.333  33.566 -0.4274 -1.0749 -0.3428
17524TIP3    H274064   2.002   2.268  33.584 -0.0325 -1.0510  3.5230
17525TIP3   OH274065   3.550   2.789   2.958  0.1300 -0.5942 -0.3184
17525TIP3    H174066   3.507   2.802   2.873 -2.3419 -3.1069  0.3960
17525TIP3    H274067   3.502   2.844   3.019  0.2842 -0.6823 -0.1149
17526TIP3   OH274068   4.088   3.986  38.993  0.4743 -0.1899 -0.1463
17526TIP3    H174069   4.100   4.055  39.057  1.4617 -0.3139 -0.1739
17526TIP3    H274070   3.995   3.989  38.970  0.2540  0.2979  0.7702
17527TIP3   OH274071   1.612   2.341   8.424 -0.1975  0.0437 -0.1293
17527TIP3    H174072   1.563   2.259   8.429 -0.2972  0.0895 -0.3547
17527TIP3    H274073   1.549   2.406   8.394  0.1469 -0.0323 -1.0787
17528TIP3   OH274074   0.229   2.481  11.358 -0.8655 -0.3413  0.0458
17528TIP3    H174075   0.304   2.422  11.357 -0.5309  0.0719  0.1165
17528TIP3    H274076   0.254   2.551  11.418 -2.4728 -1.6459  2.4019
17529TIP3   OH274077   0.444   1.683   2.208  0.6761 -0.2313  0.2120
17529TIP3    H174078   0.484   1.736   2.139  1.6666  0.1247  1.0350
17529TIP3    H274079   0.439   1.595   2.170  1.9101 -0.1997 -0.0460
17530TIP3   OH274080   3.504   3.531   4.690  0.4234  0.4859 -0.2411
17530TIP3    H174081   3.455   3.584   4.753 -0.9509 -0.1265 -0.7533
17530TIP3    H274082   3.458   3.543   4.607  1.0724 -0.2110 -0.7150
17531TIP3   OH274083   0.994   3.974  10.969 -0.2887 -0.2010  0.3013
17531TIP3    H174084   0.915   3.985  10.916 -1.2929 -1.8183  1.3580
17531TIP3    H274085   1.004   3.879  10.976  1.0202 -0.0089  1.2741
17532TIP3   OH274086   3.496   2.036  15.824 -0.4410  0.1116  0.4433
17532TIP3    H174087   3.485   2.075  15.911 -1.6075  1.7716 -0.4099
17532TIP3    H274088   3.437   1.961  15.824  1.0634 -1.1517  1.7454
17533TIP3   OH274089   1.355   3.599  45.582  0.3160 -0.0693 -0.2005
17533TIP3    H174090   1.291   3.582  45.512 -0.1653  2.0182 -0.3465
17533TIP3    H274091   1.345   3.693  45.600  0.1245 -0.6158  2.9991
17534TIP3   OH274092   2.203   0.054   6.760 -0.8257  0.6162  0.3422
17534TIP3    H174093   2.231  -0.022   6.710  1.4717  2.3419 -1.2247
17534TIP3    H274094   2.204   0.025   6.851  1.0751 -0.9725 -0.1141
17535TIP3   OH274095   1.689   2.698  39.688 -0.0907 -0.7068 -0.0348
17535TIP3    H174096   1.606   2.664  39.654  0.7623 -2.9187 -0.0698
17535TIP3    H274097   1.664   2.755  39.760 -1.6542 -1.0047 -0.2989
17536TIP3   OH274098   3.755   0.796   4.682  0.2212  0.3316 -0.2455
17536TIP3    H174099   3.799   0.881   4.687  0.1098  0.6611 -3.0709
17536TIP3    H274100   3.689   0.807   4.613  0.5339 -2.1585 -1.0530
17537TIP3   OH274101   0.900   3.267  33.690 -0.7395  0.2318  0.5481
17537TIP3    H174102   0.849   3.299  33.765 -1.0617 -1.6206  1.1743
17537TIP3    H274103   0.869   3.178  33.677  0.6644 -0.1163 -0.5988
17538TIP3   OH274104   1.482   3.224  32.088  0.4540  0.0721  0.3256
17538TIP3    H174105   1.482   3.156  32.155 -0.9279 -0.2251  0.0609
17538TIP3    H274106   1.541   3.191  32.020 -1.4930 -1.7471 -0.6040
17539TIP3   OH274107   2.017   2.252  20.756  0.1309 -0.4933  0.1758
17539TIP3    H174108   1.992   2.341  20.782 -0.6906 -0.3055 -1.1940
17539TIP3    H274109   2.018   2.203  20.838  0.9371  0.8458  1.0113
17540TIP3   OH274110   3.532   3.672  25.307  0.6924  0.0141 -0.0579
17540TIP3    H174111   3.488   3.725  25.240  0.1549 -0.1650  0.1534
17540TIP3    H274112   3.501   3.583  25.292  0.9081 -0.0972  0.1505
17541TIP3   OH274113   2.346   3.037  44.327  0.0613 -0.2994  0.4820
17541TIP3    H174114   2.342   2.960  44.384 -0.5185 -1.6603 -1.3297
17541TIP3    H274115   2.429   3.027  44.279 -0.6562 -0.5466 -0.7405
17542TIP3   OH274116   2.532   2.260  18.903 -0.3220  0.7106  0.0950
17542TIP3    H174117   2.564   2.175  18.873 -0.9543  0.5675 -0.1692
17542TIP3    H274118   2.582   2.277  18.983 -1.0504 -0.4714  0.8243
17543TIP3   OH274119   2.847   0.944  37.025 -0.1528  0.7050 -0.0581
17543TIP3    H174120   2.941   0.949  37.040  0.2113 -2.8597 -0.3793
17543TIP3    H274121   2.822   0.858  37.058 -2.5527 -0.1153 -3.5002
17544TIP3   OH274122   3.336   1.704  35.475 -0.0478  0.0614 -0.1776
17544TIP3    H174123   3.288   1.786  35.466 -1.3785 -0.6139  0.4764
17544TIP3    H274124   3.367   1.704  35.565 -3.5191 -1.8657  1.2213
17545TIP3   OH274125   2.151   2.678   7.213  0.2315  0.2921 -0.0164
17545TIP3    H174126   2.206   2.729   7.271  0.2582 -0.4592  0.6324
17545TIP3    H274127   2.062   2.699   7.239  0.0278  3.3631 -2.6195
17546TIP3   OH274128   3.844   0.009  38.957 -0.1319 -0.3832 -0.5481
17546TIP3    H174129   3.842   0.103  38.975  0.6378 -0.5023  0.2379
17546TIP3    H274130   3.773  -0.028  39.010  0.4786 -0.4102  0.2716
17547TIP3   OH274131   1.023   0.964  32.970 -0.5452 -0.2603 -0.0235
17547TIP3    H174132   1.096   0.989  32.913  0.0550 -1.6807  0.0524
17547TIP3    H274133   1.009   1.039  33.027 -0.6750  0.9122 -1.5536
17548TIP3   OH274134   2.867   0.276  38.176 -0.0630  0.6724 -0.4137
17548TIP3    H174135   2.907   0.362  38.164 -0.1702  0.5860 -1.4773
17548TIP3    H274136   2.897   0.225  38.101  1.4165 -0.7852  1.0722
17549TIP3   OH274137   3.612   0.386  35.178  0.1180 -0.0833 -0.2811
17549TIP3    H174138   3.690   0.341  35.210 -0.5627 -0.4203  0.9411
17549TIP3    H274139   3.610   0.469  35.225  0.0108  0.1567 -0.6958
17550TIP3   OH274140   0.000   0.159  36.947  0.4772 -0.2753 -0.4157
17550TIP3    H174141  -0.023   0.078  36.902  1.1434 -0.7775  0.1261
17550TIP3    H274142   0.093   0.150  36.966  0.0341 -0.5176  1.9175
17551TIP3   OH274143   2.673   3.998  44.824 -0.3685  0.2084  0.1252
17551TIP3    H174144   2.743   3.936  44.848  0.2135  0.1131 -1.6638
17551TIP3    H274145   2.716   4.083  44.820 -0.6123  0.3341  0.1568
17552TIP3   OH274146   0.939   1.751  35.313 -0.4488 -0.1284 -0.3758
17552TIP3    H174147   0.903   1.823  35.261  0.0658  1.0432  0.8292
17552TIP3    H274148   1.019   1.787  35.351  0.2838 -1.6487 -0.4406
17553TIP3   OH274149   2.119   2.687  36.921 -0.1740 -0.1153 -0.4175
17553TIP3    H174150   2.170   2.765  36.941 -1.0145  0.1738  0.7778
17553TIP3    H274151   2.165   2.615  36.965 -0.9859  0.2185  1.0644
17554TIP3   OH274152   3.496   0.390  12.033  0.7389  0.3007 -0.0629
17554TIP3    H174153   3.565   0.455  12.046  1.0024  0.1813 -0.8468
17554TIP3    H274154   3.426   0.418  12.092  1.0495  1.0156 -0.0242
17555TIP3   OH274155   1.203   2.350   6.571 -0.0420 -0.1275 -0.3350
17555TIP3    H174156   1.224   2.262   6.602  0.6666  0.3066  0.4573
17555TIP3    H274157   1.174   2.337   6.481  0.2674 -1.1466 -0.3009
17556TIP3   OH274158   1.619   3.580  11.283 -0.0582 -0.1788  0.1919
17556TIP3    H174159   1.540   3.536  11.314 -0.5090  0.6443  0.2536
17556TIP3    H274160   1.603   3.597  11.190  0.1297 -0.1916  0.1571
17557TIP3   OH274161   0.639   0.051  27.024  0.1678 -0.2530  0.4858
17557TIP3    H174162   0.692   0.103  26.964 -1.8056 -0.5744 -1.6943
17557TIP3    H274163   0.646  -0.038  26.990  0.5453 -0.8054  1.9507
17558TIP3   OH274164   1.510   2.667   2.721  0.0771  0.7429 -0.0361
17558TIP3    H174165   1.416   2.671   2.742  0.5029 -1.2049  2.7366
17558TIP3    H274166   1.512   2.646   2.628 -2.2840 -0.1282  0.0274
17559TIP3   OH274167   1.272   3.315  15.112  0.1938 -0.0311 -0.3656
17559TIP3    H174168   1.353   3.289  15.068  0.0767  0.0331 -0.6203
17559TIP3    H274169   1.212   3.337  15.040 -0.5589 -1.5677 -0.2409
17560TIP3   OH274170   2.848   2.800   5.289 -0.5674  0.6870  0.2451
17560TIP3    H174171   2.798   2.801   5.208 -0.2679  1.1029  0.0596
17560TIP3    H274172   2.797   2.746   5.349 -0.5222 -0.0549 -0.3859
17561TIP3   OH274173   0.067   0.013  37.545  0.3477 -0.4585 -0.1335
17561TIP3    H174174   0.077   0.056  37.460  2.5126  0.5823  0.5723
17561TIP3    H274175   0.138  -0.050  37.548 -0.1178 -0.9588  0.6435
17562TIP3   OH274176   1.153   1.790  16.722  0.1106  0.0043  0.5523
17562TIP3    H174177   1.098   1.796  16.800 -0.3689 -2.1862  0.4362
17562TIP3    H274178   1.092   1.801  16.649 -0.3115 -2.6670  0.4161
17563TIP3   OH274179   1.025   0.304  32.099 -0.2987  0.3761  0.3624
17563TIP3    H174180   1.116   0.320  32.123  0.0352  1.2344 -1.3012
17563TIP3    H274181   0.993   0.241  32.163  1.5788 -0.2388  0.7424
17564TIP3   OH274182   1.127   1.619  20.468  0.1573  0.3483  0.4974
17564TIP3    H174183   1.188   1.603  20.396 -0.4803  1.5540 -0.3333
17564TIP3    H274184   1.101   1.531  20.497  0.8509 -0.1568 -0.3652
17565TIP3   OH274185   0.009   1.985  37.583  0.1023  0.2595 -0.0253
17565TIP3    H174186   0.026   2.079  37.577  0.9517  0.0441 -1.5677
17565TIP3    H274187   0.095   1.945  37.597 -0.2081 -0.3081  0.3053
17566TIP3   OH274188   3.141   1.769  31.098  0.2652  0.2536 -0.2172
17566TIP3    H174189   3.213   1.779  31.160  0.8103  0.0199 -0.8053
17566TIP3    H274190   3.080   1.710  31.141 -0.0246  1.1646  0.6760
17567TIP3   OH274191   1.167   2.290  46.053 -0.1726 -0.4420  0.1096
17567TIP3    H174192   1.211   2.272  45.969 -1.8185 -1.3834 -0.5852
17567TIP3    H274193   1.104   2.219  46.063 -3.2202  2.0238 -0.0966
17568TIP3   OH274194   1.775   3.485  36.762  0.1425  0.1214  0.4064
17568TIP3    H174195   1.849   3.429  36.787  0.9838  0.7185 -0.6704
17568TIP3    H274196   1.749   3.452  36.676 -0.0977  0.6545  0.2744
17569TIP3   OH274197   2.233   2.915  11.765  0.3586 -0.1927 -0.0076
17569TIP3    H174198   2.304   2.873  11.814  3.2935 -0.0620 -3.7450
17569TIP3    H274199   2.265   3.004  11.749 -2.3655  1.1163  1.2358
17570TIP3   OH274200   1.038   0.793   5.359 -0.3106  0.5893  0.1487
17570TIP3    H174201   1.061   0.719   5.302 -1.2044  0.2260  0.2448
17570TIP3    H274202   0.981   0.755   5.426 -2.6995  1.7224 -1.0887
17571TIP3   OH274203   3.504   0.239  31.557  0.2027  0.1176 -0.3283
17571TIP3    H174204   3.551   0.156  31.564  0.8937  0.2814 -2.3405
17571TIP3    H274205   3.529   0.273  31.472  0.1377  2.5391  0.5496
17572TIP3   OH274206   1.676   1.768  41.029 -0.3156 -0.0904  0.0127
17572TIP3    H174207   1.698   1.675  41.034 -0.9424 -0.1922  1.1680
17572TIP3    H274208   1.635   1.779  40.943 -0.4773 -0.9274 -0.0221
17573TIP3   OH274209   3.641   1.166  36.945  0.1266  0.5505  0.0218
17573TIP3    H174210   3.589   1.241  36.974 -1.0947 -1.1403  2.6824
17573TIP3    H274211   3.575   1.100  36.921  1.1410 -0.1060 -1.0395
17574TIP3   OH274212   1.460   1.240  16.470 -0.7334 -0.1450 -0.3955
17574TIP3    H174213   1.508   1.157  16.473 -1.2881 -0.4502  1.1858
17574TIP3    H274214   1.367   1.214  16.473 -0.9046  0.5199  2.3508
17575TIP3   OH274215   3.764   0.824  36.759 -0.3043 -0.7742 -0.3326
17575TIP3    H174216   3.673   0.847  36.777 -0.5251 -0.2893 -1.9894
17575TIP3    H274217   3.812   0.906  36.767 -0.3723 -0.5899 -1.6547
17576TIP3   OH274218   0.428   0.135  41.995 -0.2551 -0.0146  0.4373
17576TIP3    H174219   0.427   0.056  42.049 -0.2548 -0.0054  0.4502
17576TIP3    H274220   0.350   0.184  42.022 -0.4804 -0.2059  0.1368
17577TIP3   OH274221   0.712   3.458   8.577  0.3671 -0.2005 -0.4183
17577TIP3    H174222   0.662   3.412   8.510 -0.2218  0.7529 -0.6591
17577TIP3    H274223   0.649   3.519   8.616  0.8104 -0.4460  0.7139
17578TIP3   OH274224   4.004   3.801  27.115 -0.4213  0.2443 -0.0051
17578TIP3    H174225   3.956   3.874  27.076 -0.9812 -0.0287  0.1678
17578TIP3    H274226   4.038   3.836  27.197 -0.4605  0.3873 -0.0498
17579TIP3   OH274227   2.620   1.071   8.354  0.2407 -0.0969 -0.0826
17579TIP3    H174228   2.584   1.153   8.386 -1.4693 -1.1023  0.6914
17579TIP3    H274229   2.544   1.018   8.331  1.3327 -0.8498 -2.2511
17580TIP3   OH274230   1.391   1.644  15.950  0.4242 -0.4286 -0.0808
17580TIP3    H174231   1.473   1.595  15.957  0.1299 -0.9014  0.0986
17580TIP3    H274232   1.342   1.598  15.883  1.2067  1.1762 -1.8465
17581TIP3   OH274233   0.593   0.930  15.049 -0.4078 -0.9223  0.1172
17581TIP3    H174234   0.506   0.897  15.073 -0.5501 -0.6894 -0.0762
17581TIP3    H274235   0.650   0.853  15.056 -0.1522 -0.5721  2.6125
17582TIP3   OH274236   3.711   3.544   9.625 -0.0469 -0.4576 -0.2147
17582TIP3    H174237   3.628   3.512   9.662  1.2099  0.5577  4.0463
17582TIP3    H274238   3.697   3.637   9.611  0.9739  0.3781  3.2760
17583TIP3   OH274239   3.236   2.323  13.161  0.8993 -0.0238 -0.7143
17583TIP3    H174240   3.175   2.304  13.232  0.7640  0.4194 -0.7117
17583TIP3    H274241   3.268   2.411  13.180  1.7857 -0.3677 -0.5334
17584TIP3   OH274242   1.776   0.639  13.833  0.3436  0.5137  0.0673
17584TIP3    H174243   1.694   0.605  13.797 -1.3127  2.3824  1.8185
17584TIP3    H274244   1.835   0.642  13.758 -1.0928 -1.0767 -1.2272
17585TIP3   OH274245   3.475   1.865  15.429  0.0749  0.0374 -0.2506
17585TIP3    H174246   3.545   1.879  15.365  0.8688  2.4395  0.9886
17585TIP3    H274247   3.521   1.829  15.506 -0.9117 -3.1426 -1.0215
17586TIP3   OH274248   0.050   3.227  44.391 -0.6487  0.1839 -0.1092
17586TIP3    H174249  -0.030   3.270  44.424 -0.8396  0.7288 -1.2454
17586TIP3    H274250   0.078   3.282  44.318  0.0671 -0.7021 -0.5131
17587TIP3   OH274251   3.048   0.363  34.535  0.2640  0.0359  0.5064
17587TIP3    H174252   3.051   0.438  34.594  0.4364 -1.4002  2.4223
17587TIP3    H274253   3.138   0.357  34.501 -0.5472  2.7934 -2.6019
17588TIP3   OH274254   1.387   3.835   1.891 -0.1439 -0.0072  0.4196
17588TIP3    H174255   1.331   3.763   1.921 -1.2901  0.2006 -1.0835
17588TIP3    H274256   1.476   3.807   1.912 -0.7623 -0.3317  2.9573
17589TIP3   OH274257   1.591   2.923  43.508 -0.3261 -0.0969 -0.2782
17589TIP3    H174258   1.583   2.840  43.556 -0.9015  1.0725  1.7821
17589TIP3    H274259   1.681   2.952  43.525 -0.1070 -0.2967 -1.0420
17590TIP3   OH274260   1.066   1.407  12.952  0.0822  0.0730  1.0163
17590TIP3    H174261   1.041   1.320  12.919 -0.9001  0.8463 -0.3481
17590TIP3    H274262   1.044   1.404  13.045 -1.3976 -0.6418  0.6775
17591TIP3   OH274263   0.808   3.017   7.220 -0.0988  0.2219 -0.8666
17591TIP3    H174264   0.833   2.965   7.296  1.6099  0.4718 -1.2194
17591TIP3    H274265   0.723   3.054   7.243 -0.4757 -1.2137  0.1392
17592TIP3   OH274266   1.734   0.749  34.533 -0.2567 -0.1475 -0.2829
17592TIP3    H174267   1.669   0.815  34.559  0.6498 -0.2768  2.6484
17592TIP3    H274268   1.809   0.800  34.502 -0.5014  0.0967 -0.4809
17593TIP3   OH274269   3.836   3.825  11.269  0.1588 -0.4901  0.1895
17593TIP3    H174270   3.844   3.848  11.362 -1.1222 -2.1824  0.7695
17593TIP3    H274271   3.927   3.820  11.239  0.7853 -2.5307  2.0884
17594TIP3   OH274272   0.904   1.758  36.277  0.6727  0.3202  0.0005
17594TIP3    H174273   0.861   1.825  36.329  0.6209  0.6268 -0.4264
17594TIP3    H274274   0.833   1.702  36.246  0.6614  0.3713 -0.0666
17595TIP3   OH274275   3.180   0.058   2.298 -0.6365 -0.1809  0.2685
17595TIP3    H174276   3.263   0.069   2.251  0.2083  1.4819  2.0144
17595TIP3    H274277   3.130   0.137   2.278 -1.2423 -0.5570  0.2799
17596TIP3   OH274278   4.020   0.516   4.009  0.2932  0.3898  0.0888
17596TIP3    H174279   4.083   0.445   3.993  0.4527  0.3812  0.7546
17596TIP3    H274280   3.993   0.543   3.921  0.5214 -0.2349 -0.1794
17597TIP3   OH274281   1.114   1.208   1.530  0.0229 -0.0184  0.2568
17597TIP3    H174282   1.020   1.201   1.551 -0.4524  2.5431 -0.6296
17597TIP3    H274283   1.138   1.295   1.559  1.9523 -0.3222 -0.3209
17598TIP3   OH274284   2.025   1.368  22.471 -0.0435 -0.4710  0.2891
17598TIP3    H174285   2.049   1.276  22.462 -0.8757 -1.1178  3.5282
17598TIP3    H274286   2.108   1.412  22.487  0.3167 -0.6585 -0.9219
17599TIP3   OH274287   1.015   1.481  46.620 -0.5853 -0.0892 -0.1968
17599TIP3    H174288   0.979   1.425  46.552 -0.6570 -0.0285 -0.2062
17599TIP3    H274289   0.998   1.434  46.701 -0.8082  0.0037 -0.1883
17600TIP3   OH274290   2.281   0.813  43.341 -0.2144 -0.3934  0.1203
17600TIP3    H174291   2.320   0.743  43.393  1.3136  0.7390  0.5909
17600TIP3    H274292   2.259   0.772  43.257  0.2972 -1.5144  0.5270
17601TIP3   OH274293   2.381   1.616  17.830  0.5452  0.0442  0.3350
17601TIP3    H174294   2.324   1.675  17.879 -0.4277  0.2362 -0.9733
17601TIP3    H274295   2.462   1.613  17.880 -0.2543  0.5814  1.6951
17602TIP3   OH274296   3.524   2.858  38.956  0.2495  0.8823  0.3589
17602TIP3    H174297   3.586   2.924  38.924  1.7728  0.2776  1.9002
17602TIP3    H274298   3.469   2.904  39.018  1.4636  0.7128  1.6090
17603TIP3   OH274299   0.094   2.079  44.925 -0.0716 -0.2990  0.4629
17603TIP3    H174300   0.137   2.074  45.011  2.5782 -0.8607 -0.7882
17603TIP3    H274301   0.164   2.059  44.863 -1.8123  0.5491 -1.8771
17604TIP3   OH274302   2.451   3.790  36.192  0.0571 -0.1213  0.4320
17604TIP3    H174303   2.480   3.860  36.134  0.6537  0.2096  1.1170
17604TIP3    H274304   2.437   3.715  36.134 -0.0359  0.3974 -0.2303
17605TIP3   OH274305   2.340   0.914  20.484  0.6171 -0.1437 -0.5546
17605TIP3    H174306   2.293   0.915  20.400 -0.6288 -1.0953  0.0996
17605TIP3    H274307   2.298   0.982  20.536  1.3317  0.3843 -0.6458
17606TIP3   OH274308   3.245   3.664   8.601 -0.2365  0.1119  0.1941
17606TIP3    H174309   3.313   3.709   8.650  0.0052  0.2005 -0.2154
17606TIP3    H274310   3.256   3.696   8.511 -1.1088  0.4826  0.2058
17607TIP3   OH274311   0.171   2.631  33.417  0.0157 -0.1291 -0.1017
17607TIP3    H174312   0.118   2.666  33.345  0.0307  1.6352  0.6911
17607TIP3    H274313   0.251   2.601  33.375  0.7852  2.4898 -0.7226
17608TIP3   OH274314   1.524   0.170   1.210  0.5734 -0.2204  0.6369
17608TIP3    H174315   1.457   0.238   1.205  1.1345  0.2962 -0.0167
17608TIP3    H274316   1.557   0.175   1.300  0.4075  0.1687  0.6759
17609TIP3   OH274317   1.151   2.394  33.956  0.4083 -0.2527 -0.0641
17609TIP3    H174318   1.126   2.316  33.907  2.6015 -1.1625  0.1373
17609TIP3    H274319   1.088   2.400  34.028 -0.1983 -1.4286 -0.4827
17610TIP3   OH274320   3.418   0.995  31.525 -0.1887  0.0917  0.0085
17610TIP3    H174321   3.400   0.986  31.431 -4.1050  0.5805  0.5374
17610TIP3    H274322   3.462   0.914  31.549  0.7943 -0.0970 -2.1807
17611TIP3   OH274323   1.398   0.974  39.540 -0.1160  0.1232  0.2531
17611TIP3    H174324   1.362   0.886  39.540  1.0078 -0.3674  0.7414
17611TIP3    H274325   1.466   0.973  39.472  1.1777  0.0197  1.4943
17612TIP3   OH274326   2.389   3.917  27.701  0.5291 -0.1628  0.1478
17612TIP3    H174327   2.472   3.949  27.666  0.4590  2.0186  1.7723
17612TIP3    H274328   2.323   3.947  27.638  0.7139  0.7795  0.3863
17613TIP3   OH274329   3.674   1.550   6.860 -0.4292  1.0772  0.3530
17613TIP3    H174330   3.615   1.475   6.857  0.9874 -0.1688  1.4209
17613TIP3    H274331   3.637   1.607   6.927 -0.7977  0.6423  0.5239
17614TIP3   OH274332   0.377   3.758  13.376 -0.0650  0.1736 -0.4310
17614TIP3    H174333   0.433   3.716  13.442 -0.7229 -0.6114 -0.3486
17614TIP3    H274334   0.438   3.808  13.321  0.5798  0.2326  0.3151
17615TIP3   OH274335   2.849   2.193   4.809  0.1878 -0.1055  0.0238
17615TIP3    H174336   2.906   2.116   4.814  0.6005  0.2292  0.4187
17615TIP3    H274337   2.904   2.266   4.835  0.0395  0.4625 -1.1696
17616TIP3   OH274338   1.802   2.148  15.948  0.6078  0.2605  0.3044
17616TIP3    H174339   1.717   2.122  15.986  0.3748  0.0534 -0.3468
17616TIP3    H274340   1.790   2.239  15.922  0.6811  0.3220  0.4873
17617TIP3   OH274341   0.853   2.778  14.735  0.0693 -0.0380 -0.2285
17617TIP3    H174342   0.900   2.859  14.719  0.3604  0.0982  1.1670
17617TIP3    H274343   0.772   2.806  14.778 -0.4034 -0.4081 -0.8632
17618TIP3   OH274344   0.052   2.213   0.367 -0.2728  0.0240  0.4763
17618TIP3    H174345  -0.015   2.172   0.312 -1.0465  2.1208 -0.2205
17618TIP3    H274346   0.022   2.196   0.457 -1.3477  0.3001  0.1863
17619TIP3   OH274347   3.958   1.538   4.176  0.5267  0.2993  0.0844
17619TIP3    H174348   3.864   1.552   4.188  0.7665  0.9519  1.4888
17619TIP3    H274349   3.972   1.445   4.198  0.6166  0.9420  3.3226
17620TIP3   OH274350   2.701   0.033  37.623 -0.0815 -0.1804 -0.3439
17620TIP3    H174351   2.770   0.097  37.636  1.4251 -1.3622 -2.0846
17620TIP3    H274352   2.620   0.084  37.632  1.0073  1.5921  0.0208
17621TIP3   OH274353   3.673   2.330  41.039  0.1179  0.1995  0.0607
17621TIP3    H174354   3.728   2.283  41.101 -0.3755  0.3527  0.6277
17621TIP3    H274355   3.584   2.306  41.064 -0.1198  1.0026  0.0142
17622TIP3   OH274356   3.857   0.701   4.429  0.5022 -0.0256 -0.0037
17622TIP3    H174357   3.839   0.777   4.374  1.5669 -0.0671 -0.4214
17622TIP3    H274358   3.868   0.738   4.517 -0.0897  0.1709 -0.0091
17623TIP3   OH274359   0.112   1.340  16.145  0.1631  0.3143 -0.1343
17623TIP3    H174360   0.026   1.299  16.140  0.4605 -0.6998  1.7475
17623TIP3    H274361   0.165   1.294  16.079 -0.4136  0.0643 -0.4257
17624TIP3   OH274362   3.416   0.658   9.283 -0.0306 -0.7907 -0.3364
17624TIP3    H174363   3.445   0.720   9.350  1.7190 -0.8165 -1.0078
17624TIP3    H274364   3.426   0.705   9.201  0.3084 -1.6030 -0.7728
17625TIP3   OH274365   1.450   3.959   6.104 -0.2291  0.3727 -0.2911
17625TIP3    H174366   1.477   4.048   6.126  1.9296 -0.4235  0.5061
17625TIP3    H274367   1.511   3.931   6.036 -1.5468 -0.1742 -1.3053
17626TIP3   OH274368   3.817   3.461   7.239  0.2376 -0.0030  0.2108
17626TIP3    H174369   3.756   3.519   7.194 -1.3333 -1.5587  0.2467
17626TIP3    H274370   3.861   3.518   7.302 -0.7772  1.2809 -0.1830
17627TIP3   OH274371   3.357   2.207  12.399 -0.1944 -0.4573  0.2162
17627TIP3    H174372   3.390   2.289  12.435 -0.0734 -0.3354 -0.1720
17627TIP3    H274373   3.407   2.139  12.444  0.3328 -0.2865 -0.1096
17628TIP3   OH274374   3.219   1.116  21.693  0.1086  0.2718 -0.0104
17628TIP3    H174375   3.146   1.067  21.656 -0.5765  1.3004 -0.0444
17628TIP3    H274376   3.182   1.163  21.767  0.3787  1.9128 -0.8639
17629TIP3   OH274377   3.009   0.033  10.294  0.4366  0.2167 -0.0530
17629TIP3    H174378   3.064   0.080  10.231 -0.2972  0.8145 -0.2686
17629TIP3    H274379   2.975  -0.042  10.245  0.7705  0.0478 -0.0271
17630TIP3   OH274380   2.327   4.085  36.857  0.9024 -0.1622 -0.2109
17630TIP3    H174381   2.258   4.048  36.802  0.1460  0.8442  0.0248
17630TIP3    H274382   2.407   4.072  36.807  0.4664 -0.8306 -0.7570
17631TIP3   OH274383   2.435   3.404   4.578  1.0492  0.0322  0.4339
17631TIP3    H174384   2.374   3.334   4.555  0.5644 -0.1536  2.1247
17631TIP3    H274385   2.410   3.478   4.522  0.7962 -0.7721 -0.5325
17632TIP3   OH274386   1.859   2.256  43.983  0.3300 -0.2508 -0.0662
17632TIP3    H174387   1.881   2.275  44.074  1.3023  0.0613 -0.3535
17632TIP3    H274388   1.784   2.197  43.988 -0.4067  0.7441  0.9075
17633TIP3   OH274389   0.248   3.526   6.472 -0.0091  0.2626  0.0512
17633TIP3    H174390   0.243   3.616   6.503  0.3951  0.4079 -0.3090
17633TIP3    H274391   0.340   3.512   6.450 -0.4533  0.5320 -2.1737
17634TIP3   OH274392   1.305   3.011  38.476  0.5412  0.0080 -0.7187
17634TIP3    H174393   1.308   3.063  38.556 -0.5233 -0.5442 -0.2949
17634TIP3    H274394   1.292   2.921  38.507 -1.3812 -0.0384 -1.5310
17635TIP3   OH274395   2.287   4.108  30.993  0.8643 -0.3363  0.1443
17635TIP3    H174396   2.305   4.183  30.936  0.5121  0.8353  1.5153
17635TIP3    H274397   2.333   4.035  30.951  0.3804  0.3935 -1.7739
17636TIP3   OH274398   3.863   3.640  42.766 -0.0494  0.1098 -0.2238
17636TIP3    H174399   3.808   3.638  42.844  1.2401 -2.0534  0.7075
17636TIP3    H274400   3.920   3.716  42.779 -0.1659  0.0463  0.7040
17637TIP3   OH274401   0.048   0.143  42.749 -0.2380  0.2989 -0.6183
17637TIP3    H174402   0.132   0.188  42.741  0.8545 -1.8360 -2.2094
17637TIP3    H274403   0.060   0.081  42.821 -0.5910  0.2477 -0.5984
17638TIP3   OH274404   2.896   3.388  37.308  0.4249 -0.0399 -0.1162
17638TIP3    H174405   2.929   3.299  37.301  0.4409  0.0402 -1.2231
17638TIP3    H274406   2.882   3.416  37.218 -1.7390  0.2752  0.2554
17639TIP3   OH274407   3.641   2.280   3.197 -0.6931  0.1824  0.8204
17639TIP3    H174408   3.563   2.229   3.221 -0.9940  0.6790  0.9090
17639TIP3    H274409   3.609   2.370   3.190 -0.3399  0.2473 -0.1233
17640TIP3   OH274410   0.099   1.392  47.440 -0.1490  0.3843  0.3709
17640TIP3    H174411   0.084   1.324  47.506 -0.2616 -0.2731 -0.3128
17640TIP3    H274412   0.087   1.347  47.356 -1.5704  1.5594 -0.0891
17641TIP3   OH274413   3.299   3.325  39.825 -0.4979 -0.0319 -0.0111
17641TIP3    H174414   3.247   3.334  39.905 -0.7280 -0.5618 -0.0971
17641TIP3    H274415   3.338   3.237  39.831  0.3687  0.3399  0.0354
17642TIP3   OH274416   3.180   0.449  38.429 -0.8630 -0.2099 -0.2500
17642TIP3    H174417   3.191   0.509  38.355 -0.1304 -1.7226 -1.4145
17642TIP3    H274418   3.264   0.404  38.436 -0.3051  1.0254  2.6021
17643TIP3   OH274419   0.876   3.373   5.980  0.4505 -0.0364  1.2860
17643TIP3    H174420   0.819   3.431   6.031 -0.8763 -0.0816 -0.0688
17643TIP3    H274421   0.928   3.432   5.925 -1.2348 -0.0299 -0.4433
17644TIP3   OH274422   3.533   1.346  14.346 -0.1070 -0.4887 -0.1558
17644TIP3    H174423   3.572   1.293  14.416  0.1247  0.8582  0.7853
17644TIP3    H274424   3.587   1.425  14.343 -1.5087  0.5187 -0.2220
17645TIP3   OH274425   3.902   0.568  15.853 -0.9046  0.2858 -0.5928
17645TIP3    H174426   3.950   0.619  15.918 -0.0596 -0.0191 -0.9584
17645TIP3    H274427   3.811   0.593  15.866 -0.7514  0.2600  0.6788
17646TIP3   OH274428   2.260   0.211   9.814  0.0341 -0.8166 -0.3606
17646TIP3    H174429   2.290   0.121   9.801  0.4450 -0.5689 -1.1574
17646TIP3    H274430   2.230   0.240   9.728 -1.1248 -0.5501  0.1111
17647TIP3   OH274431   2.701   1.973   5.103  0.4492  0.0190  0.0916
17647TIP3    H174432   2.617   1.950   5.143 -1.0788  2.5893 -1.3445
17647TIP3    H274433   2.715   2.064   5.128  2.3530 -0.0622 -0.5341
17648TIP3   OH274434   0.561   3.888  10.700 -0.1485 -0.4086  0.1099
17648TIP3    H174435   0.523   3.869  10.614  0.4298 -1.4433  0.0682
17648TIP3    H274436   0.486   3.901  10.758 -0.5572 -1.1392 -0.2433
17649TIP3   OH274437   1.316   2.269   9.498 -0.3208  0.0300 -0.1080
17649TIP3    H174438   1.312   2.355   9.457  1.6375 -0.5591 -1.7032
17649TIP3    H274439   1.234   2.262   9.547  0.1341  3.4077  1.4201
17650TIP3   OH274440   2.547   2.377  44.804  0.0320 -0.0315  0.1034
17650TIP3    H174441   2.606   2.381  44.728 -3.5280 -0.7477 -2.9952
17650TIP3    H274442   2.494   2.299  44.788 -3.3631  1.8465  1.2895
17651TIP3   OH274443   3.104   1.337   0.499 -0.4111  0.7566  0.3934
17651TIP3    H174444   3.073   1.344   0.409 -0.4970  1.6534  0.4835
17651TIP3    H274445   3.175   1.401   0.504  1.9197 -1.6456  0.0210
17652TIP3   OH274446   2.925   3.174  12.972  0.1593 -0.2124  0.3329
17652TIP3    H174447   2.957   3.112  13.038  0.5201 -2.4006 -1.7729
17652TIP3    H274448   3.003   3.226  12.949 -0.0604  0.8534  1.8349
17653TIP3   OH274449   2.151   1.654   4.412 -0.2075 -0.0171  0.4034
17653TIP3    H174450   2.078   1.636   4.353 -1.9204  0.2049  2.3180
17653TIP3    H274451   2.226   1.671   4.355 -1.8904  0.7830 -1.6723
17654TIP3   OH274452   0.468   2.852  41.653 -0.0303 -0.5124  0.3820
17654TIP3    H174453   0.502   2.877  41.739  0.0423  1.0621 -0.0705
17654TIP3    H274454   0.540   2.804  41.612  1.6071  2.3225 -0.3512
17655TIP3   OH274455   0.354   0.574   2.916 -0.6427 -0.0641 -0.2703
17655TIP3    H174456   0.267   0.550   2.884 -0.2882 -0.7821 -0.7036
17655TIP3    H274457   0.341   0.590   3.010 -1.1044 -0.8366 -0.1966
17656TIP3   OH274458   2.251   0.004   9.011 -0.1417 -0.0841 -0.6446
17656TIP3    H174459   2.176   0.058   9.036  0.1407 -0.0590  0.1817
17656TIP3    H274460   2.213  -0.065   8.957 -0.8493 -0.3615  0.1770
17657TIP3   OH274461   3.841   1.899  21.130 -0.6333 -0.5295 -0.0640
17657TIP3    H174462   3.819   1.806  21.123  1.8051 -1.1730 -0.1102
17657TIP3    H274463   3.886   1.920  21.048  3.9593 -0.9700  1.9965
17658TIP3   OH274464   2.384   3.966  30.429 -0.2289 -0.1818  0.5261
17658TIP3    H174465   2.360   3.957  30.337  1.0904  1.4561 -0.0223
17658TIP3    H274466   2.429   4.050  30.434  0.4808 -0.6298  2.5044
17659TIP3   OH274467   3.653   0.566   6.432  0.1735 -0.0656  0.6055
17659TIP3    H174468   3.609   0.482   6.446 -0.1010 -0.1213 -0.5483
17659TIP3    H274469   3.586   0.632   6.452  0.7808 -0.0528  2.8894
17660TIP3   OH274470   4.095   3.190   3.153  0.6731 -0.2017  0.3888
17660TIP3    H174471   4.123   3.231   3.072 -1.2180 -2.3625 -1.4963
17660TIP3    H274472   4.000   3.206   3.157  0.5519 -1.0756  1.5906
17661TIP3   OH274473   0.792   1.544  10.124 -0.1907  0.1067  0.3850
17661TIP3    H174474   0.714   1.551  10.070  1.0720  1.2561 -1.4161
17661TIP3    H274475   0.782   1.611  10.191 -1.4638 -0.8783  1.2376
17662TIP3   OH274476   3.464   3.592  34.518 -0.5983  0.3757  0.0863
17662TIP3    H174477   3.462   3.612  34.425 -2.6315  0.2881  0.0655
17662TIP3    H274478   3.410   3.513  34.527 -2.1942  1.5734  1.5537
17663TIP3   OH274479   3.228   2.311  36.549  0.2681  0.3328 -0.0767
17663TIP3    H174480   3.165   2.376  36.517  0.3281  0.0443 -0.7981
17663TIP3    H274481   3.207   2.302  36.642  0.0078  1.0959 -0.0544
17664TIP3   OH274482   2.150   3.212  14.683  0.0085 -0.1070  0.0946
17664TIP3    H174483   2.162   3.150  14.754 -0.5199 -0.3271 -0.0014
17664TIP3    H274484   2.073   3.264  14.709  0.3882  0.4457  0.1322
17665TIP3   OH274485   1.111   2.955  15.106 -0.3898  0.5605  0.4260
17665TIP3    H174486   1.044   2.890  15.087 -0.9506  1.3919 -0.4855
17665TIP3    H274487   1.131   2.996  15.022  1.9732 -0.3113  0.4637
17666TIP3   OH274488   1.063   0.703   1.061 -0.1394  0.4538  0.4546
17666TIP3    H174489   1.064   0.694   1.156  0.3417 -1.1802  0.3229
17666TIP3    H274490   1.008   0.631   1.030 -0.4312  1.0666 -0.5066
17667TIP3   OH274491   3.828   2.508  17.152  0.0736  0.4746  0.4044
17667TIP3    H174492   3.827   2.586  17.208  0.4884  1.3138 -0.7102
17667TIP3    H274493   3.905   2.459  17.181 -0.4671  0.2051  1.4478
17668TIP3   OH274494   3.122   0.299  46.616 -0.7074  0.0735  0.4444
17668TIP3    H174495   3.155   0.301  46.706 -0.8275 -1.6155  0.5589
17668TIP3    H274496   3.155   0.217  46.580 -1.7916  0.0758 -0.6173
17669TIP3   OH274497   4.009   1.704   1.895  0.3873 -0.4855  0.2231
17669TIP3    H174498   4.021   1.799   1.902 -0.4743 -0.3673  0.2144
17669TIP3    H274499   3.950   1.693   1.821  1.7746 -1.1446 -0.8282
17670TIP3   OH274500   3.337   1.892  43.559  0.0362  0.0513 -0.6417
17670TIP3    H174501   3.270   1.930  43.501 -0.1902  0.8574  0.1244
17670TIP3    H274502   3.357   1.962  43.621  1.1851 -0.3751 -0.5030
17671TIP3   OH274503   1.991   0.400  26.945  0.1086  0.3122  0.2891
17671TIP3    H174504   2.000   0.392  26.850 -1.1329 -1.2045  0.2662
17671TIP3    H274505   1.901   0.375  26.964  0.3726  0.4271  1.8853
17672TIP3   OH274506   2.796   2.553  14.373  0.4599 -0.0530 -0.1920
17672TIP3    H174507   2.703   2.544  14.350  0.4597  1.1676 -0.7401
17672TIP3    H274508   2.807   2.646  14.393  1.0410 -0.6059  2.3484
17673TIP3   OH274509   2.358   2.685  40.255  0.4009  0.5191 -0.1825
17673TIP3    H174510   2.383   2.599  40.222 -0.9001  0.7304 -1.8727
17673TIP3    H274511   2.439   2.736  40.254  1.1017 -0.5477  0.4725
17674TIP3   OH274512   1.659   3.868  14.080 -0.4120 -0.3137  1.0763
17674TIP3    H174513   1.750   3.897  14.074 -0.9058  1.3463  1.1422
17674TIP3    H274514   1.665   3.774  14.096  1.3162 -0.0336  2.3525
17675TIP3   OH274515   3.368   2.599   5.220  0.1172 -0.0325 -0.4961
17675TIP3    H174516   3.406   2.664   5.280  1.2892 -0.1871 -1.0353
17675TIP3    H274517   3.277   2.626   5.210  0.3801  1.0685 -0.0889
17676TIP3   OH274518   3.362   0.706   0.483  0.4796 -0.5970 -0.2018
17676TIP3    H174519   3.318   0.628   0.517 -1.4198  0.6962  0.4676
17676TIP3    H274520   3.291   0.766   0.461  1.8935  1.3520  0.2506
17677TIP3   OH274521   3.819   0.091  43.896 -0.3192  0.4154  0.2328
17677TIP3    H174522   3.890   0.046  43.850 -1.2381  0.6713 -1.5447
17677TIP3    H274523   3.859   0.171  43.928  0.4921 -0.0246  0.3579
17678TIP3   OH274524   0.751   0.985  41.499  0.2067  0.2560 -0.1168
17678TIP3    H174525   0.833   1.034  41.500 -0.1661  1.0010 -1.9396
17678TIP3    H274526   0.727   0.980  41.407 -1.0816 -1.1994  0.2441
17679TIP3   OH274527   2.618   3.486  35.257  0.6565 -0.0618 -0.4675
17679TIP3    H174528   2.680   3.414  35.273 -0.6181 -1.2366 -0.6516
17679TIP3    H274529   2.655   3.531  35.181  1.6486 -0.3105 -0.1548
17680TIP3   OH274530   0.871   0.063  11.157 -0.0357  0.2187  0.1822
17680TIP3    H174531   0.898   0.005  11.229  0.3449  2.6788  2.1584
17680TIP3    H274532   0.864   0.005  11.081 -1.0604 -2.6547  2.2907
17681TIP3   OH274533   3.340   2.260   3.043 -0.2112  0.1403  0.1168
17681TIP3    H174534   3.328   2.180   2.992 -2.0519  0.3077  0.2324
17681TIP3    H274535   3.381   2.321   2.982 -0.0480 -0.4591 -0.3878
17682TIP3   OH274536   0.567   3.624  31.554 -0.2620 -0.1075 -0.1197
17682TIP3    H174537   0.608   3.546  31.517 -0.0042  0.6346 -1.4603
17682TIP3    H274538   0.551   3.681  31.479  0.1203  1.4002  0.8930
17683TIP3   OH274539   1.591   0.057  47.361 -0.3214  0.0301 -0.2177
17683TIP3    H174540   1.533  -0.001  47.409 -1.5750  0.6497 -0.9466
17683TIP3    H274541   1.547   0.142  47.361  0.2437  0.3480 -1.3683
17684TIP3   OH274542   1.441   3.353  28.845 -0.3345  0.6367  0.0682
17684TIP3    H174543   1.410   3.331  28.757 -1.5164  2.0047  0.0985
17684TIP3    H274544   1.477   3.441  28.836 -0.1467  0.6471  0.8833
17685TIP3   OH274545   1.915   0.168  12.306 -0.0945 -0.4502  0.1237
17685TIP3    H174546   1.866   0.098  12.262  0.3875 -0.7596  0.0732
17685TIP3    H274547   1.867   0.183  12.388 -1.6872  0.9471 -1.0059
17686TIP3   OH274548   1.637   3.331  39.333  1.0201  0.4154  0.0407
17686TIP3    H174549   1.694   3.405  39.313 -0.0703  1.6200  1.1899
17686TIP3    H274550   1.548   3.365  39.322  0.4434 -0.0268  2.7076
17687TIP3   OH274551   4.021   3.822  10.849  0.7387  0.2620 -0.0769
17687TIP3    H174552   3.971   3.744  10.875 -0.0555  0.1268 -1.9021
17687TIP3    H274553   4.111   3.791  10.841  0.6770 -0.1219  0.5966
17688TIP3   OH274554   3.300   2.727  33.236 -0.2601  0.0814 -0.1613
17688TIP3    H174555   3.246   2.763  33.166  0.2238 -0.1535 -0.6624
17688TIP3    H274556   3.332   2.805  33.283 -2.1460  0.2012  1.0352
17689TIP3   OH274557   1.260   3.316   4.563  0.2875  0.3350 -0.2971
17689TIP3    H174558   1.341   3.265   4.549  0.6732  1.0940 -0.9037
17689TIP3    H274559   1.260   3.335   4.656 -0.7232 -2.1774  0.2905
17690TIP3   OH274560   0.688   2.148  42.695 -0.3032  0.2868 -0.2607
17690TIP3    H174561   0.625   2.152  42.767  0.2987 -0.1788  0.3081
17690TIP3    H274562   0.702   2.055  42.680  0.5692  0.3811 -0.0852
17691TIP3   OH274563   1.541   1.869  10.684  0.0214 -0.3923 -0.4518
17691TIP3    H174564   1.549   1.937  10.618 -0.5512  1.0559  0.9103
17691TIP3    H274565   1.473   1.810  10.651 -0.6723  0.6393 -0.8872
17692TIP3   OH274566   3.703   0.823  33.238 -0.4004 -0.0930 -0.3088
17692TIP3    H174567   3.718   0.729  33.223 -1.4382 -0.1054 -1.4463
17692TIP3    H274568   3.786   0.864  33.215  0.1822 -0.7578  0.5517
17693TIP3   OH274569   3.342   3.560  41.461 -0.4152 -0.1514  0.1771
17693TIP3    H174570   3.401   3.614  41.514 -0.3420  0.4932 -0.5373
17693TIP3    H274571   3.255   3.582  41.493 -0.2826 -1.5676  1.6612
17694TIP3   OH274572   0.243   0.685  42.041  0.6882  0.8869  0.1507
17694TIP3    H174573   0.151   0.711  42.046 -0.0470 -1.4802  0.0721
17694TIP3    H274574   0.256   0.663  41.949  0.6699 -0.9129  0.5493
17695TIP3   OH274575   3.621   1.272   8.198 -0.3696 -0.4016 -0.1717
17695TIP3    H174576   3.677   1.292   8.124  0.2132 -1.9795 -0.2097
17695TIP3    H274577   3.532   1.270   8.162 -0.1814 -0.3180 -0.6428
17696TIP3   OH274578   1.856   0.507  38.940  0.1782 -0.1628 -0.1013
17696TIP3    H174579   1.847   0.590  38.893  0.1431 -0.6072 -0.8965
17696TIP3    H274580   1.788   0.509  39.007 -1.0288 -0.3161 -1.2740
17697TIP3   OH274581   3.819   1.590  36.456  0.0522  0.0709 -0.0789
17697TIP3    H174582   3.833   1.648  36.530 -0.6650 -2.8116  2.5058
17697TIP3    H274583   3.906   1.555  36.436  0.0571 -0.1110  0.2603
17698TIP3   OH274584   1.148   2.981  37.678  1.3931 -0.3298 -0.5186
17698TIP3    H174585   1.064   2.942  37.699 -0.1865  3.0181  0.0243
17698TIP3    H274586   1.142   3.003  37.585  2.3563 -1.4876 -0.8822
17699TIP3   OH274587   3.157   1.020  33.783 -0.4970  0.3549  0.2699
17699TIP3    H174588   3.171   1.052  33.871 -1.6414  1.2272  0.1601
17699TIP3    H274589   3.226   0.955  33.769 -0.9543 -0.6184  2.1946
17700TIP3   OH274590   2.973   3.132  40.720 -0.2186  0.1120  0.1291
17700TIP3    H174591   3.014   3.046  40.716 -2.1292 -0.8349 -0.0902
17700TIP3    H274592   2.956   3.147  40.813  1.7745  1.1481  0.3970
17701TIP3   OH274593   3.467   3.047  38.536  0.1600 -0.3132  0.5052
17701TIP3    H174594   3.403   2.977  38.526 -0.1022 -0.0842  0.5812
17701TIP3    H274595   3.464   3.071  38.628 -1.2699  1.2279  0.1017
17702TIP3   OH274596   2.444   1.725  10.511 -0.2435 -0.2796 -0.1231
17702TIP3    H174597   2.388   1.648  10.524 -1.7899  0.7454 -0.3718
17702TIP3    H274598   2.423   1.782  10.585 -0.6939  0.7685 -1.0205
17703TIP3   OH274599   1.372   2.194   8.725 -0.6647 -0.4592  0.0565
17703TIP3    H174600   1.279   2.176   8.737 -0.8365  0.9000  1.0128
17703TIP3    H274601   1.408   2.194   8.814  0.6221 -2.6838 -0.4004
17704TIP3   OH274602   1.136   1.344  37.957 -0.6914  0.0349  0.0018
17704TIP3    H174603   1.149   1.437  37.974 -0.3289  0.4607 -2.3374
17704TIP3    H274604   1.042   1.330  37.965 -1.0040  1.0576 -1.5175
17705TIP3   OH274605   2.854   1.442   7.797  0.3588  0.3785  0.5233
17705TIP3    H174606   2.838   1.360   7.751  1.3296  0.8189 -0.6557
17705TIP3    H274607   2.781   1.451   7.858 -0.9688 -0.2411 -0.9304
17706TIP3   OH274608   0.154   1.723   3.153  0.1251  0.6914  0.4243
17706TIP3    H174609   0.131   1.791   3.216 -0.3223 -1.1046  2.3210
17706TIP3    H274610   0.240   1.691   3.183  0.5581  0.7375 -0.7307
17707TIP3   OH274611   1.224   2.783  46.629  0.1750  0.1213  0.5796
17707TIP3    H174612   1.180   2.699  46.618  1.1390 -0.3945  0.4975
17707TIP3    H274613   1.155   2.848  46.623 -0.5023 -0.6358 -0.0125
17708TIP3   OH274614   0.039   1.551  32.743  0.0826 -0.5882 -0.0824
17708TIP3    H174615   0.043   1.575  32.835 -0.3246 -0.0564 -0.1970
17708TIP3    H274616   0.122   1.508  32.725  1.8085  2.5469 -0.3408
17709TIP3   OH274617   3.368   3.531  10.651 -0.5579 -0.1188 -0.4320
17709TIP3    H174618   3.336   3.442  10.663 -0.7031  0.0974  0.9342
17709TIP3    H274619   3.407   3.554  10.735 -1.0201  1.3053 -0.5849
17710TIP3   OH274620   0.569   1.937  36.883  0.2054  0.2206 -0.1893
17710TIP3    H174621   0.524   1.916  36.801  1.4553  1.5785 -1.2913
17710TIP3    H274622   0.612   2.021  36.866 -0.3853  1.1090  2.2457
17711TIP3   OH274623   3.233   1.978  42.209 -0.3967 -0.4406 -0.1861
17711TIP3    H174624   3.223   1.900  42.264  1.3005 -0.5775 -0.0209
17711TIP3    H274625   3.319   1.968  42.168 -0.2427  1.2309 -0.3474
17712TIP3   OH274626   3.071   0.286   5.147  0.2058 -0.9117  0.4073
17712TIP3    H174627   3.065   0.377   5.178 -2.0801 -0.7161 -0.3981
17712TIP3    H274628   3.160   0.259   5.168  0.6740  1.2366  1.4467
17713TIP3   OH274629   3.172   3.421  30.586  0.1117 -0.5071 -0.0978
17713TIP3    H174630   3.187   3.327  30.598 -0.3202 -0.6609 -0.7554
17713TIP3    H274631   3.138   3.429  30.497  1.3914  0.4148 -0.5363
17714TIP3   OH274632   2.297   1.556  47.701 -0.6046  1.1605 -0.8145
17714TIP3    H174633   2.253   1.487  47.749  2.0184 -0.2521 -0.2363
17714TIP3    H274634   2.369   1.512  47.655  2.0570  3.6091  0.6452
17715TIP3   OH274635   4.053   0.329   2.421 -0.6215 -0.0763 -0.2854
17715TIP3    H174636   3.972   0.279   2.411 -0.7237  0.3218 -1.6244
17715TIP3    H274637   4.024   0.416   2.451 -0.5975 -0.2452  0.2352
17716TIP3   OH274638   3.576   2.346   0.180  0.2999  0.3031 -0.2922
17716TIP3    H174639   3.513   2.390   0.236  0.1004  0.5967 -0.7390
17716TIP3    H274640   3.524   2.309   0.109  0.5625  0.0366 -0.3506
17717TIP3   OH274641   3.639   1.945  11.934 -0.2707  0.0958  0.3508
17717TIP3    H174642   3.597   1.980  12.013 -1.9651 -2.9881  0.9936
17717TIP3    H274643   3.702   1.881  11.968  1.5507  1.2200 -0.7826
17718TIP3   OH274644   0.518   3.421   2.166 -0.0604 -0.1632  0.1371
17718TIP3    H174645   0.581   3.350   2.166 -1.9815 -1.9861  0.8209
17718TIP3    H274646   0.538   3.472   2.087  1.2714 -1.5616 -0.4692
17719TIP3   OH274647   0.401   1.387  34.342 -0.4411 -0.0319 -0.0935
17719TIP3    H174648   0.342   1.409  34.271 -3.9571  0.4766  2.6887
17719TIP3    H274649   0.434   1.471  34.374  1.3522 -0.2718 -1.1475
17720TIP3   OH274650   0.562   3.639  42.157 -0.0348 -0.1530 -0.3086
17720TIP3    H174651   0.572   3.635  42.252 -0.5851  0.8568 -0.2010
17720TIP3    H274652   0.569   3.732  42.136 -0.6720 -0.2886 -1.1736
17721TIP3   OH274653   0.640   0.322  47.470  0.1796 -0.3210 -0.0885
17721TIP3    H174654   0.736   0.314  47.463  0.4613  1.9811  0.4926
17721TIP3    H274655   0.625   0.368  47.552 -1.2339  1.8565 -1.4584
17722TIP3   OH274656   2.732   2.532  36.187  0.0959  0.3447 -0.4539
17722TIP3    H174657   2.812   2.508  36.140  0.0803  0.2653 -0.4410
17722TIP3    H274658   2.680   2.452  36.189 -0.4589  0.6570 -1.4190
17723TIP3   OH274659   0.248   2.614  47.081  0.3130 -0.1933 -0.1149
17723TIP3    H174660   0.292   2.550  47.025  1.3414  0.2302  0.2010
17723TIP3    H274661   0.297   2.695  47.071 -1.1157  0.6480 -0.6836
17724TIP3   OH274662   0.351   0.330  47.587 -0.1741  0.6085  0.5390
17724TIP3    H174663   0.415   0.335  47.516  2.7475  0.4085  2.9587
17724TIP3    H274664   0.399   0.358  47.665 -3.1116  0.5517  2.5523
17725TIP3   OH274665   3.226   1.544  10.237  0.4304 -0.0641  0.0724
17725TIP3    H174666   3.194   1.555  10.326  0.6178 -0.1441  0.1511
17725TIP3    H274667   3.311   1.501  10.248  0.3050 -0.3749 -0.1580
17726TIP3   OH274668   3.867   0.926   2.265  0.1656  0.4899  0.1094
17726TIP3    H174669   3.776   0.958   2.270  0.0127  0.2534 -0.9455
17726TIP3    H274670   3.916   0.999   2.226  0.1188  0.0448 -0.8031
17727TIP3   OH274671   3.607   3.415   6.907 -0.1248  0.0057 -0.1898
17727TIP3    H174672   3.604   3.477   6.835 -2.5679 -0.4516 -0.5553
17727TIP3    H274673   3.527   3.363   6.897  1.6210 -2.9829  0.2993
17728TIP3   OH274674   2.530   3.854  14.777  0.1600 -0.0983 -0.1064
17728TIP3    H174675   2.472   3.790  14.818  1.3921 -1.4980 -0.4585
17728TIP3    H274676   2.579   3.893  14.849  1.3610 -1.5824 -0.0579
17729TIP3   OH274677   1.588   0.404  40.447 -0.2119  0.4189 -0.9331
17729TIP3    H174678   1.527   0.472  40.477 -1.3619 -0.7270 -0.5673
17729TIP3    H274679   1.584   0.408  40.352  0.1844  1.2398 -0.9256
17730TIP3   OH274680   2.280   3.593  12.997  0.4415 -0.3817  0.2644
17730TIP3    H174681   2.239   3.568  13.080  0.7575  0.0399  0.5537
17730TIP3    H274682   2.369   3.619  13.021  0.4224  0.0933 -0.1538
17731TIP3   OH274683   0.326   2.895  31.685  0.4083  0.1750  0.4045
17731TIP3    H174684   0.245   2.847  31.702 -0.2458  1.0113 -0.2987
17731TIP3    H274685   0.343   2.883  31.592 -0.9065  2.9642 -0.2952
17732TIP3   OH274686   2.266   0.559   3.352  0.1997 -0.0246  0.3093
17732TIP3    H174687   2.360   0.556   3.369 -0.0771  0.1028  2.0374
17732TIP3    H274688   2.229   0.604   3.427 -1.2139  0.3263 -0.5511
17733TIP3   OH274689   1.123   1.685  10.652  0.4016 -0.0596 -0.1549
17733TIP3    H174690   1.058   1.710  10.587 -0.7560 -0.5506  0.7708
17733TIP3    H274691   1.073   1.637  10.718  1.7378 -0.5710  0.5151
17734TIP3   OH274692   1.716   1.321  46.059 -0.4111 -0.0610 -0.2393
17734TIP3    H174693   1.714   1.272  45.977 -0.0992 -1.0918  0.3510
17734TIP3    H274694   1.686   1.409  46.035  0.4804 -0.1015 -1.6096
17735TIP3   OH274695   4.051   1.393  43.171  0.0457  0.2872 -0.1152
17735TIP3    H174696   4.010   1.336  43.235  1.3891  0.9358  1.4030
17735TIP3    H274697   4.133   1.350  43.149 -0.7683 -0.3547 -2.1145
17736TIP3   OH274698   1.629   0.297  12.247 -0.0162 -0.0227 -0.3985
17736TIP3    H174699   1.665   0.384  12.231  0.8027 -0.4284 -0.8002
17736TIP3    H274700   1.602   0.265  12.161 -2.4761  0.7231  0.0066
17737TIP3   OH274701   3.766   3.452  13.338  0.0207  0.1390  0.0321
17737TIP3    H174702   3.748   3.367  13.297  3.5233  0.2439 -2.1347
17737TIP3    H274703   3.724   3.516  13.279  0.5930  0.0333 -0.5066
17738TIP3   OH274704   2.142   2.451  44.695 -0.3113  0.3404 -0.0929
17738TIP3    H174705   2.153   2.436  44.789 -0.8820  1.1788  0.1132
17738TIP3    H274706   2.157   2.365  44.655 -0.6256 -0.1439  0.8055
17739TIP3   OH274707   1.156   2.219  39.026  0.4854 -0.7449 -0.2786
17739TIP3    H174708   1.230   2.178  38.981  1.1821 -0.0755  0.2225
17739TIP3    H274709   1.187   2.307  39.047 -0.5112 -0.4055 -0.1794
17740TIP3   OH274710   3.904   1.528  11.786 -0.5022 -0.5387  0.1160
17740TIP3    H174711   3.943   1.614  11.806 -2.3398  0.3451  0.0911
17740TIP3    H274712   3.907   1.522  11.690  0.1233 -0.7588  0.1453
17741TIP3   OH274713   1.841   0.320  31.460  0.2200 -0.1855  0.0171
17741TIP3    H174714   1.805   0.335  31.373  1.0113  1.5242 -0.0547
17741TIP3    H274715   1.935   0.318  31.447  0.3505  0.1956  0.8339
17742TIP3   OH274716   2.067   0.012  15.098  0.2089  0.1528 -0.6549
17742TIP3    H174717   2.126   0.059  15.157  1.5559 -2.4775  0.2856
17742TIP3    H274718   2.125  -0.043  15.045 -1.2498 -0.4841 -1.6646
17743TIP3   OH274719   2.365   2.408  19.230 -0.2471 -0.0417  0.2925
17743TIP3    H174720   2.418   2.472  19.182  1.5623 -0.6305  1.3767
17743TIP3    H274721   2.385   2.424  19.322 -2.3647 -0.0130  0.7884
17744TIP3   OH274722   3.825   3.250  36.745  0.3741 -0.5564  0.1721
17744TIP3    H174723   3.864   3.332  36.775 -1.7408  0.4601  0.2859
17744TIP3    H274724   3.886   3.217  36.679  2.0088  0.3148  1.1742
17745TIP3   OH274725   0.264   1.363  32.747  0.4687  0.1791 -0.2352
17745TIP3    H174726   0.237   1.321  32.828  2.3538 -0.5703  0.0604
17745TIP3    H274727   0.355   1.336  32.735  0.7944  1.7264 -1.6579
17746TIP3   OH274728   1.092   0.708  35.187 -0.2243  0.1087 -0.6019
17746TIP3    H174729   1.098   0.687  35.094 -2.9490  2.4828 -1.4625
17746TIP3    H274730   1.072   0.624  35.229  0.8797 -0.9815 -2.1179
17747TIP3   OH274731   2.604   1.828  42.989 -0.2072 -0.0582 -0.1592
17747TIP3    H174732   2.579   1.848  43.079 -3.4842 -1.3400 -0.6436
17747TIP3    H274733   2.695   1.796  42.995  0.1025  1.0940  2.4482
17748TIP3   OH274734   2.298   1.293   2.950  0.0448 -0.2231  0.5930
17748TIP3    H174735   2.341   1.212   2.924 -0.6499 -0.5720  0.5002
17748TIP3    H274736   2.259   1.326   2.869 -1.4246 -0.8813  0.9879
17749TIP3   OH274737   1.370   1.337  31.559 -0.5952 -0.4091 -0.0793
17749TIP3    H174738   1.326   1.276  31.618 -2.1936  0.2929 -0.5084
17749TIP3    H274739   1.326   1.325  31.474 -0.6843  1.0682 -0.2586
17750TIP3   OH274740   2.880   1.920  37.610  0.5887  0.3714  0.0262
17750TIP3    H174741   2.799   1.887  37.570  0.9534 -3.5593  2.0482
17750TIP3    H274742   2.929   1.957  37.536 -1.3679 -0.7255 -1.9643
17751TIP3   OH274743   3.839   0.196  33.359  0.5666  0.1735 -0.7762
17751TIP3    H174744   3.838   0.117  33.413 -0.2322  0.3679 -0.4826
17751TIP3    H274745   3.907   0.251  33.398  0.8436 -0.2014 -0.7315
17752TIP3   OH274746   0.661   2.178  33.435  0.2448  0.0477  0.6275
17752TIP3    H174747   0.626   2.148  33.351 -2.4534 -2.0021  2.3091
17752TIP3    H274748   0.693   2.099  33.477 -1.1694  0.4927  2.6725
17753TIP3   OH274749   2.754   0.850  10.083  0.5211 -0.3306  0.1754
17753TIP3    H174750   2.812   0.807  10.020  0.4390  0.8758 -0.7399
17753TIP3    H274751   2.797   0.834  10.168  2.5719  1.0482 -0.5196
17754TIP3   OH274752   1.201   3.757  47.685  0.2571  0.2462 -0.0656
17754TIP3    H174753   1.121   3.747  47.632 -0.8481 -1.4988  1.7981
17754TIP3    H274754   1.200   3.849  47.711 -1.4975  0.1372  0.3904
17755TIP3   OH274755   1.403   3.872  26.270  0.0085 -0.5744 -0.0372
17755TIP3    H174756   1.477   3.822  26.303  0.1826  1.1190  2.3549
17755TIP3    H274757   1.326   3.826  26.303  0.0323 -1.1066 -0.6940
17756TIP3   OH274758   1.319   2.988  41.127 -0.1079 -0.4547  0.3848
17756TIP3    H174759   1.290   3.016  41.214 -0.0027 -0.9567  0.5880
17756TIP3    H274760   1.240   2.954  41.085  0.3076 -2.8109  1.3298
17757TIP3   OH274761   3.747   2.462  36.329  0.3557  0.0927 -0.3936
17757TIP3    H174762   3.810   2.528  36.359  0.6628  0.8887 -2.6086
17757TIP3    H274763   3.683   2.512  36.278 -0.2826 -1.1327 -0.8387
17758TIP3   OH274764   0.783   2.255  44.531 -0.1771  0.2526  0.2254
17758TIP3    H174765   0.715   2.226  44.469  0.2286  0.0576 -0.1310
17758TIP3    H274766   0.843   2.307  44.478  0.2898 -0.0913  0.4136
17759TIP3   OH274767   0.046   1.240  31.526 -0.0428  0.4269 -0.1992
17759TIP3    H174768   0.043   1.220  31.433 -2.1397  1.2091 -0.3525
17759TIP3    H274769  -0.041   1.216  31.558  1.4724 -2.5898  2.1968
17760TIP3   OH274770   0.774   0.934   5.415  0.2701 -0.2141 -0.2970
17760TIP3    H174771   0.850   0.983   5.447 -0.3961 -0.6079  2.0223
17760TIP3    H274772   0.811   0.855   5.376  1.0816 -0.1304  0.2802
17761TIP3   OH274773   0.410   2.821  47.056 -0.0594  0.0111  0.0403
17761TIP3    H174774   0.404   2.910  47.022  0.3137 -0.0150 -0.1005
17761TIP3    H274775   0.478   2.779  47.003 -0.7504 -0.5894 -0.3942
17762TIP3   OH274776   2.058   2.365  35.984 -0.0836 -0.3295 -0.3598
17762TIP3    H174777   2.092   2.278  36.002  1.5226  0.5230  1.0459
17762TIP3    H274778   2.033   2.400  36.070 -0.2212  0.7624 -0.8181
17763TIP3   OH274779   3.071   2.530  45.606 -0.5997  0.1761 -0.2317
17763TIP3    H174780   3.139   2.463  45.613 -0.9435 -0.0176  2.9258
17763TIP3    H274781   2.992   2.482  45.582 -0.4854 -0.3202  0.3551
17764TIP3   OH274782   0.556   4.043  31.567 -0.1700 -0.1644  0.1054
17764TIP3    H174783   0.583   4.039  31.658 -1.4383  0.1281  0.5142
17764TIP3    H274784   0.477   3.988  31.562 -1.0069  1.0413 -0.4606
17765TIP3   OH274785   2.580   2.070  47.159 -0.1675  0.2767  0.3607
17765TIP3    H174786   2.526   2.060  47.237  0.9568 -0.3096  1.0838
17765TIP3    H274787   2.536   2.139  47.108 -2.6853 -1.4964 -0.0381
17766TIP3   OH274788   1.526   1.888  39.677  0.4040 -0.0139 -0.1037
17766TIP3    H174789   1.529   1.955  39.608 -2.2655 -0.7019 -1.0122
17766TIP3    H274790   1.456   1.918  39.736  1.4648 -0.3397  1.3637
17767TIP3   OH274791   4.103   2.192  42.783 -0.0616 -0.2052  0.7876
17767TIP3    H174792   4.116   2.103  42.816 -0.8064 -0.6318 -0.0372
17767TIP3    H274793   4.054   2.236  42.852 -1.7159 -1.1237  0.2386
17768TIP3   OH274794   3.083   1.916   9.362 -0.3857 -0.0198 -0.3400
17768TIP3    H174795   3.064   1.874   9.446 -0.8884  0.7719 -0.0572
17768TIP3    H274796   3.171   1.884   9.339  0.9013  1.7357  1.7575
17769TIP3   OH274797   2.536   3.340  27.002 -0.0229  0.2197  0.2388
17769TIP3    H174798   2.561   3.273  27.065 -0.1142  0.1340  0.1825
17769TIP3    H274799   2.563   3.305  26.917  1.7879  1.0997  0.3899
17770TIP3   OH274800   3.570   1.183   7.913  0.2834  0.0132 -0.1356
17770TIP3    H174801   3.520   1.143   7.984  1.4228  2.3514  2.1352
17770TIP3    H274802   3.646   1.126   7.901 -0.7333 -1.2701 -0.6706
17771TIP3   OH274803   0.422   0.892   9.484 -0.1579 -0.5766  0.4574
17771TIP3    H174804   0.370   0.843   9.548 -1.2643  0.5626  0.4509
17771TIP3    H274805   0.380   0.978   9.479  1.6715  0.3537  0.3760
17772TIP3   OH274806   3.069   0.742  42.470  0.2779  0.3077 -0.3982
17772TIP3    H174807   3.035   0.747  42.560  0.5222  0.3364 -0.3070
17772TIP3    H274808   3.043   0.655  42.439  0.8069  0.0238 -0.0518
17773TIP3   OH274809   2.452   1.421  32.465  0.1243  0.5521 -0.2603
17773TIP3    H174810   2.442   1.390  32.375  0.9968  0.9051 -0.4914
17773TIP3    H274811   2.484   1.345  32.513 -0.3672  0.3563 -0.2389
17774TIP3   OH274812   2.843   1.598  39.572  0.1773 -0.1086  0.0193
17774TIP3    H174813   2.824   1.570  39.662 -0.4492  0.3562  0.0374
17774TIP3    H274814   2.759   1.628  39.538  0.2802 -0.8444 -0.9351
17775TIP3   OH274815   1.884   1.013  15.312  0.2848 -0.0195  0.5156
17775TIP3    H174816   1.940   0.953  15.362 -0.4796 -0.4492  0.8705
17775TIP3    H274817   1.908   1.100  15.343 -1.0518 -0.3197  2.6130
17776TIP3   OH274818   2.346   0.132  12.377 -0.3939 -0.2422  0.7845
17776TIP3    H174819   2.293   0.080  12.437 -0.9937  0.4848  0.9000
17776TIP3    H274820   2.286   0.199  12.344  0.2563  0.1266  0.3256
17777TIP3   OH274821   3.829   2.675  37.721  0.1711 -0.1454  0.1988
17777TIP3    H174822   3.771   2.637  37.654  1.5822 -0.9902 -0.6033
17777TIP3    H274823   3.864   2.754  37.680  0.8481 -0.5331  0.0101
17778TIP3   OH274824   2.467   1.511  12.698  0.6026  0.2214 -0.1048
17778TIP3    H174825   2.488   1.534  12.607  2.2540 -2.3992 -0.5049
17778TIP3    H274826   2.462   1.415  12.697  1.5371  0.0593  2.7334
17779TIP3   OH274827   1.441   1.047   8.910 -0.1046 -0.3456  0.0745
17779TIP3    H174828   1.514   1.065   8.970 -1.5584 -1.6926  2.4399
17779TIP3    H274829   1.402   1.132   8.893 -1.2066 -0.0688  3.2988
17780TIP3   OH274830   3.700   1.296   6.465  0.3805 -0.7215  0.3703
17780TIP3    H174831   3.715   1.361   6.534  0.6922 -1.4700  1.0310
17780TIP3    H274832   3.606   1.281   6.466  0.5599 -2.0109  1.8748
17781TIP3   OH274833   2.512   3.100  14.296  1.0190  0.1392 -0.6036
17781TIP3    H174834   2.537   3.100  14.389  2.5103 -1.9241 -0.9499
17781TIP3    H274835   2.499   3.193  14.275 -1.7716  0.5598  2.2254
17782TIP3   OH274836   1.900   1.816  42.484  0.2587 -0.0805 -0.1496
17782TIP3    H174837   1.949   1.759  42.425 -1.2259 -2.7431  1.0115
17782TIP3    H274838   1.814   1.824  42.442  0.1529  0.5711  0.1786
17783TIP3   OH274839   1.035   1.886  12.407 -0.4446  0.1172  0.0128
17783TIP3    H174840   0.942   1.885  12.388 -0.0010 -0.6845 -2.4962
17783TIP3    H274841   1.040   1.875  12.502 -2.8822  0.8781  0.2982
17784TIP3   OH274842   3.304   0.318  46.143  0.2015  0.3053 -0.2703
17784TIP3    H174843   3.349   0.359  46.070  0.3726  0.2353 -0.2037
17784TIP3    H274844   3.211   0.331  46.124  0.2619  1.8904  0.4103
17785TIP3   OH274845   1.432   3.349  13.150 -0.3971  0.6010  0.4548
17785TIP3    H174846   1.382   3.418  13.195 -1.9295 -0.2471  0.1208
17785TIP3    H274847   1.414   3.364  13.057 -0.1451  0.1838  0.3383
17786TIP3   OH274848   2.618   1.773  18.114  0.1654 -0.2665  0.0586
17786TIP3    H174849   2.583   1.833  18.049 -0.1917  0.3831  0.8423
17786TIP3    H274850   2.549   1.765  18.180  1.1597  0.4199  1.2247
17787TIP3   OH274851   2.752   2.561   6.463 -0.2200 -0.4511 -0.0559
17787TIP3    H174852   2.726   2.469   6.450 -0.4399 -0.2574 -1.0526
17787TIP3    H274853   2.846   2.562   6.447  0.0693 -0.7629  1.4559
17788TIP3   OH274854   3.076   0.688  33.167 -0.0886  0.1264  0.7362
17788TIP3    H174855   3.041   0.604  33.137 -0.5737  0.0564  1.4775
17788TIP3    H274856   3.133   0.666  33.241 -1.6152  0.5765  2.1079
17789TIP3   OH274857   2.197   2.885  15.198 -0.0532  0.5194 -0.0731
17789TIP3    H174858   2.243   2.925  15.124  0.8062 -0.1413  0.0938
17789TIP3    H274859   2.233   2.929  15.275 -0.3717  0.6406  0.0117
17790TIP3   OH274860   1.940   0.048  32.488 -0.0089 -0.1608 -0.1222
17790TIP3    H174861   1.846   0.055  32.506  0.1401 -0.5200  0.9188
17790TIP3    H274862   1.955   0.107  32.415 -0.8846  0.6742  0.3367
17791TIP3   OH274863   1.297   2.047   5.754  0.3015 -0.1466  0.0342
17791TIP3    H174864   1.359   2.076   5.687  1.8750  1.3298  2.0113
17791TIP3    H274865   1.349   1.992   5.813 -0.4149  0.5389  1.3516
17792TIP3   OH274866   1.733   0.175  46.644 -0.0739 -0.0794  0.2254
17792TIP3    H174867   1.807   0.115  46.643 -0.0213 -0.0128 -0.1428
17792TIP3    H274868   1.772   0.261  46.628 -0.3310 -0.1706 -1.0007
17793TIP3   OH274869   1.067   3.141  46.478 -0.3414 -0.5726  0.4492
17793TIP3    H174870   1.106   3.123  46.392  0.2976  1.2968  0.3037
17793TIP3    H274871   1.061   3.055  46.520  0.0293 -1.4269 -1.1665
17794TIP3   OH274872   0.098   3.918  28.744 -0.5719  0.1191  0.0902
17794TIP3    H174873   0.005   3.940  28.750 -0.1202  1.8821  1.6173
17794TIP3    H274874   0.136   3.991  28.695  0.4218  1.0021  2.0500
17795TIP3   OH274875   3.367   0.911  35.406 -0.3249  0.1523 -0.4809
17795TIP3    H174876   3.435   0.961  35.451 -1.0947  1.4907 -0.7455
17795TIP3    H274877   3.285   0.942  35.445 -0.9155  0.2200 -1.7326
17796TIP3   OH274878   1.195   0.565  42.623  0.0665 -0.3492 -0.1088
17796TIP3    H174879   1.127   0.633  42.623  0.1664 -0.2499 -0.3017
17796TIP3    H274880   1.277   0.613  42.627  0.1714 -0.4187 -1.1325
17797TIP3   OH274881   0.477   4.012   6.667  0.1830  0.0194  0.5688
17797TIP3    H174882   0.529   4.085   6.634 -1.2732  1.0080  0.3480
17797TIP3    H274883   0.394   4.052   6.692 -1.1848 -1.7336 -0.8759
17798TIP3   OH274884   0.654   1.025   9.285  0.6353 -0.3282  0.0033
17798TIP3    H174885   0.620   1.080   9.215 -0.3768  1.5322  1.8683
17798TIP3    H274886   0.580   0.971   9.311  1.0004 -0.9868 -0.2925
17799TIP3   OH274887   0.349   0.125   8.359 -0.3534  0.0328 -0.3192
17799TIP3    H174888   0.328   0.090   8.273 -2.1456  3.0613 -1.2815
17799TIP3    H274889   0.275   0.099   8.414  0.1299 -0.7495 -0.0202
17800TIP3   OH274890   2.999   2.167  19.926 -0.0421  0.1621  0.3564
17800TIP3    H174891   2.940   2.225  19.879  0.7894  0.4435 -0.3622
17800TIP3    H274892   3.012   2.092  19.867  1.2040  0.6322 -0.0056
17801TIP3   OH274893   3.189   1.796  13.881 -0.1220  0.6498  0.0410
17801TIP3    H174894   3.108   1.818  13.836  1.3591 -0.2394 -3.4486
17801TIP3    H274895   3.214   1.877  13.926 -1.1069  2.1421 -1.9218
17802TIP3   OH274896   3.251   1.324   8.333 -0.0948 -0.3005 -0.1178
17802TIP3    H174897   3.286   1.305   8.246 -0.7307 -1.4433 -0.1494
17802TIP3    H274898   3.210   1.410   8.325  0.0642 -0.2891 -0.8770
17803TIP3   OH274899   1.325   3.058  33.920 -0.3561  0.1681 -0.0820
17803TIP3    H174900   1.387   3.034  33.850 -1.2142  0.0883 -0.8340
17803TIP3    H274901   1.259   3.111  33.875 -0.9389  0.0857  0.6729
17804TIP3   OH274902   2.928   1.423  14.135  0.1175  0.2705  0.6764
17804TIP3    H174903   3.017   1.388  14.131  0.5848  1.5062 -0.2335
17804TIP3    H274904   2.909   1.453  14.046 -1.2014  0.0813  0.8624
17805TIP3   OH274905   0.010   2.680   6.599 -0.2356 -0.1900  0.3904
17805TIP3    H174906  -0.082   2.700   6.584 -0.0700  0.3632  0.0648
17805TIP3    H274907   0.049   2.679   6.512  0.1587  0.0611  0.5590
17806TIP3   OH274908   0.621   0.827  32.959  0.3143  0.5070 -0.0814
17806TIP3    H174909   0.688   0.884  32.998  0.1069  1.0518 -0.5077
17806TIP3    H274910   0.590   0.875  32.882 -1.2077  0.6977  0.5988
17807TIP3   OH274911   0.676   3.237  10.256  0.2057 -0.3332 -0.3839
17807TIP3    H174912   0.601   3.296  10.263 -0.0076 -0.6592  0.2259
17807TIP3    H274913   0.746   3.282  10.303 -0.1254 -0.8036  0.6091
17808TIP3   OH274914   0.664   2.301  32.537  0.1249  0.1301  0.3007
17808TIP3    H174915   0.575   2.272  32.556  0.9354 -1.8955  1.3048
17808TIP3    H274916   0.673   2.293  32.442 -1.3882  2.4803 -0.1429
17809TIP3   OH274917   0.386   2.327   8.816 -0.1994  0.4490  0.3340
17809TIP3    H174918   0.384   2.330   8.912 -0.9503 -1.1795  0.3966
17809TIP3    H274919   0.369   2.235   8.794 -1.5096  1.0470 -1.4033
17810TIP3   OH274920   0.174   3.777  36.390  0.2136 -0.3036  0.2698
17810TIP3    H174921   0.161   3.797  36.297  1.2721  2.3067  0.5985
17810TIP3    H274922   0.118   3.839  36.436 -2.1166 -3.0542  1.4738
17811TIP3   OH274923   0.359   3.459   9.014 -0.0797  0.1080  0.0371
17811TIP3    H174924   0.361   3.510   9.095  0.2160 -2.2738  1.6358
17811TIP3    H274925   0.266   3.452   8.992 -0.3820 -0.9631  1.4401
17812TIP3   OH274926   1.186   1.550  33.389  0.1947  0.5262  0.3039
17812TIP3    H174927   1.241   1.587  33.458 -0.4557  0.5161  0.8365
17812TIP3    H274928   1.157   1.626  33.338 -2.8150  1.0682  2.6134
17813TIP3   OH274929   1.170   2.023   8.397  0.4582 -0.1523 -0.4214
17813TIP3    H174930   1.077   2.001   8.394  0.2578  0.6426 -0.3860
17813TIP3    H274931   1.191   2.053   8.309  0.6654 -0.2641 -0.4116
17814TIP3   OH274932   1.740   0.759   0.227  0.4786 -0.0984 -0.4003
17814TIP3    H174933   1.645   0.758   0.226  0.4678 -0.2006  0.1931
17814TIP3    H274934   1.764   0.848   0.201  0.2181 -0.0286 -0.4007
17815TIP3   OH274935   2.220   3.877  36.349  0.2545 -0.4197  0.1908
17815TIP3    H174936   2.157   3.907  36.283 -1.0345 -0.3185  1.4168
17815TIP3    H274937   2.274   3.812  36.304 -0.0238  0.2793 -1.1890
17816TIP3   OH274938   1.234   3.395  47.638 -0.0567 -0.2550  0.4679
17816TIP3    H174939   1.311   3.373  47.586 -0.8918  2.1946 -2.0508
17816TIP3    H274940   1.178   3.318  47.632  0.4455 -0.5301 -1.2317
17817TIP3   OH274941   2.294   1.079  34.945 -0.1952  0.3972 -0.4337
17817TIP3    H174942   2.317   1.146  35.010  0.2388  0.0068 -0.1802
17817TIP3    H274943   2.354   1.095  34.873 -0.2773  0.4565 -0.4902
17818TIP3   OH274944   3.390   3.624   4.060  0.8464 -0.4039 -0.5124
17818TIP3    H174945   3.404   3.636   4.153  1.7006  1.7471 -0.8463
17818TIP3    H274946   3.367   3.712   4.028  3.1655 -0.4559 -2.7097
17819TIP3   OH274947   1.267   3.629  44.327  0.0769  0.2749  0.1159
17819TIP3    H174948   1.303   3.610  44.241  0.3457 -0.5547  0.4041
17819TIP3    H274949   1.294   3.719  44.345 -0.4286  0.6401 -0.8786
17820TIP3   OH274950   1.086   0.806  45.962  0.6077 -0.6648 -0.5361
17820TIP3    H174951   1.126   0.749  46.028 -0.3760 -1.9463 -1.0107
17820TIP3    H274952   1.120   0.773  45.879  0.5896 -0.0815 -0.7816
17821TIP3   OH274953   1.617   3.905   7.450  0.5097 -0.2090  0.3621
17821TIP3    H174954   1.684   3.932   7.387 -1.3117  0.0007 -1.6006
17821TIP3    H274955   1.613   3.977   7.513  2.3598 -0.4080  0.7691
17822TIP3   OH274956   2.306   3.845   8.356 -0.0912 -0.3818 -0.0871
17822TIP3    H174957   2.355   3.798   8.289  1.0734 -0.8754  1.0653
17822TIP3    H274958   2.373   3.890   8.408 -1.0730  1.3780 -0.2495
17823TIP3   OH274959   2.534   2.338  39.939  0.2860  0.5923  0.0378
17823TIP3    H174960   2.530   2.384  39.855  0.1253  1.4177  0.4886
17823TIP3    H274961   2.624   2.305  39.943 -0.1659 -0.9010 -1.1903
17824TIP3   OH274962   1.382   2.245  43.643  0.2565 -0.3923 -0.7125
17824TIP3    H174963   1.310   2.308  43.643  0.3931 -0.2326 -0.4514
17824TIP3    H274964   1.343   2.163  43.613  0.5128  0.3201 -3.2137
17825TIP3   OH274965   1.956   3.063   6.620  0.1655 -0.2617  0.3171
17825TIP3    H174966   1.898   3.138   6.603 -1.1511 -1.3653 -0.2237
17825TIP3    H274967   1.929   3.031   6.706  0.1270 -0.6612  0.1549
17826TIP3   OH274968   3.672   0.206  39.953  0.0507 -0.5791 -0.1667
17826TIP3    H174969   3.711   0.213  39.865 -0.5999 -0.7307 -0.4667
17826TIP3    H274970   3.599   0.146  39.942 -0.3136 -0.2440  0.3870
17827TIP3   OH274971   2.077   2.952   5.797  0.6236 -0.6002 -0.2102
17827TIP3    H174972   2.136   2.988   5.730  1.8540 -2.9847 -0.5223
17827TIP3    H274973   2.006   2.913   5.747  0.3002 -0.3116  0.0196
17828TIP3   OH274974   3.451   0.393  31.003  0.9439  0.1403 -0.4679
17828TIP3    H174975   3.541   0.377  30.974  0.6538  0.2351 -1.4532
17828TIP3    H274976   3.430   0.479  30.967  0.1497 -0.2766 -1.0164
17829TIP3   OH274977   1.817   4.042  36.097  0.7860 -0.0452 -0.2195
17829TIP3    H174978   1.744   4.092  36.132 -0.1802 -0.5008 -1.5055
17829TIP3    H274979   1.817   3.961  36.148 -0.1834 -0.4227 -0.7943
17830TIP3   OH274980   2.094   0.919  12.188  0.3522 -0.1680  0.1235
17830TIP3    H174981   2.066   0.969  12.265  0.9255 -1.5689  1.2804
17830TIP3    H274982   2.015   0.877  12.157  0.4357 -1.1568  1.1625
17831TIP3   OH274983   1.979   0.416  32.449 -0.2462  0.3612 -0.4396
17831TIP3    H174984   1.958   0.381  32.363 -0.3707  0.8873 -0.6253
17831TIP3    H274985   1.896   0.447  32.484 -0.3416 -0.5939  0.2193
17832TIP3   OH274986   1.958   2.549  16.410  0.6170  0.3472  0.5321
17832TIP3    H174987   2.048   2.519  16.415  0.0814 -1.3908  0.2216
17832TIP3    H274988   1.963   2.630  16.359  2.0358  0.5318  0.9202
17833TIP3   OH274989   2.259   0.174  32.982  0.3930  0.0333  0.5253
17833TIP3    H174990   2.352   0.174  32.960  0.0944 -2.3869 -1.2721
17833TIP3    H274991   2.215   0.186  32.898 -0.9122 -0.2425  1.1472
17834TIP3   OH274992   0.716   2.296  34.281 -0.0285  0.1764  0.1996
17834TIP3    H174993   0.756   2.235  34.342 -0.3942  0.7594  1.0392
17834TIP3    H274994   0.628   2.261  34.265  0.6292 -0.8793 -1.3183
17835TIP3   OH274995   1.916   2.827  21.373 -0.6264  0.3620  0.8510
17835TIP3    H174996   2.005   2.799  21.352 -0.3841  0.6292  1.4936
17835TIP3    H274997   1.913   2.830  21.469 -0.5614  2.6807  0.8453
17836TIP3   OH274998   3.116   2.912  30.533  0.1819  0.4154  0.1503
17836TIP3    H174999   3.082   3.002  30.537 -0.2588  0.2860 -0.6804
17836TIP3    H275000   3.040   2.858  30.515  0.4864 -0.1086  0.4331
17837TIP3   OH275001   0.924   0.485   1.639 -0.5041  0.2470 -0.1651
17837TIP3    H175002   0.845   0.538   1.648  0.8247  2.6671 -1.4485
17837TIP3    H275003   0.919   0.449   1.551 -0.2245  0.3636 -0.2315
17838TIP3   OH275004   3.653   2.786  46.801 -0.2574  0.0760 -0.2208
17838TIP3    H175005   3.611   2.726  46.738  1.2134 -0.9175 -0.2995
17838TIP3    H275006   3.685   2.729  46.871 -1.0298  1.0681  0.9888
17839TIP3   OH275007   2.011   2.255   8.887  0.1418  0.4155 -0.0274
17839TIP3    H175008   2.058   2.173   8.877  0.4926  0.3588  1.7816
17839TIP3    H275009   1.990   2.260   8.980 -1.9684  1.2465 -0.4829
17840TIP3   OH275010   2.234   0.527   9.007 -0.1285 -0.2657 -0.1616
17840TIP3    H175011   2.316   0.502   8.966 -0.5485 -0.3602 -0.9783
17840TIP3    H275012   2.169   0.519   8.936 -0.5797  1.3383  0.0405
17841TIP3   OH275013   3.689   4.103  46.336  0.4774  0.2044 -0.0925
17841TIP3    H175014   3.724   4.161  46.404  0.3199 -1.2340  1.2758
17841TIP3    H275015   3.664   4.023  46.383 -0.4298 -0.5285 -1.7283
17842TIP3   OH275016   0.397   1.719  40.719 -0.6620 -0.3368  0.3331
17842TIP3    H175017   0.328   1.785  40.722 -0.8033 -0.5018  0.9102
17842TIP3    H275018   0.355   1.643  40.677 -0.3301  0.1238 -0.8509
17843TIP3   OH275019   2.860   1.357  34.034  0.1557 -0.1948  0.2321
17843TIP3    H175020   2.923   1.353  33.961 -0.4889 -3.0178 -0.2944
17843TIP3    H275021   2.794   1.419  34.004  0.5909 -0.2879 -1.0228
17844TIP3   OH275022   0.504   0.963  46.358  0.3378  0.1228 -0.3195
17844TIP3    H175023   0.412   0.989  46.367  0.5934  1.4058 -1.0792
17844TIP3    H275024   0.522   0.910  46.435 -0.8111  0.5601  0.2750
17845TIP3   OH275025   2.505   2.409  46.685 -0.3670 -0.1789  0.1618
17845TIP3    H175026   2.579   2.363  46.723  0.7168  2.1451  1.0714
17845TIP3    H275027   2.428   2.364  46.721  0.6255 -0.1612  2.4693
17846TIP3   OH275028   1.078   0.146  34.083  0.7148  0.7308  0.5964
17846TIP3    H175029   1.053   0.159  33.991  0.6352 -0.2280  0.4715
17846TIP3    H275030   1.173   0.149  34.082  0.7281  0.3003  0.4108
17847TIP3   OH275031   0.198   1.907  15.022 -0.5816  0.4230 -0.7163
17847TIP3    H175032   0.171   1.829  15.072 -0.0383 -0.8719 -2.3698
17847TIP3    H275033   0.170   1.889  14.932  0.3884  1.7507 -1.3155
17848TIP3   OH275034   0.486   2.225   6.698 -0.0097 -0.5131 -0.5321
17848TIP3    H175035   0.497   2.160   6.767 -1.3111  0.9820  1.2015
17848TIP3    H275036   0.493   2.175   6.616  2.2206 -2.2450  0.6059
17849TIP3   OH275037   0.755   3.184  15.383 -0.1375 -0.3698  0.5178
17849TIP3    H175038   0.709   3.199  15.466 -0.3354 -0.7582  0.4794
17849TIP3    H275039   0.694   3.213  15.316 -0.2519 -0.7035  0.4758
17850TIP3   OH275040   2.398   2.778  47.717 -0.2341  0.7996 -0.0975
17850TIP3    H175041   2.402   2.870  47.742 -4.0803  0.9053  0.7102
17850TIP3    H275042   2.379   2.731  47.798  0.4440 -0.6058 -0.6976
17851TIP3   OH275043   2.365   2.363  34.855 -0.4059 -0.2516  0.1118
17851TIP3    H175044   2.273   2.385  34.873 -0.7011 -0.1225 -1.4167
17851TIP3    H275045   2.378   2.390  34.764  1.2146 -0.1001  0.3682
17852TIP3   OH275046   3.315   0.256  44.299 -0.0463  0.0758 -0.5100
17852TIP3    H175047   3.309   0.173  44.346 -1.4966  0.2869 -0.2835
17852TIP3    H275048   3.225   0.285  44.290  0.4118  1.4167 -0.9943
17853TIP3   OH275049   0.246   0.693  40.966  0.1802 -0.2623  0.0747
17853TIP3    H175050   0.166   0.738  40.937  0.9537  0.9009 -0.3532
17853TIP3    H275051   0.219   0.644  41.044 -1.5148 -1.9750 -1.5259
17854TIP3   OH275052   2.453   1.421  32.187  0.0638  0.0075  0.0759
17854TIP3    H175053   2.373   1.443  32.140  1.0190 -1.2916 -2.2868
17854TIP3    H275054   2.480   1.337  32.152  1.8644 -0.1564  1.6642
17855TIP3   OH275055   1.969   3.150  31.502  0.2430  0.0811 -0.1065
17855TIP3    H175056   1.998   3.064  31.474 -0.3956  0.5990 -2.6341
17855TIP3    H275057   2.045   3.207  31.491  0.3102  0.0806  0.3402
17856TIP3   OH275058   3.340   1.758   8.722  0.0205  0.3802  0.1969
17856TIP3    H175059   3.347   1.689   8.655  0.1535 -0.6756  1.2602
17856TIP3    H275060   3.247   1.757   8.746  0.1130  0.2391  0.5510
17857TIP3   OH275061   2.148   0.939  44.700 -0.6045 -0.6826 -0.2309
17857TIP3    H175062   2.234   0.933  44.742 -0.4198 -4.1400 -0.7766
17857TIP3    H275063   2.167   0.955  44.608 -0.4077 -2.2060 -0.4895
17858TIP3   OH275064   2.629   1.475  13.987 -0.1956  0.0888  0.4232
17858TIP3    H175065   2.640   1.384  13.962 -2.4632 -0.3881  0.9576
17858TIP3    H275066   2.717   1.512  13.984  1.0038 -2.4804  1.6330
17859TIP3   OH275067   0.427   0.301  12.121  0.1216 -0.1546  0.1066
17859TIP3    H175068   0.392   0.217  12.148 -1.2049  0.8168  1.5990
17859TIP3    H275069   0.447   0.290  12.028  1.2473 -2.4887  0.5640
17860TIP3   OH275070   1.085   1.121   2.416  1.3261 -0.1608 -0.3560
17860TIP3    H175071   1.069   1.088   2.328 -0.2895  0.3528 -0.2742
17860TIP3    H275072   1.129   1.049   2.461 -0.4015 -1.5340 -0.7577
17861TIP3   OH275073   1.423   3.004  44.806  0.1651  0.0720  0.2476
17861TIP3    H175074   1.383   2.936  44.861  0.0423 -0.4738 -0.5022
17861TIP3    H275075   1.350   3.041  44.756  0.3038  0.4299  0.3074
17862TIP3   OH275076   1.678   2.939  21.271 -0.3047 -0.1334  0.6040
17862TIP3    H175077   1.768   2.949  21.302 -0.3892  0.1102  0.7766
17862TIP3    H275078   1.685   2.885  21.192  0.1272  0.8796 -0.0742
17863TIP3   OH275079   1.723   2.327  43.464  0.6280  0.0397 -0.0165
17863TIP3    H175080   1.784   2.380  43.413  0.5145 -0.0367 -0.2320
17863TIP3    H275081   1.750   2.340  43.555 -0.5606  1.9499  0.1033
17864TIP3   OH275082   1.015   3.788  15.465  0.0312 -0.3481  0.4566
17864TIP3    H175083   1.074   3.753  15.399 -0.6306 -0.0426 -0.3097
17864TIP3    H275084   1.047   3.752  15.548  0.9921 -0.5620 -0.0053
17865TIP3   OH275085   1.283   0.803  35.721  0.7811 -0.0344  0.0219
17865TIP3    H175086   1.357   0.767  35.770  1.6921 -0.8888 -1.8910
17865TIP3    H275087   1.310   0.798  35.629 -2.3683 -2.2970 -0.9726
17866TIP3   OH275088   2.344   0.836  10.513  0.1024 -0.0632 -0.0022
17866TIP3    H175089   2.319   0.750  10.478 -1.9080  0.8407 -0.9303
17866TIP3    H275090   2.414   0.866  10.455 -0.6015 -0.2077 -0.9393
17867TIP3   OH275091   2.478   1.498  13.312  0.0196 -0.0974  0.0255
17867TIP3    H175092   2.386   1.483  13.331 -0.3315  0.0500 -1.4109
17867TIP3    H275093   2.513   1.542  13.390 -1.1435 -0.0710  0.5431
17868TIP3   OH275094   2.543   2.779  10.355 -0.0518 -0.0674  0.4054
17868TIP3    H175095   2.469   2.745  10.306  1.0337 -0.4335 -1.0649
17868TIP3    H275096   2.596   2.825  10.290  0.4697  1.1274  1.6290
17869TIP3   OH275097   3.576   2.823  15.822 -0.1130  0.5786  0.1346
17869TIP3    H175098   3.640   2.758  15.852 -0.2237  1.3036  2.0451
17869TIP3    H275099   3.624   2.906  15.821 -0.1548  0.6318 -1.6666
17870TIP3   OH275100   0.262   2.354  19.276 -0.1544  0.6187 -0.2553
17870TIP3    H175101   0.348   2.313  19.284 -1.1034 -1.5242 -0.4665
17870TIP3    H275102   0.268   2.406  19.195  1.3231  1.6042  0.4361
17871TIP3   OH275103   0.166   2.444  37.955  0.0551  0.1802  0.0021
17871TIP3    H175104   0.071   2.432  37.955 -0.0449  0.1196  3.3198
17871TIP3    H275105   0.181   2.509  37.886 -2.3316 -0.0531 -0.8499
17872TIP3   OH275106   1.360   2.463  32.754 -0.1668  0.2310  0.2121
17872TIP3    H175107   1.363   2.556  32.780 -0.9161  0.3920 -0.2393
17872TIP3    H275108   1.413   2.418  32.820  1.1779  1.1176 -0.2130
17873TIP3   OH275109   0.733   2.992  10.483 -0.3951 -0.0168 -0.1261
17873TIP3    H175110   0.643   2.969  10.459 -0.2858 -0.4003 -0.1776
17873TIP3    H275111   0.750   2.940  10.562 -0.6657  1.0400  0.6497
17874TIP3   OH275112   1.732   1.698   2.017  0.4191  0.3576 -0.2272
17874TIP3    H175113   1.769   1.669   1.934  1.8484 -1.6950  1.0386
17874TIP3    H275114   1.637   1.688   2.005  0.6062 -0.1544 -1.5093
17875TIP3   OH275115   4.084   3.012   9.324  0.6325  0.1499  0.1391
17875TIP3    H175116   4.164   3.020   9.377  1.0446 -0.4586 -0.3856
17875TIP3    H275117   4.018   3.060   9.374  1.0793 -0.1818  1.0726
17876TIP3   OH275118   2.103   2.929  12.271  0.1037 -0.4068  0.1801
17876TIP3    H175119   2.117   2.904  12.362  0.8815 -0.9048 -0.0702
17876TIP3    H275120   2.092   2.847  12.224 -2.8878 -0.1126  0.1793
17877TIP3   OH275121   0.214   0.379  40.847  0.0783 -0.1070  0.0390
17877TIP3    H175122   0.306   0.407  40.846  0.6787 -1.6467 -3.2284
17877TIP3    H275123   0.167   0.450  40.802 -0.0901 -0.0194  0.3488
17878TIP3   OH275124   1.752   3.682  38.292  0.0035 -0.7633  0.0723
17878TIP3    H175125   1.733   3.744  38.221 -0.4826  0.1052  0.9339
17878TIP3    H275126   1.847   3.678  38.296  0.0349 -0.8102 -0.6141
17879TIP3   OH275127   0.165   3.595  34.419  0.5489  0.1729 -0.0764
17879TIP3    H175128   0.091   3.614  34.477  0.2548 -1.0534 -0.0343
17879TIP3    H275129   0.238   3.576  34.477  0.7742  0.8915 -0.1155
17880TIP3   OH275130   1.527   0.301  13.849 -0.5868 -0.0178  0.2778
17880TIP3    H175131   1.488   0.224  13.808  0.8880  1.3105 -4.2146
17880TIP3    H275132   1.454   0.361  13.862 -0.9702  0.1375 -2.2064
17881TIP3   OH275133   2.625   3.185  39.184 -0.1803  0.7028  0.2004
17881TIP3    H175134   2.572   3.217  39.111  0.6859  0.9735 -0.3284
17881TIP3    H275135   2.591   3.097  39.202 -1.2316  1.1200  0.3191
17882TIP3   OH275136   2.268   1.051  43.559  0.7277  0.9403  0.2840
17882TIP3    H175137   2.320   1.000  43.497 -0.7016  0.1604 -0.3135
17882TIP3    H275138   2.212   1.107  43.505 -1.3251 -0.5273  0.7649
17883TIP3   OH275139   0.107   2.788  45.607  0.2749 -0.7977  0.4279
17883TIP3    H175140   0.170   2.779  45.679 -1.6170 -0.8254  2.1657
17883TIP3    H275141   0.022   2.770  45.647 -1.1941  1.9918 -1.1566
17884TIP3   OH275142   2.304   0.759   7.630  0.4534 -0.0876 -0.0293
17884TIP3    H175143   2.380   0.783   7.684  2.7727  0.4544 -3.2677
17884TIP3    H275144   2.294   0.665   7.642  1.4733 -0.1245  0.6201
17885TIP3   OH275145   4.017   3.264  33.607  0.4932  0.2498  0.2674
17885TIP3    H175146   3.934   3.216  33.608  0.3333  0.4903 -0.4146
17885TIP3    H275147   4.003   3.333  33.542  1.2300  0.2967  0.1515
17886TIP3   OH275148   1.333   0.368   3.626  0.6371 -0.3249  0.1149
17886TIP3    H175149   1.276   0.293   3.646  2.4087 -1.4150  1.3469
17886TIP3    H275150   1.278   0.426   3.573 -1.2785 -1.7817  0.3861
17887TIP3   OH275151   1.177   3.473  15.438  0.1761  0.2865 -0.3599
17887TIP3    H175152   1.086   3.466  15.409 -0.7307  0.3466  2.1981
17887TIP3    H275153   1.192   3.393  15.488  1.3245  0.5608 -0.2389
17888TIP3   OH275154   3.591   2.050  11.522  0.7195  0.1462  0.1934
17888TIP3    H175155   3.594   1.987  11.595 -0.2748 -0.5551 -0.3538
17888TIP3    H275156   3.636   2.006  11.450  1.1067  0.5670  0.1712
17889TIP3   OH275157   1.231   2.443  11.521  0.0078  0.3856  0.3677
17889TIP3    H175158   1.142   2.475  11.508  0.3958  1.2951 -0.1879
17889TIP3    H275159   1.264   2.428  11.433  1.1499  2.2526  0.4257
17890TIP3   OH275160   0.416   3.857   8.292 -0.0721  0.3387 -0.3637
17890TIP3    H175161   0.329   3.896   8.278  0.9026  2.3123 -1.2837
17890TIP3    H275162   0.402   3.794   8.363 -2.3771  0.1280 -0.9155
17891TIP3   OH275163   1.857   3.851   8.228  0.0257  0.3605 -0.3275
17891TIP3    H175164   1.887   3.802   8.152  0.5379 -0.8092  0.5900
17891TIP3    H275165   1.818   3.931   8.192  0.6528  0.0424 -1.7701
17892TIP3   OH275166   3.992   0.477  35.275  0.2034 -0.0931  0.0641
17892TIP3    H175167   3.929   0.543  35.247  1.4099  2.0698  2.0939
17892TIP3    H275168   4.063   0.482  35.211 -0.9186 -1.5339 -1.4035
17893TIP3   OH275169   2.625   3.261  46.058  0.2813  0.1710 -0.3528
17893TIP3    H175170   2.561   3.326  46.088 -1.2526 -0.5557 -1.8723
17893TIP3    H275171   2.696   3.313  46.021  0.0218  0.9939  0.2773
17894TIP3   OH275172   2.941   3.277  11.231  0.1445 -0.1772  0.2011
17894TIP3    H175173   2.922   3.364  11.197 -0.3755  0.2103  1.4497
17894TIP3    H275174   2.940   3.220  11.154 -0.0944  0.8222 -0.5422
17895TIP3   OH275175   3.688   3.799  27.443 -0.1748 -0.1643 -0.0697
17895TIP3    H175176   3.633   3.865  27.401 -0.6729 -0.8231 -0.4882
17895TIP3    H275177   3.699   3.732  27.376 -1.0756 -1.2982  0.8651
17896TIP3   OH275178   1.543   3.727  43.535  0.1178 -0.0084 -0.1323
17896TIP3    H175179   1.637   3.732  43.517 -0.1615  1.8934 -1.3237
17896TIP3    H275180   1.502   3.777  43.464 -1.5974  1.5414  1.8232
17897TIP3   OH275181   2.391   0.355  36.429 -0.7428  0.4140 -0.5480
17897TIP3    H175182   2.317   0.383  36.374 -1.9951 -1.7394 -0.0791
17897TIP3    H275183   2.364   0.270  36.463  1.3931  0.2170  0.8029
17898TIP3   OH275184   0.004   0.806  34.014  0.1791  0.0204  0.1588
17898TIP3    H175185  -0.079   0.774  33.979  0.5750 -2.6445  1.4550
17898TIP3    H275186  -0.022   0.870  34.081 -0.7282  0.7739 -0.8826
17899TIP3   OH275187   1.855   3.101  46.435 -0.2058  0.1716 -0.0202
17899TIP3    H175188   1.923   3.078  46.498  0.6143 -0.6430 -1.1649
17899TIP3    H275189   1.899   3.160  46.373 -0.3104 -0.8933 -1.1547
17900TIP3   OH275190   1.976   1.318  32.742  0.8310 -0.2162  0.5967
17900TIP3    H175191   1.923   1.394  32.718 -0.5034 -1.2617  0.1143
17900TIP3    H275192   1.955   1.303  32.835  1.4624  0.2754  0.8249
17901TIP3   OH275193   3.665   2.624  42.688  0.3375  0.1309 -0.3174
17901TIP3    H175194   3.757   2.597  42.692  1.0268  1.2829 -4.3377
17901TIP3    H275195   3.667   2.718  42.702 -0.1085  0.2571 -1.0413
17902TIP3   OH275196   2.318   1.606  31.511 -0.3921  0.4406  0.1121
17902TIP3    H175197   2.400   1.557  31.518 -0.1276  0.8077 -0.3964
17902TIP3    H275198   2.261   1.550  31.458 -0.3737  0.3160  0.2227
17903TIP3   OH275199   3.124   2.298   5.825  0.4825  0.1505 -0.0707
17903TIP3    H175200   3.154   2.364   5.889  0.7263  0.8948 -0.9341
17903TIP3    H275201   3.038   2.329   5.797  0.7882  0.3410 -0.8072
17904TIP3   OH275202   1.703   0.586  32.378 -0.3779 -0.1069  0.2512
17904TIP3    H175203   1.632   0.646  32.400 -0.8271 -0.8639  0.9522
17904TIP3    H275204   1.754   0.632  32.311 -2.4613 -0.2141 -1.4972
17905TIP3   OH275205   1.798   3.769  47.056  0.1798 -0.6095  0.3248
17905TIP3    H175206   1.786   3.797  47.147 -0.2675 -0.0233  0.0895
17905TIP3    H275207   1.811   3.674  47.062 -0.1021 -0.6150  0.9749
17906TIP3   OH275208   2.095   1.401  12.774 -0.6810 -0.3292  0.6576
17906TIP3    H175209   2.128   1.486  12.803 -0.9192 -0.6269  1.8713
17906TIP3    H275210   2.120   1.340  12.844  0.7335 -1.5595 -0.8214
17907TIP3   OH275211   2.937   2.883  46.679  0.1795 -0.9369 -0.4295
17907TIP3    H175212   2.890   2.848  46.754  0.3217 -0.7618 -0.2606
17907TIP3    H275213   3.026   2.848  46.687  0.8533  0.9049  0.7390
17908TIP3   OH275214   3.772   2.494  33.206 -0.3596 -0.0664  0.4334
17908TIP3    H175215   3.779   2.402  33.179 -2.4747 -0.3075  0.5006
17908TIP3    H275216   3.737   2.538  33.129  0.5826  0.6767  0.4248
17909TIP3   OH275217   1.946   2.160  37.155 -0.2281 -0.5751  0.2020
17909TIP3    H175218   2.008   2.127  37.089  1.8326  3.0537  0.0406
17909TIP3    H275219   1.865   2.176  37.106  0.8661  0.8377 -1.2842
17910TIP3   OH275220   3.262   2.497   3.359 -0.0892 -0.4749 -0.4645
17910TIP3    H175221   3.328   2.429   3.372 -1.3342 -1.3825  1.7179
17910TIP3    H275222   3.190   2.453   3.314 -1.1198 -0.8590  1.4189
17911TIP3   OH275223   1.007   2.595  16.682 -0.0297  0.1982 -0.2471
17911TIP3    H175224   0.985   2.688  16.684 -0.4384  0.1479 -1.6558
17911TIP3    H275225   1.102   2.592  16.673  0.0697  0.4648  0.6746
17912TIP3   OH275226   2.494   0.930   5.838 -0.0620  0.9749  0.4320
17912TIP3    H175227   2.425   0.919   5.773 -0.5465 -0.8178  1.1841
17912TIP3    H275228   2.508   0.842   5.873  2.5198  1.2983  0.3991
17913TIP3   OH275229   3.173   3.388   4.453  0.2111 -0.1266  0.0022
17913TIP3    H175230   3.252   3.335   4.450 -0.0746 -0.5293 -1.4778
17913TIP3    H275231   3.108   3.331   4.494  0.2218 -0.5018 -0.4838
17914TIP3   OH275232   2.884   1.636  33.508 -0.3286 -0.6845  0.3958
17914TIP3    H175233   2.804   1.610  33.463 -1.7184  1.6637  1.3599
17914TIP3    H275234   2.854   1.676  33.590  1.7430  1.1139  0.3740
17915TIP3   OH275235   3.723   2.224  38.630 -0.3702 -1.0697  0.3702
17915TIP3    H175236   3.727   2.273  38.712  0.9233 -0.5638  0.0240
17915TIP3    H275237   3.658   2.271  38.577  1.5040  0.8954 -0.3146
17916TIP3   OH275238   0.221   3.022  13.289  0.1613  0.3166 -0.3775
17916TIP3    H175239   0.125   3.015  13.286  0.1570  0.5928 -1.8193
17916TIP3    H275240   0.252   2.940  13.251  0.5517 -0.2630  1.1145
17917TIP3   OH275241   2.147   0.314  47.374 -0.4869 -0.3246  0.0383
17917TIP3    H175242   2.069   0.355  47.412 -0.6573 -0.4966 -0.1246
17917TIP3    H275243   2.121   0.223  47.359 -0.5133 -0.1986 -0.7410
17918TIP3   OH275244   0.269   2.187  14.426  0.0608  0.3805  0.8949
17918TIP3    H175245   0.246   2.100  14.457 -0.8602  0.7951  1.4420
17918TIP3    H275246   0.277   2.240  14.506  2.4386  0.4176  0.7087
17919TIP3   OH275247   1.714   0.218  14.823  0.0586  0.0646  0.1372
17919TIP3    H175248   1.656   0.293  14.826  0.4690  0.4854 -1.4641
17919TIP3    H275249   1.765   0.223  14.904 -1.4405  0.2195  1.0977
17920TIP3   OH275250   0.843   2.856  14.138 -0.0443 -0.0998  0.1515
17920TIP3    H175251   0.755   2.818  14.144 -0.2010 -0.0209 -1.3669
17920TIP3    H275252   0.890   2.817  14.211 -1.1636 -0.6191  0.6234
17921TIP3   OH275253   3.238   1.942  31.746 -0.3645 -0.3181  0.1309
17921TIP3    H175254   3.305   1.886  31.786  0.9168  1.2023  0.2284
17921TIP3    H275255   3.284   1.990  31.677 -1.2950  0.9004  0.3147
17922TIP3   OH275256   1.610   3.770  31.265  0.2858 -0.1976  0.4509
17922TIP3    H175257   1.567   3.818  31.194 -0.3518 -0.9912  0.2855
17922TIP3    H275258   1.697   3.810  31.272  0.6651 -0.5959 -1.3214
17923TIP3   OH275259   3.352   4.055  45.706  0.4049  0.4388 -0.4224
17923TIP3    H175260   3.355   4.132  45.651  1.3854 -0.4144 -1.6164
17923TIP3    H275261   3.339   3.982  45.646  1.2727 -0.5034  0.4840
17924TIP3   OH275262   2.265   3.795   7.151  0.0735  0.3302  0.7382
17924TIP3    H175263   2.243   3.870   7.095  1.0627  1.6605  2.0547
17924TIP3    H275264   2.280   3.833   7.237 -1.4751 -1.6790  1.9795
17925TIP3   OH275265   1.118   3.911  44.463  0.2952  0.2546 -0.3461
17925TIP3    H175266   1.093   3.970  44.534  2.0695  0.2917  0.3110
17925TIP3    H275267   1.214   3.911  44.465  0.3584 -0.9729 -1.7306
17926TIP3   OH275268   0.968   0.260   1.798  0.4465 -0.3451 -0.9501
17926TIP3    H175269   1.056   0.260   1.837  0.7825 -0.3877 -1.7062
17926TIP3    H275270   0.966   0.337   1.742 -0.7737  0.9383  0.7296
17927TIP3   OH275271   3.917   2.347   2.679  0.5324  0.2566  0.6347
17927TIP3    H175272   3.904   2.310   2.592  0.3524  0.6831  0.4738
17927TIP3    H275273   3.981   2.290   2.721 -1.5048 -1.6512  1.2817
17928TIP3   OH275274   2.114   3.278  32.662  0.2916 -0.0476 -0.1634
17928TIP3    H175275   2.131   3.289  32.756 -0.2868  1.0019 -0.1704
17928TIP3    H275276   2.139   3.362  32.624 -2.0256  0.5186 -0.5750
17929TIP3   OH275277   2.242   1.823  47.029  0.2031  0.0007 -0.1629
17929TIP3    H175278   2.322   1.771  47.017 -0.8847 -2.0009  0.7587
17929TIP3    H275279   2.238   1.839  47.123 -0.0247  0.9006 -0.3202
17930TIP3   OH275280   2.640   2.524   3.682 -0.0165  0.3373 -0.3685
17930TIP3    H175281   2.593   2.559   3.606 -0.3943  2.1878  0.6280
17930TIP3    H275282   2.720   2.576   3.687  0.9370 -1.0566 -0.5616
17931TIP3   OH275283   3.567   0.729  37.117  0.0416  0.0511  0.3723
17931TIP3    H175284   3.476   0.733  37.146  0.5944  0.4909  2.1272
17931TIP3    H275285   3.566   0.766  37.028 -1.6615 -1.1191 -0.1404
17932TIP3   OH275286   2.818   3.317  35.327  0.1996  0.3463 -0.0757
17932TIP3    H175287   2.878   3.367  35.383  0.2682 -0.1503  0.3049
17932TIP3    H275288   2.833   3.226  35.352  1.5048 -0.0806 -2.1199
17933TIP3   OH275289   0.828   1.143   1.629 -0.3406 -0.0025 -0.3136
17933TIP3    H175290   0.824   1.070   1.691 -1.2282 -1.0866 -1.5788
17933TIP3    H275291   0.753   1.198   1.651  0.3516  0.5785  0.6665
17934TIP3   OH275292   3.852   2.613   4.632  0.3508 -0.0283 -0.4032
17934TIP3    H175293   3.886   2.581   4.549  0.4200 -0.5591 -0.1720
17934TIP3    H275294   3.776   2.666   4.608 -0.6303 -1.5266 -0.7016
17935TIP3   OH275295   2.432   1.761   3.429 -0.1280  0.3565  0.2234
17935TIP3    H175296   2.504   1.786   3.371 -0.6012 -1.2941 -1.1536
17935TIP3    H275297   2.425   1.833   3.491  1.7248  1.2458 -0.5357
17936TIP3   OH275298   1.219   3.357  42.703  0.6123 -0.1513 -0.0416
17936TIP3    H175299   1.260   3.444  42.701  0.7832 -0.1868  1.0172
17936TIP3    H275300   1.207   3.339  42.796  1.6549 -1.7645 -0.1723
17937TIP3   OH275301   0.941   1.459  16.008 -0.3194  0.2135  0.4792
17937TIP3    H175302   0.904   1.425  16.090  0.2216 -0.3151  0.5217
17937TIP3    H275303   0.997   1.532  16.036  0.6333 -0.5721  0.7177
17938TIP3   OH275304   2.854   2.483  38.062 -0.0787 -0.1351 -0.5557
17938TIP3    H175305   2.915   2.415  38.091 -2.1688 -1.2880  1.4932
17938TIP3    H275306   2.871   2.557  38.120  0.3196  0.0700 -0.9327
17939TIP3   OH275307   3.186   1.465  19.608  0.1184 -0.4415  0.1761
17939TIP3    H175308   3.180   1.458  19.513 -0.3339 -0.4894  0.2047
17939TIP3    H275309   3.257   1.406  19.633  1.8152  1.2917 -0.3500
17940TIP3   OH275310   3.879   3.769  35.289  0.0673 -0.7967  0.0769
17940TIP3    H175311   3.946   3.798  35.350  0.5644  0.4567 -1.0173
17940TIP3    H275312   3.926   3.752  35.208 -1.0196  1.1405 -1.0424
17941TIP3   OH275313   2.869   3.469   8.901  0.4252  0.0892  0.8179
17941TIP3    H175314   2.839   3.518   8.824  0.2066 -0.0259  0.8300
17941TIP3    H275315   2.809   3.395   8.907  1.3278 -0.7005  0.2470
17942TIP3   OH275316   3.554   1.530  43.320 -0.4118 -0.1506  0.8161
17942TIP3    H175317   3.634   1.481  43.301 -0.8145 -1.2728  1.8564
17942TIP3    H275318   3.487   1.462  43.328 -1.5663  0.7854 -0.3823
17943TIP3   OH275319   3.750   0.332  44.134  0.6040  0.3421 -0.0730
17943TIP3    H175320   3.726   0.352  44.043  0.6530 -0.8710 -0.3653
17943TIP3    H275321   3.668   0.303  44.175  0.6571  0.5440  0.1784
17944TIP3   OH275322   2.997   1.791  40.729 -0.1979  0.8356  0.0063
17944TIP3    H175323   2.993   1.733  40.653  0.8781  0.3548  0.2858
17944TIP3    H275324   2.974   1.877  40.695  1.4336  0.8783 -1.1629
17945TIP3   OH275325   1.096   1.701   6.405  0.7829  0.0367 -0.0194
17945TIP3    H175326   1.011   1.730   6.437 -0.9580 -3.4621 -0.9606
17945TIP3    H275327   1.138   1.661   6.482  0.2805 -0.7879 -0.1587
17946TIP3   OH275328   0.612   1.562   3.829 -0.4032 -0.5378  0.3018
17946TIP3    H175329   0.598   1.552   3.734 -0.4899 -0.6040  0.3212
17946TIP3    H275330   0.542   1.621   3.857  0.6225  0.8734  0.0408
17947TIP3   OH275331   2.201   2.804  38.277  0.2800  0.5869  0.2532
17947TIP3    H175332   2.164   2.803  38.365 -0.2377 -3.2748  0.1719
17947TIP3    H275333   2.130   2.839  38.222 -0.7355 -0.3022  0.9530
17948TIP3   OH275334   0.153   1.963  34.148  0.2983 -0.0850  0.1373
17948TIP3    H175335   0.168   1.930  34.237  1.3248 -1.3294 -0.4724
17948TIP3    H275336   0.232   1.939  34.100 -0.0069  1.0779 -0.9807
17949TIP3   OH275337   0.121   3.370   5.746  0.5397 -0.0436  0.7338
17949TIP3    H175338   0.149   3.315   5.820 -0.9039 -0.2064  1.1988
17949TIP3    H275339   0.144   3.320   5.668  0.6067 -0.6310  1.1259
17950TIP3   OH275340   0.713   3.666  10.706 -0.0398  0.1639 -0.1047
17950TIP3    H175341   0.664   3.611  10.767 -0.6639 -0.9126 -1.5086
17950TIP3    H275342   0.655   3.740  10.687  0.0395  0.3510  0.3836
17951TIP3   OH275343   3.171   0.517  14.721  0.2446  0.4478 -0.3361
17951TIP3    H175344   3.141   0.439  14.768 -2.3367  1.9462  0.7563
17951TIP3    H275345   3.137   0.506  14.633  1.1614 -0.3041 -0.6065
17952TIP3   OH275346   2.997   2.192   9.419  0.2390  0.3687  0.0112
17952TIP3    H175347   2.979   2.241   9.338 -1.6685 -0.0184  0.1494
17952TIP3    H275348   3.032   2.109   9.388 -0.2612  0.3098 -0.4266
17953TIP3   OH275349   3.009   3.111   1.065 -0.4950 -0.4422 -0.0399
17953TIP3    H175350   2.966   3.051   1.125 -1.1595  0.8397  0.7896
17953TIP3    H275351   3.074   3.157   1.118  0.4000 -0.7916 -0.7922
17954TIP3   OH275352   1.672   2.203  37.055 -0.1128  0.2186 -0.1786
17954TIP3    H175353   1.627   2.288  37.049 -2.5963 -0.8578  1.5138
17954TIP3    H275354   1.602   2.138  37.043  0.9774 -1.5832  2.3638
17955TIP3   OH275355   0.731   2.418  38.042 -0.1233 -0.3754  0.2598
17955TIP3    H175356   0.743   2.328  38.013 -0.2731 -0.4654  0.4728
17955TIP3    H275357   0.814   2.461  38.022 -0.3269 -0.3553 -0.5824
17956TIP3   OH275358   2.659   0.766   2.037  1.1156 -0.3388 -0.0932
17956TIP3    H175359   2.739   0.816   2.054  0.6609  0.5941 -0.6234
17956TIP3    H275360   2.646   0.773   1.943 -0.7758  1.4188  0.2325
17957TIP3   OH275361   0.510   0.675  40.967 -0.8703 -0.1278  0.1868
17957TIP3    H175362   0.520   0.586  40.932  1.4754  0.2241 -0.2039
17957TIP3    H275363   0.416   0.693  40.960 -1.2398 -2.1262 -0.8174
17958TIP3   OH275364   0.808   1.405  35.282  1.3287 -0.1200  0.2257
17958TIP3    H175365   0.731   1.461  35.291  1.8714  0.7903 -0.5854
17958TIP3    H275366   0.794   1.359  35.199  1.6261  0.0044  0.1071
17959TIP3   OH275367   0.586   3.714  31.289 -0.3112 -0.6185 -1.1638
17959TIP3    H175368   0.509   3.660  31.274 -1.9456  1.7531 -1.9535
17959TIP3    H275369   0.634   3.712  31.207  0.1702 -1.6132 -0.8696
17960TIP3   OH275370   2.235   2.577  33.635 -0.1759  0.1609 -0.4223
17960TIP3    H175371   2.262   2.488  33.613 -1.1490 -0.2054 -0.2084
17960TIP3    H275372   2.174   2.565  33.709  0.8664  1.1240  0.6218
17961TIP3   OH275373   2.133   0.365  31.416 -0.1300  0.4775 -0.0342
17961TIP3    H175374   2.147   0.449  31.372  3.1156  0.5169  0.8240
17961TIP3    H275375   2.201   0.362  31.483 -0.3707 -2.6776  0.2032
17962TIP3   OH275376   0.387   0.264   3.258 -0.1625  0.0112 -0.0755
17962TIP3    H175377   0.302   0.221   3.248 -0.0431 -0.1868 -0.2547
17962TIP3    H275378   0.366   0.351   3.293 -0.5722  0.5529 -1.5810
17963TIP3   OH275379   0.188   0.672   0.150 -0.0935  0.2471  0.3211
17963TIP3    H175380   0.155   0.668   0.060  1.1599 -0.3354 -0.1494
17963TIP3    H275381   0.173   0.584   0.184 -1.4833  0.7425  1.0548
17964TIP3   OH275382   1.821   0.388  25.956  0.3220  0.0966 -0.0252
17964TIP3    H175383   1.805   0.481  25.940 -0.8555 -0.1124 -0.1427
17964TIP3    H275384   1.860   0.386  26.043 -0.2854  0.6509  0.2711
17965TIP3   OH275385   0.806   3.737   4.601  0.3273 -0.8666  0.0898
17965TIP3    H175386   0.889   3.771   4.568 -0.6146  1.1314 -0.3985
17965TIP3    H275387   0.753   3.721   4.523 -0.0214 -1.3847  0.4234
17966TIP3   OH275388   2.395   2.788  22.213 -0.1217  0.6659  0.3524
17966TIP3    H175389   2.454   2.766  22.284  1.8233  2.9122 -0.4519
17966TIP3    H275390   2.423   2.732  22.140  1.3092  1.9489 -0.1237
17967TIP3   OH275391   3.813   3.011  43.491  0.4534 -0.6064 -0.1024
17967TIP3    H175392   3.853   3.095  43.469  0.2632 -0.7387 -1.0147
17967TIP3    H275393   3.821   3.004  43.586  0.8539  0.2457 -0.0654
17968TIP3   OH275394   3.908   0.333  36.975 -0.4729  0.6339  0.0229
17968TIP3    H175395   3.941   0.406  37.027  1.1243  0.2587 -0.4100
17968TIP3    H275396   3.977   0.267  36.981 -1.1264 -0.1612 -1.0108
17969TIP3   OH275397   2.312   0.125   5.242  0.7515  0.2999  0.3766
17969TIP3    H175398   2.394   0.129   5.193  0.2394 -1.2485 -0.6550
17969TIP3    H275399   2.267   0.048   5.209 -0.7995  0.6818  1.4629
17970TIP3   OH275400   0.323   1.133   4.063 -0.1332 -0.1675 -0.3913
17970TIP3    H175401   0.323   1.063   4.128 -0.9484 -1.3662 -1.6153
17970TIP3    H275402   0.378   1.099   3.991  0.6682  1.0759 -0.3969
17971TIP3   OH275403   1.460   1.872  21.793  0.3073 -0.0963 -0.3340
17971TIP3    H175404   1.549   1.885  21.761  0.0995  0.0368 -0.8648
17971TIP3    H275405   1.462   1.787  21.838  0.1805 -1.1537 -2.2369
17972TIP3   OH275406   3.811   2.161  33.232  0.8891 -0.0719  0.2205
17972TIP3    H175407   3.802   2.127  33.143  2.0348 -3.4512  1.2345
17972TIP3    H275408   3.726   2.147  33.273  0.8546 -0.1195  0.1307
17973TIP3   OH275409   3.696   2.224  15.883  0.0160  0.1200 -0.7902
17973TIP3    H175410   3.653   2.309  15.887 -0.4733 -0.1474 -0.1455
17973TIP3    H275411   3.643   2.172  15.823 -1.0375 -0.4499  0.5771
17974TIP3   OH275412   3.612   0.047   4.432  0.1895  0.0378  0.6382
17974TIP3    H175413   3.648   0.048   4.343 -1.9314 -0.9312 -0.2890
17974TIP3    H275414   3.663  -0.019   4.478  1.2658  0.5012  0.1463
17975TIP3   OH275415   2.819   1.615  20.197  0.2426 -0.8716  0.2564
17975TIP3    H175416   2.876   1.674  20.246  0.1394  1.8355 -2.5880
17975TIP3    H275417   2.749   1.593  20.259  1.4249  0.2818  2.0980
17976TIP3   OH275418   3.262   1.701   3.264  0.2458  0.0388 -0.4812
17976TIP3    H175419   3.336   1.758   3.245  0.0750  0.5063  0.2118
17976TIP3    H275420   3.300   1.629   3.314  0.5301 -0.6913 -1.6968
17977TIP3   OH275421   2.911   3.227  33.202 -0.9634 -0.1059 -0.1203
17977TIP3    H175422   2.865   3.275  33.271 -1.1445  0.4146 -0.6005
17977TIP3    H275423   2.914   3.137  33.234 -1.6423  0.0016  0.2641
17978TIP3   OH275424   3.621   1.351   4.691 -0.0688 -0.2333  0.5071
17978TIP3    H175425   3.647   1.425   4.745 -0.5965  0.2748  0.0819
17978TIP3    H275426   3.555   1.387   4.632  2.1455 -0.1390 -2.1406
17979TIP3   OH275427   3.072   2.446  33.045  0.1694  0.0875  0.5143
17979TIP3    H175428   3.040   2.508  32.979 -0.3349 -0.0830  0.5969
17979TIP3    H275429   3.166   2.439  33.027  0.6774  2.4670  1.7783
17980TIP3   OH275430   1.306   0.510  26.630 -0.0111  0.0917  0.8450
17980TIP3    H175431   1.223   0.463  26.632 -0.7752  1.3970  1.4986
17980TIP3    H275432   1.295   0.574  26.560  1.4070 -1.3142 -0.7654
17981TIP3   OH275433   2.139   2.205  31.730 -0.0999 -0.2165 -0.3780
17981TIP3    H175434   2.061   2.152  31.711 -0.6900  0.7617 -0.7500
17981TIP3    H275435   2.120   2.246  31.815 -0.2212  0.4283 -0.7125
17982TIP3   OH275436   2.833   3.081  29.795 -0.1719 -0.1222  0.2859
17982TIP3    H175437   2.807   3.171  29.813 -1.0522 -0.3753  0.3303
17982TIP3    H275438   2.881   3.086  29.712  0.1389  0.4356  0.4934
17983TIP3   OH275439   2.757   0.823  32.805 -0.6833 -0.3911 -0.2574
17983TIP3    H175440   2.790   0.874  32.731 -0.8291  0.3211  0.1603
17983TIP3    H275441   2.827   0.825  32.870 -1.5293  1.2404  0.6881
17984TIP3   OH275442   1.172   1.858  10.307 -0.0007 -0.5071 -0.6490
17984TIP3    H175443   1.185   1.918  10.234  0.0482  1.7608  1.0873
17984TIP3    H275444   1.078   1.862  10.324  0.2060  0.3895  0.4458
17985TIP3   OH275445   1.153   0.630   4.288 -0.2313  0.0875 -0.1366
17985TIP3    H175446   1.091   0.559   4.306 -1.3527  1.6167  2.5368
17985TIP3    H275447   1.201   0.641   4.370  0.1490  2.1589 -0.5838
17986TIP3   OH275448   2.973   2.238   9.675 -0.8985 -0.3884 -0.0467
17986TIP3    H175449   3.068   2.246   9.674 -0.9666  0.7202  0.9120
17986TIP3    H275450   2.949   2.230   9.582  0.0676  0.0528 -0.3479
17987TIP3   OH275451   0.924   1.482   9.219  0.8963  0.5421  0.4278
17987TIP3    H175452   0.964   1.396   9.231 -0.3180 -0.2874 -1.1085
17987TIP3    H275453   0.991   1.534   9.175  0.6357 -0.5604 -1.3408
17988TIP3   OH275454   4.020   1.966  39.920  0.1547  0.2608  0.1531
17988TIP3    H175455   3.936   1.920  39.917 -0.6839  1.7692 -0.9110
17988TIP3    H275456   4.066   1.928  39.994 -1.5168 -0.5335  0.8253
17989TIP3   OH275457   2.903   1.040   8.765  0.2073  0.4335  0.5725
17989TIP3    H175458   2.823   1.056   8.716 -1.3390 -1.1424  2.4484
17989TIP3    H275459   2.916   1.120   8.817 -0.4502  0.4789  0.6664
17990TIP3   OH275460   3.356   3.938  36.466  0.4296  0.4567  0.2409
17990TIP3    H175461   3.316   3.885  36.535 -1.1986  0.5386 -0.5860
17990TIP3    H275462   3.391   3.875  36.404  0.2281  0.3596  0.2244
17991TIP3   OH275463   0.402   1.880   9.051 -0.0402  0.2740 -0.4600
17991TIP3    H175464   0.493   1.851   9.055 -0.5464 -1.2433  2.0606
17991TIP3    H275465   0.404   1.972   9.079  0.5804 -0.1752  1.0033
17992TIP3   OH275466   2.384   3.038  40.626  0.1875 -0.1836  0.3672
17992TIP3    H175467   2.415   2.992  40.549 -2.5087 -2.8486  0.6921
17992TIP3    H275468   2.327   3.107  40.592  0.0896 -0.4685 -0.0493
17993TIP3   OH275469   0.376   3.323  42.905  0.4433  0.2607  0.0998
17993TIP3    H175470   0.454   3.333  42.959  1.0058  1.1719 -0.8349
17993TIP3    H275471   0.303   3.335  42.966  0.9886 -1.2735  1.1115
17994TIP3   OH275472   1.480   2.105  17.270  0.1631  0.0379  0.1447
17994TIP3    H175473   1.522   2.185  17.237  1.6839  0.2275  2.3412
17994TIP3    H275474   1.525   2.086  17.352 -2.5198 -1.1148  1.4895
17995TIP3   OH275475   0.593   1.466  47.055  0.1083 -0.5906 -0.0880
17995TIP3    H175476   0.668   1.504  47.009 -1.3915 -0.5040 -2.6294
17995TIP3    H275477   0.560   1.537  47.110  1.4631 -0.4502  0.6037
17996TIP3   OH275478   2.696   3.286  29.920 -0.0355  0.1608  0.0856
17996TIP3    H175479   2.629   3.310  29.984  0.1135 -0.1202  0.3498
17996TIP3    H275480   2.775   3.332  29.949  0.0173  0.0785  0.0759
17997TIP3   OH275481   1.877   1.888  21.991  0.0024  0.1540  0.2601
17997TIP3    H175482   1.869   1.950  22.064 -0.4859  1.9798 -1.2612
17997TIP3    H275483   1.971   1.887  21.972 -0.0895  1.2870 -0.3637
17998TIP3   OH275484   3.818   0.689  15.476  0.0961 -0.3167 -0.3232
17998TIP3    H175485   3.748   0.705  15.413  2.0662 -1.0767 -2.8555
17998TIP3    H275486   3.776   0.638  15.545 -2.9721  3.3698  0.9342
17999TIP3   OH275487   0.825   3.858   6.415 -1.0776  0.0886 -0.2634
17999TIP3    H175488   0.877   3.919   6.362  0.2854 -0.1177  0.7736
17999TIP3    H275489   0.734   3.885   6.401 -0.7286  0.3803 -2.2428
18000TIP3   OH275490   2.262   0.326   9.276  0.1429 -0.1346  0.0471
18000TIP3    H175491   2.348   0.325   9.234  0.7720 -2.5898  1.2112
18000TIP3    H275492   2.202   0.294   9.208  0.5090 -0.4269 -0.1443
18001TIP3   OH275493   3.886   3.946  38.707 -0.0220  0.0643 -0.1768
18001TIP3    H175494   3.975   3.935  38.743  0.0055  2.1345  0.5116
18001TIP3    H275495   3.838   3.992  38.776 -0.9186  1.1863 -1.5005
18002TIP3   OH275496   1.497   0.657  35.156  0.2455 -0.3387 -0.0664
18002TIP3    H175497   1.555   0.597  35.204  0.4776 -0.1325 -0.0893
18002TIP3    H275498   1.556   0.720  35.115 -0.0591  0.5757  0.8637
18003TIP3   OH275499   3.109   0.782  41.189  0.1647  0.1878  0.1037
18003TIP3    H175500   3.078   0.864  41.226 -0.4067 -0.5559  1.3228
18003TIP3    H275501   3.032   0.744  41.147 -0.0453 -0.5685  1.1310
18004TIP3   OH275502   1.026   0.535  43.190  0.0721 -0.0992  0.4500
18004TIP3    H175503   1.105   0.486  43.166  0.2182  0.8560 -1.1178
18004TIP3    H275504   0.957   0.468  43.196  0.8958 -0.8913  1.5092
18005TIP3   OH275505   1.977   3.212  40.748  0.7134 -0.0353 -0.0624
18005TIP3    H175506   2.052   3.164  40.713  0.9329  0.2775 -0.0303
18005TIP3    H275507   2.014   3.294  40.781  0.2432  0.4765 -0.7689
18006TIP3   OH275508   2.055   2.379  46.203  0.0395 -0.5384 -0.2932
18006TIP3    H175509   1.963   2.354  46.207 -0.2099  0.0697 -1.6825
18006TIP3    H275510   2.074   2.415  46.289 -0.7599 -1.5117  0.3124
18007TIP3   OH275511   2.682   3.235  40.077 -0.2893 -0.1342 -0.7042
18007TIP3    H175512   2.637   3.157  40.110 -1.7947  0.4866 -1.1716
18007TIP3    H275513   2.765   3.202  40.044  0.7071 -0.9821  2.3477
18008TIP3   OH275514   2.574   1.748  35.363  0.3040  0.6585  0.4706
18008TIP3    H175515   2.600   1.814  35.428  1.9437 -0.8827  1.4549
18008TIP3    H275516   2.548   1.672  35.415  1.6869 -0.6339 -0.6379
18009TIP3   OH275517   2.123   0.516  47.707  0.2019  0.3236  0.0361
18009TIP3    H175518   2.191   0.531  47.773 -0.0456 -0.5644  0.5124
18009TIP3    H275519   2.041   0.519  47.757 -0.2782  2.9150 -0.7608
18010TIP3   OH275520   2.951   0.481  46.325 -0.3826  0.0766  0.8316
18010TIP3    H175521   3.037   0.439  46.325 -0.1429  0.5632  0.8605
18010TIP3    H275522   2.949   0.532  46.406  0.0476  1.5600 -0.0585
18011TIP3   OH275523   0.681   3.196   6.987 -0.3244  0.5129  0.5182
18011TIP3    H175524   0.679   3.225   7.078 -1.8011 -0.3503  0.8051
18011TIP3    H275525   0.734   3.116   6.988 -1.6185 -0.3732  0.9424
18012TIP3   OH275526   2.150   1.779   9.803  0.5100 -0.7907  0.0978
18012TIP3    H175527   2.151   1.775   9.899  0.8706  1.5033  0.2311
18012TIP3    H275528   2.216   1.844   9.781 -0.1546 -0.6782 -1.6868
18013TIP3   OH275529   1.988   2.007  34.544 -0.2985 -0.2936 -0.0684
18013TIP3    H175530   2.053   2.067  34.579  0.6748 -2.2125  1.6792
18013TIP3    H275531   1.913   2.015  34.603  0.3660 -1.6864  1.0471
18014TIP3   OH275532   2.935   2.365  14.559  0.3542  0.6286 -0.3756
18014TIP3    H175533   2.891   2.281  14.565 -0.2627  0.9011 -0.9146
18014TIP3    H275534   2.866   2.426  14.532  0.7755  1.3156  0.0652
18015TIP3   OH275535   0.011   0.916  45.941 -0.1844  0.4834  0.5485
18015TIP3    H175536   0.032   0.928  46.034 -1.3052  0.3801  0.8309
18015TIP3    H275537   0.074   0.971  45.895  1.6040 -0.8685  1.2621
18016TIP3   OH275538   1.064   3.867  47.418 -0.0434 -0.1687 -0.4376
18016TIP3    H175539   1.126   3.882  47.348 -0.3942  0.4167 -0.6261
18016TIP3    H275540   1.056   3.771  47.424  0.6963 -0.2398 -0.5537
18017TIP3   OH275541   0.221   0.552   8.497  0.3991  0.4426 -0.3254
18017TIP3    H175542   0.149   0.610   8.471  0.8924  2.2404  1.9695
18017TIP3    H275543   0.300   0.597   8.467  0.7482  0.5273  0.6899
18018TIP3   OH275544   0.411   0.684   5.500  0.3309  0.2799 -0.1670
18018TIP3    H175545   0.318   0.677   5.522  0.2239  0.1340 -0.6493
18018TIP3    H275546   0.440   0.763   5.546 -0.5960  1.6929 -1.8843
18019TIP3   OH275547   2.816   1.068  31.854  0.0578 -0.7398 -0.7107
18019TIP3    H175548   2.904   1.076  31.891 -0.8492 -0.4496  1.5480
18019TIP3    H275549   2.758   1.102  31.922 -1.8723 -1.6253 -1.8229
18020TIP3   OH275550   3.668   3.916  43.622 -0.4744  0.2691 -0.5741
18020TIP3    H175551   3.581   3.946  43.595 -1.1855  0.1548  1.3950
18020TIP3    H275552   3.691   3.973  43.696  0.1052 -1.1477  0.3871
18021TIP3   OH275553   0.492   3.560  46.874  0.0176  0.1353  0.0259
18021TIP3    H175554   0.480   3.478  46.921  3.6072 -0.7061 -0.2213
18021TIP3    H275555   0.473   3.628  46.939  0.3150 -0.9439  1.2791
18022TIP3   OH275556   1.588   1.506  46.907 -0.7162 -0.1544  0.3533
18022TIP3    H175557   1.499   1.493  46.939 -0.2645 -0.6136  1.4414
18022TIP3    H275558   1.627   1.418  46.907 -0.1301  0.1010  0.2762
18023TIP3   OH275559   0.744   1.374  40.359 -0.0648  0.3647  0.4422
18023TIP3    H175560   0.664   1.364  40.308  1.2604 -1.1561 -1.5069
18023TIP3    H275561   0.715   1.382  40.450 -2.4809  2.0196 -0.3790
18024TIP3   OH275562   1.380   3.812  43.714  0.1294  0.8649  0.6299
18024TIP3    H175563   1.400   3.893  43.762  0.3871  0.4307  1.2789
18024TIP3    H275564   1.466   3.775  43.693  0.0462  0.0139  1.6587
18025TIP3   OH275565   2.711   1.043   1.278  0.3828  0.0362 -0.3843
18025TIP3    H175566   2.755   1.118   1.237  1.6592 -0.4797 -0.0150
18025TIP3    H275567   2.630   1.032   1.228  0.4073  1.3511 -0.7531
18026TIP3   OH275568   0.388   2.908  44.163  0.3260 -0.2700 -0.0856
18026TIP3    H175569   0.426   2.828  44.127  0.3207 -0.4065  0.2105
18026TIP3    H275570   0.296   2.904  44.138  0.7635  0.7520 -2.0468
18027TIP3   OH275571   2.339   0.595  43.498 -0.7699  0.3770  0.4577
18027TIP3    H175572   2.317   0.653  43.572  0.0622  2.9913 -1.1971
18027TIP3    H275573   2.380   0.519  43.539 -0.0538  1.8508  2.6978
18028TIP3   OH275574   1.502   2.861  13.318 -0.2809  0.2111  0.1106
18028TIP3    H175575   1.520   2.920  13.245  3.4228 -0.6142  0.1265
18028TIP3    H275576   1.558   2.894  13.389  0.0566 -1.8725  0.8730
18029TIP3   OH275577   3.909   0.359  37.357 -0.0945  0.2676  0.1481
18029TIP3    H175578   3.885   0.383  37.447 -0.6422 -1.4466  0.5072
18029TIP3    H275579   3.998   0.324  37.365 -1.4185 -3.4301  0.8106
18030TIP3   OH275580   3.924   0.195  37.929 -0.0822  0.2664  0.6260
18030TIP3    H175581   3.951   0.189  37.837 -2.2872  1.1352 -0.1589
18030TIP3    H275582   3.993   0.247  37.971  0.8599  0.0436 -0.5830
18031TIP3   OH275583   1.227   0.013   2.286 -0.2898 -0.0082  0.7196
18031TIP3    H175584   1.205   0.095   2.242  1.8258  0.1086 -0.2473
18031TIP3    H275585   1.227   0.035   2.379 -3.0840  0.1814  0.7555
18032TIP3   OH275586   0.882   3.656   9.937  0.2873  0.1721  0.3335
18032TIP3    H175587   0.865   3.733   9.991 -1.3006  0.6245 -0.7308
18032TIP3    H275588   0.863   3.582   9.993  2.7362  0.4470  1.6815
18033TIP3   OH275589   0.931   0.205   4.181  0.2599 -0.5656  0.3335
18033TIP3    H175590   0.837   0.189   4.191  0.3373 -2.0373 -0.9041
18033TIP3    H275591   0.937   0.270   4.111  0.1784 -2.0102 -1.0753
18034TIP3   OH275592   4.031   1.657  38.024  0.2584 -0.2635 -0.5151
18034TIP3    H175593   4.066   1.584  37.973  0.3742 -0.5137 -0.0798
18034TIP3    H275594   4.092   1.667  38.097  0.6434  0.7395 -0.9616
18035TIP3   OH275595   0.469   3.082   9.695 -0.6629 -0.0452  0.4117
18035TIP3    H175596   0.453   3.099   9.602  0.0296  0.6887  0.4232
18035TIP3    H275597   0.465   2.986   9.702  0.0580 -0.1623 -0.5185
18036TIP3   OH275598   1.729   0.466  15.735 -0.4248  0.3095 -0.0219
18036TIP3    H175599   1.653   0.520  15.713 -0.8072 -0.3863 -0.4105
18036TIP3    H275600   1.696   0.376  15.734  0.0882  0.0914  1.1168
18037TIP3   OH275601   0.087   2.785  13.468 -0.3143  0.1375  0.2347
18037TIP3    H175602   0.046   2.862  13.508 -0.6414  0.2190 -0.2494
18037TIP3    H275603   0.082   2.801  13.374 -1.0873 -0.8357  0.1010
18038TIP3   OH275604   1.768   2.120  14.769 -0.5153  0.0655  0.0582
18038TIP3    H175605   1.691   2.148  14.818 -0.8765 -0.2210 -0.3320
18038TIP3    H275606   1.823   2.198  14.762 -1.2966  0.5722 -0.6367
18039TIP3   OH275607   2.455   3.523  33.283  0.5889  0.2555 -0.0233
18039TIP3    H175608   2.361   3.508  33.273  0.6539  0.3203 -0.7237
18039TIP3    H275609   2.496   3.467  33.217  1.1338 -0.9335  1.2751
18040TIP3   OH275610   1.070   0.908   6.620 -0.0749  0.4098 -0.1822
18040TIP3    H175611   1.089   0.859   6.700  0.5037 -1.0599 -1.1682
18040TIP3    H275612   1.156   0.939   6.590 -0.0515 -0.4854 -1.0952
18041TIP3   OH275613   2.502   1.897  13.557 -0.0051 -0.5906  0.0836
18041TIP3    H175614   2.417   1.941  13.553  1.2420  1.8872 -1.9564
18041TIP3    H275615   2.546   1.937  13.631  0.3002  0.0136 -0.4149
18042TIP3   OH275616   1.655   2.844  46.361  0.9751  0.0333 -0.0032
18042TIP3    H175617   1.648   2.845  46.266  1.5294  2.1187 -0.0557
18042TIP3    H275618   1.724   2.907  46.381  1.4578 -0.9838  1.7595
18043TIP3   OH275619   1.593   0.563  36.703  0.2271  0.3142 -0.0848
18043TIP3    H175620   1.685   0.537  36.689  0.1697 -0.0395  0.1980
18043TIP3    H275621   1.589   0.587  36.795 -0.8008 -3.2379  0.9382
18044TIP3   OH275622   2.232   0.712  33.522  0.1581  0.4578 -0.0430
18044TIP3    H175623   2.249   0.625  33.558  0.6647  0.6794  0.2716
18044TIP3    H275624   2.319   0.750  33.511 -0.0706  1.0592  0.1711
18045TIP3   OH275625   2.709   2.416   0.372 -0.1550  0.2385 -0.5217
18045TIP3    H175626   2.720   2.506   0.341 -0.8121  0.0376 -1.3778
18045TIP3    H275627   2.796   2.377   0.366  0.4152  1.1604  1.0605
18046TIP3   OH275628   2.863   2.444  39.704  1.2402 -0.5267  0.2328
18046TIP3    H175629   2.863   2.349  39.716  1.1186 -0.2950  2.5119
18046TIP3    H275630   2.782   2.462  39.656  1.0172 -1.5343  0.2008
18047TIP3   OH275631   3.041   1.390  37.673  0.4136  0.0757 -0.1033
18047TIP3    H175632   3.040   1.485  37.674  0.2169  0.0774  0.8977
18047TIP3    H275633   2.950   1.364  37.690  0.8855 -0.2426  2.3852
18048TIP3   OH275634   3.572   1.722  35.150  0.1582  0.0588 -0.4015
18048TIP3    H175635   3.576   1.654  35.217  1.2761  0.4888 -0.0067
18048TIP3    H275636   3.581   1.674  35.067  0.4607 -0.3276 -0.1513
18049TIP3   OH275637   2.615   0.159  10.871 -0.3755 -0.2269  0.2914
18049TIP3    H175638   2.542   0.220  10.860 -1.8805 -1.0152  4.1836
18049TIP3    H275639   2.666   0.195  10.944  0.0061 -2.3958  1.1893
18050TIP3   OH275640   1.114   0.225  44.881 -0.1338 -1.1463  0.0072
18050TIP3    H175641   1.058   0.287  44.834  1.3449  1.7952  1.9067
18050TIP3    H275642   1.053   0.173  44.934 -1.2966 -0.0793 -0.2383
18051TIP3   OH275643   0.788   1.041  11.395 -0.3542 -0.0673  0.4188
18051TIP3    H175644   0.698   1.008  11.396 -0.5595  0.4823  0.3283
18051TIP3    H275645   0.834   0.984  11.333 -0.7080 -0.1753  0.2543
18052TIP3   OH275646   2.693   3.527  27.527 -0.0316 -0.1288 -0.1945
18052TIP3    H175647   2.749   3.476  27.468  1.6537  0.0951  1.1252
18052TIP3    H275648   2.686   3.473  27.606  2.0269  1.6593  1.3447
18053TIP3   OH275649   0.909   3.506  34.488 -0.3948 -0.1745 -0.7157
18053TIP3    H175650   0.908   3.499  34.393 -2.1804  1.0694 -0.8446
18053TIP3    H275651   0.977   3.570  34.507  1.1704 -1.7011 -0.9997
18054TIP3   OH275652   0.698   2.625   2.354 -0.9508 -0.0075  0.2005
18054TIP3    H175653   0.732   2.653   2.269  1.2349  0.9476  1.3262
18054TIP3    H275654   0.703   2.529   2.352 -1.2662 -0.0126 -0.8549
18055TIP3   OH275655   2.753   1.301  13.493  0.2421 -0.1147 -0.0293
18055TIP3    H175656   2.806   1.304  13.573  1.9119 -1.8095 -0.9592
18055TIP3    H275657   2.812   1.332  13.425 -0.2038 -1.3207 -0.9966
18056TIP3   OH275658   3.674   2.176  44.798  0.5168 -0.4485  0.3653
18056TIP3    H175659   3.686   2.239  44.726 -0.5737 -1.7323 -1.0212
18056TIP3    H275660   3.763   2.157  44.828  1.2718 -1.6652 -2.3095
18057TIP3   OH275661   3.068   2.096  17.231  0.0437  0.2842  0.3797
18057TIP3    H175662   2.991   2.137  17.270 -0.9198  0.7647 -1.8360
18057TIP3    H275663   3.132   2.167  17.225 -0.9066  1.0626 -1.5995
18058TIP3   OH275664   2.831   0.454  15.855  0.3495  0.0659  0.0048
18058TIP3    H175665   2.807   0.386  15.917 -0.8334  0.4576 -0.0031
18058TIP3    H275666   2.909   0.495  15.894  0.0919 -0.2063  0.8337
18059TIP3   OH275667   0.712   3.029  39.538  0.4406 -0.2655  0.1608
18059TIP3    H175668   0.738   3.013  39.447 -0.7275  0.2933 -0.2859
18059TIP3    H275669   0.641   2.967  39.554 -1.0328  1.2963 -0.1161
18060TIP3   OH275670   2.900   0.073  13.510 -0.2350 -0.5961 -0.1025
18060TIP3    H175671   2.903  -0.021  13.494 -2.6113 -0.6997 -0.3299
18060TIP3    H275672   2.936   0.112  13.431  1.8763 -1.2915  0.4722
18061TIP3   OH275673   0.410   1.187   7.609 -0.2286  0.0371  0.4523
18061TIP3    H175674   0.493   1.175   7.562  0.8149 -0.1035  2.2291
18061TIP3    H275675   0.386   1.099   7.638 -1.4450 -0.0378 -0.7196
18062TIP3   OH275676   3.347   1.914  19.505 -0.5011 -0.1827  0.2767
18062TIP3    H175677   3.390   1.837  19.468  0.3917  0.1094  0.6845
18062TIP3    H275678   3.261   1.917  19.461 -0.9913 -2.0134  1.0271
18063TIP3   OH275679   3.581   4.046   6.654  1.4559 -0.3635  0.0301
18063TIP3    H175680   3.600   4.024   6.563  2.9738  1.0689 -0.0520
18063TIP3    H275681   3.633   4.125   6.671  2.1679 -1.2523  2.4689
18064TIP3   OH275682   3.304   0.706  35.810  0.1678 -0.2757 -0.6134
18064TIP3    H175683   3.326   0.687  35.719  2.6358  0.4043 -0.2156
18064TIP3    H275684   3.353   0.641  35.861 -0.5415 -0.1347  0.2759
18065TIP3   OH275685   0.480   3.463  31.784  0.7408 -0.2628 -0.6644
18065TIP3    H175686   0.469   3.373  31.753 -0.8884  0.1851 -1.5061
18065TIP3    H275687   0.546   3.501  31.726 -0.8904 -0.0027 -2.4322
18066TIP3   OH275688   0.136   0.302   2.643  0.1701 -0.1815  0.1199
18066TIP3    H175689   0.084   0.279   2.566 -0.7824  1.2428  0.3024
18066TIP3    H275690   0.074   0.298   2.715  0.4366  0.9267  0.4333
18067TIP3   OH275691   0.629   1.874  21.393  0.0626 -0.4187 -0.1009
18067TIP3    H175692   0.663   1.932  21.461  2.8061 -0.4382 -1.3065
18067TIP3    H275693   0.636   1.786  21.431  2.1657 -0.4913 -0.5283
18068TIP3   OH275694   1.575   1.209  45.782  0.2994  0.0926  0.1580
18068TIP3    H175695   1.508   1.157  45.738  1.2217 -1.1924  0.2236
18068TIP3    H275696   1.634   1.237  45.711  0.0179  0.7479  0.1747
18069TIP3   OH275697   3.859   1.619  43.906  0.0890  0.1756 -0.1010
18069TIP3    H175698   3.765   1.603  43.916  0.2882 -1.4506 -0.4687
18069TIP3    H275699   3.887   1.552  43.843  1.6478  0.0652  0.6786
18070TIP3   OH275700   0.751   2.603  47.489  0.1468 -0.2090 -0.3683
18070TIP3    H175701   0.695   2.620  47.413 -0.3644 -1.7677 -0.3664
18070TIP3    H275702   0.758   2.688  47.533 -0.9916  0.3308 -1.1898
18071TIP3   OH275703   2.535   2.224  41.405 -0.1744 -0.3710  0.1618
18071TIP3    H175704   2.583   2.261  41.480  1.5432 -2.7180  0.3403
18071TIP3    H275705   2.603   2.194  41.345 -1.5052 -0.3617 -1.4136
18072TIP3   OH275706   0.331   2.346  43.970  0.1696  0.5416 -0.4125
18072TIP3    H175707   0.242   2.379  43.971  0.0178  0.1310  0.1955
18072TIP3    H275708   0.386   2.424  43.983  0.0000  1.0174 -2.1812
18073TIP3   OH275709   0.747   4.028  10.846  0.0464 -0.0374  0.0910
18073TIP3    H175710   0.688   3.970  10.799 -1.0286  0.2336  1.0486
18073TIP3    H275711   0.690   4.078  10.904  1.0264  1.4105 -0.1225
18074TIP3   OH275712   2.997   1.755  20.354 -0.0484 -0.1179 -0.1341
18074TIP3    H175713   3.034   1.834  20.313  2.3721 -1.8800 -1.5777
18074TIP3    H275714   3.050   1.742  20.432 -1.4908  0.4820  1.0070
18075TIP3   OH275715   0.068   2.707   1.807 -0.9430  0.0806  0.3056
18075TIP3    H175716   0.048   2.683   1.717  1.4145  0.1391 -0.2982
18075TIP3    H275717   0.047   2.800   1.813 -1.8207 -0.0932  0.0584
18076TIP3   OH275718   1.442   1.900  40.050 -0.1159  0.0180 -0.3067
18076TIP3    H175719   1.535   1.896  40.072  0.6433  1.0444 -2.9881
18076TIP3    H275720   1.402   1.949  40.121  1.4066 -0.2655  0.7871
18077TIP3   OH275721   0.118   3.176  15.789 -0.2924  0.3395  0.0574
18077TIP3    H175722   0.201   3.159  15.836 -1.2051  1.3911  2.2126
18077TIP3    H275723   0.138   3.249  15.732 -0.0939  1.7855  1.8710
18078TIP3   OH275724   0.713   1.823  20.478  0.0479  0.0127 -0.0385
18078TIP3    H175725   0.702   1.915  20.501  0.8608  0.4419 -1.2629
18078TIP3    H275726   0.636   1.780  20.516  0.2788  0.9709  1.6181
18079TIP3   OH275727   1.327   1.325  40.517  0.3698 -0.2778 -0.5249
18079TIP3    H175728   1.288   1.335  40.603  2.2531  0.8460  0.2560
18079TIP3    H275729   1.286   1.392  40.463 -1.1434 -1.2763 -0.6711
18080TIP3   OH275730   1.735   1.395  20.361 -0.7334 -0.3841 -0.3259
18080TIP3    H175731   1.665   1.423  20.303 -0.7930  1.3572  0.4982
18080TIP3    H275732   1.701   1.412  20.449  0.5423  0.1080  0.0997
18081TIP3   OH275733   1.367   0.450  36.866 -1.2229  0.3912  0.9177
18081TIP3    H175734   1.450   0.480  36.902  0.0201 -1.1109 -0.5510
18081TIP3    H275735   1.385   0.362  36.834 -2.2464  1.4200 -3.0469
18082TIP3   OH275736   2.312   2.795  39.492  0.4192 -0.2121 -0.1921
18082TIP3    H175737   2.309   2.750  39.576 -0.8228 -2.6216 -1.4076
18082TIP3    H275738   2.362   2.875  39.509 -0.4501 -0.2054  2.9618
18083TIP3   OH275739   2.399   1.842  32.332 -0.3169 -0.3717  0.7405
18083TIP3    H175740   2.350   1.779  32.385  0.6509  0.1693  2.3620
18083TIP3    H275741   2.482   1.798  32.313  0.1158  0.1722  1.3524
18084TIP3   OH275742   2.235   3.428  35.062  1.1198  0.1612  0.2729
18084TIP3    H175743   2.189   3.510  35.044  0.2096 -0.0967  1.2860
18084TIP3    H275744   2.293   3.416  34.987 -0.5296  0.4765 -1.1177
18085TIP3   OH275745   1.324   0.634  38.386  0.0994  0.1705 -0.3161
18085TIP3    H175746   1.342   0.650  38.293  1.1103 -2.1713 -0.5918
18085TIP3    H275747   1.403   0.664  38.431 -0.6259  1.8704 -0.0819
18086TIP3   OH275748   3.735   3.597  27.682 -0.0943 -0.0966  0.8281
18086TIP3    H175749   3.791   3.646  27.622  1.5187 -0.5227  1.9237
18086TIP3    H275750   3.666   3.561  27.626  2.5807 -2.4130 -1.2703
18087TIP3   OH275751   2.499   1.291   8.449 -0.4230 -0.0916 -0.4285
18087TIP3    H175752   2.516   1.337   8.531 -0.4567 -0.5037 -0.1880
18087TIP3    H275753   2.457   1.357   8.393 -3.1805 -0.5611  0.9044
18088TIP3   OH275754   0.847   0.354  24.900 -0.0780  0.1832  0.1955
18088TIP3    H175755   0.932   0.326  24.932 -0.3324 -0.1763  0.5704
18088TIP3    H275756   0.866   0.415  24.829  0.4859  0.5031  0.6213
18089TIP3   OH275757   2.906   3.098  41.593 -0.1961 -0.3343 -0.0639
18089TIP3    H175758   2.952   3.076  41.512 -0.1265  0.1719 -0.1613
18089TIP3    H275759   2.975   3.127  41.652  0.0682 -2.6433  0.8935
18090TIP3   OH275760   0.308   3.183   3.831  0.0635  0.0549  0.1130
18090TIP3    H175761   0.213   3.170   3.832 -0.1922  1.7125  1.1056
18090TIP3    H275762   0.342   3.103   3.792 -1.7921 -0.2307 -1.0761
18091TIP3   OH275763   2.037   2.371  37.337 -0.1037  0.0819 -0.3247
18091TIP3    H175764   1.986   2.354  37.416 -2.2457  1.1289 -1.4078
18091TIP3    H275765   2.014   2.300  37.277  2.2393 -1.2512  0.2402
18092TIP3   OH275766   3.694   2.903   5.312  0.2915 -0.0173 -0.1326
18092TIP3    H175767   3.737   2.837   5.366 -0.3985 -0.5315 -0.2039
18092TIP3    H275768   3.601   2.894   5.333  0.1642  0.7572 -0.3354
18093TIP3   OH275769   0.145   1.337  33.339  0.5102  0.2468 -0.3896
18093TIP3    H175770   0.196   1.418  33.335 -1.2486  1.5073  1.2046
18093TIP3    H275771   0.060   1.363  33.374 -1.5827 -1.6377 -3.5460
18094TIP3   OH275772   2.076   1.585  20.667  0.3149 -1.0363 -0.1542
18094TIP3    H175773   2.100   1.583  20.574 -0.1243  0.9520 -0.3505
18094TIP3    H275774   2.073   1.678  20.689 -0.8107 -1.4380  1.5390
18095TIP3   OH275775   3.113   0.836   7.998  0.2354 -0.2126  0.2198
18095TIP3    H175776   3.020   0.858   7.990 -0.2881 -1.7070  1.7082
18095TIP3    H275777   3.128   0.770   7.931  0.2040 -0.0734  0.0736
18096TIP3   OH275778   0.308   3.739  45.805 -0.1933  0.5094  0.4029
18096TIP3    H175779   0.277   3.650  45.788 -0.1689  0.6481 -0.4246
18096TIP3    H275780   0.302   3.749  45.900  2.3271 -1.3030  0.8557
18097TIP3   OH275781   3.308   1.935  44.506  0.1200 -0.3214 -0.7262
18097TIP3    H175782   3.260   1.937  44.589  0.0198 -2.6978 -0.6521
18097TIP3    H275783   3.322   1.842  44.489  1.9945  0.1807 -2.3274
18098TIP3   OH275784   2.247   3.744  41.529 -0.1010  0.5179  0.2015
18098TIP3    H175785   2.315   3.798  41.571  0.7706 -0.3319 -0.0684
18098TIP3    H275786   2.280   3.731  41.440 -1.0455  0.7846 -0.1915
18099TIP3   OH275787   0.756   3.633   6.562  0.0918  0.8195 -1.2485
18099TIP3    H175788   0.801   3.701   6.512  2.2322  0.5524  0.1734
18099TIP3    H275789   0.814   3.557   6.556  1.1891  1.1276  2.5264
18100TIP3   OH275790   1.122   2.388  18.930  0.4930  0.2790  0.4128
18100TIP3    H175791   1.031   2.362  18.941 -0.0948  2.0952  0.1488
18100TIP3    H275792   1.145   2.362  18.841  0.9854 -2.1610  1.1579
18101TIP3   OH275793   0.150   3.878   9.606 -0.0141  0.1395 -0.2822
18101TIP3    H175794   0.089   3.806   9.623  1.1590 -0.5311  1.3153
18101TIP3    H275795   0.233   3.849   9.645  0.6983  2.0172 -0.2998
18102TIP3   OH275796   3.924   1.756  39.595 -0.5870  0.7307 -0.3568
18102TIP3    H175797   3.861   1.737  39.525 -1.3805 -1.8294  0.9018
18102TIP3    H275798   4.007   1.770  39.550 -1.6508  2.3817 -1.9469
18103TIP3   OH275799   1.333   1.069  42.088  0.2385  0.2784  0.6407
18103TIP3    H175800   1.328   1.139  42.023  0.6254 -0.7906 -0.5786
18103TIP3    H275801   1.383   0.999  42.046  0.2976 -0.5563  2.0037
18104TIP3   OH275802   2.168   3.933  42.514 -0.7692  0.2137 -0.1618
18104TIP3    H175803   2.213   4.005  42.468 -0.0597 -1.2246 -1.8396
18104TIP3    H275804   2.109   3.897  42.448 -0.9522 -0.8778  0.5848
18105TIP3   OH275805   2.025   1.723   4.042 -0.0001  0.2875 -0.1346
18105TIP3    H175806   2.034   1.803   3.990 -0.4044  0.1982 -0.3424
18105TIP3    H275807   1.932   1.704   4.042  0.0162  0.1830  0.4774
18106TIP3   OH275808   1.297   1.564  14.038 -0.3379  0.4514  0.3771
18106TIP3    H175809   1.215   1.521  14.061 -0.1806  0.1532  0.3861
18106TIP3    H275810   1.336   1.509  13.971 -0.2386  0.6993  0.2287
18107TIP3   OH275811   2.388   2.040  47.392  0.0623  0.2830 -0.4192
18107TIP3    H175812   2.359   2.080  47.474  0.8196 -0.0254  0.0049
18107TIP3    H275813   2.345   1.955  47.389  0.8540 -0.1481  0.1805
18108TIP3   OH275814   1.074   1.758  13.628 -0.2838  0.9636  0.4751
18108TIP3    H175815   1.129   1.836  13.627 -0.2512  0.9387 -0.1510
18108TIP3    H275816   1.064   1.737  13.721 -1.8997  2.8370  0.7997
18109TIP3   OH275817   3.802   2.283  15.498  0.1180 -0.0437  0.1248
18109TIP3    H175818   3.757   2.332  15.429  0.3399  0.9751  0.6729
18109TIP3    H275819   3.779   2.331  15.578  0.7974 -0.5270  0.6086
18110TIP3   OH275820   1.361   0.378  41.914 -0.2629 -0.4546 -0.2341
18110TIP3    H175821   1.330   0.323  41.843 -0.7867 -0.4114 -0.0450
18110TIP3    H275822   1.305   0.354  41.989  1.2540 -1.6092  0.5965
18111TIP3   OH275823   4.053   3.993   0.291 -0.5605  0.7407 -0.5019
18111TIP3    H175824   4.089   3.976   0.378  1.2108  2.7136 -0.7975
18111TIP3    H275825   4.059   3.908   0.246  1.1949  0.3619  0.3741
18112TIP3   OH275826   2.154   2.643  12.168 -0.4474 -0.4520  0.1603
18112TIP3    H175827   2.078   2.643  12.110  0.5156  2.6701 -1.2959
18112TIP3    H275828   2.149   2.558  12.213 -4.7668 -0.4284  0.1858
18113TIP3   OH275829   0.267   2.207   6.125  0.0081  0.1154  0.0717
18113TIP3    H175830   0.344   2.159   6.155  1.7857  2.6544 -0.0631
18113TIP3    H275831   0.276   2.211   6.030 -0.9862 -0.5716 -0.0732
18114TIP3   OH275832   2.628   2.532  46.950 -0.0439  0.2500  0.3203
18114TIP3    H175833   2.688   2.491  46.888  1.2689  2.0019  0.3657
18114TIP3    H275834   2.557   2.567  46.897 -0.5528 -0.9790  0.1639
18115TIP3   OH275835   3.927   2.238  34.815  0.1320 -0.2190 -0.4286
18115TIP3    H175836   3.833   2.254  34.819  0.2326  0.4697 -0.7864
18115TIP3    H275837   3.964   2.295  34.883  0.7569  3.2247 -3.3927
18116TIP3   OH275838   3.585   1.499  46.658  0.4106  0.7261  0.0071
18116TIP3    H175839   3.676   1.508  46.687  0.3771  0.4394  0.2016
18116TIP3    H275840   3.591   1.499  46.562  0.8505 -1.3416 -0.0242
18117TIP3   OH275841   1.869   3.840  10.402  0.2484  0.6543 -0.0463
18117TIP3    H175842   1.942   3.831  10.464  0.0136 -2.6769 -0.0921
18117TIP3    H275843   1.796   3.869  10.456  0.1882 -1.6776  1.2578
18118TIP3   OH275844   0.251   1.355  35.104  0.3485  0.3044  0.2432
18118TIP3    H175845   0.268   1.351  35.198 -0.7815 -0.4772  0.4475
18118TIP3    H275846   0.330   1.319  35.064  1.0039  1.0156  0.8621
18119TIP3   OH275847   2.292   1.590  14.692  0.2371 -0.1505  0.1634
18119TIP3    H175848   2.350   1.603  14.617  0.0040 -0.3663 -0.0572
18119TIP3    H275849   2.272   1.678  14.722 -0.3254 -0.0289 -0.5368
18120TIP3   OH275850   3.134   3.014  46.400  0.7008  0.0666  0.1513
18120TIP3    H175851   3.153   3.059  46.318  1.5699 -3.0680 -1.5267
18120TIP3    H275852   3.210   3.032  46.456  1.0815  0.5611 -0.5128
18121TIP3   OH275853   1.965   1.532   2.580 -0.3255 -0.1265  0.5243
18121TIP3    H175854   1.960   1.561   2.489  0.4416 -0.1645  0.4688
18121TIP3    H275855   1.948   1.438   2.576 -1.0999  0.0082  0.5155
18122TIP3   OH275856   2.320   0.783  38.073  0.1075  0.3930 -0.0593
18122TIP3    H175857   2.289   0.753  38.158 -2.5763 -1.3193 -1.4805
18122TIP3    H275858   2.280   0.869  38.061 -0.7644 -0.0211 -0.1779
18123TIP3   OH275859   2.712   2.190  14.648  0.2311 -0.3481  0.2300
18123TIP3    H175860   2.660   2.268  14.666  0.5139 -0.2618  0.7055
18123TIP3    H275861   2.701   2.174  14.554 -0.5600 -0.2754  0.3081
18124TIP3   OH275862   0.490   1.147  32.499  0.2071 -0.5259 -0.1815
18124TIP3    H175863   0.419   1.088  32.524 -0.5958 -1.5545 -4.1680
18124TIP3    H275864   0.569   1.106  32.534 -0.8622 -0.5039  2.4873
18125TIP3   OH275865   2.072   0.916  32.789  0.3946  0.3486  0.7251
18125TIP3    H175866   2.100   0.825  32.796  0.5366  0.3757  0.5351
18125TIP3    H275867   2.103   0.943  32.702  0.2675  0.5478  0.7428
18126TIP3   OH275868   3.438   0.647  30.948 -0.0221 -0.4198 -0.3808
18126TIP3    H175869   3.356   0.695  30.940  0.6228  0.7023 -0.5694
18126TIP3    H275870   3.504   0.705  30.909  0.7837 -1.5096 -0.7133
18127TIP3   OH275871   2.355   1.034   8.208  0.0423  0.0680  0.1464
18127TIP3    H175872   2.270   1.050   8.250  1.7572  1.7224  3.2944
18127TIP3    H275873   2.365   1.107   8.146 -0.3872  0.4366  0.5067
18128TIP3   OH275874   0.872   0.544   6.686  0.2717  0.1495  0.0975
18128TIP3    H175875   0.928   0.582   6.617  0.0833  0.9091  0.3506
18128TIP3    H275876   0.788   0.530   6.642  0.3089  0.1227  0.0330
18129TIP3   OH275877   2.226   1.921  32.779  0.6828  0.3909 -0.7514
18129TIP3    H175878   2.241   2.016  32.786  2.3342  0.1595 -0.6914
18129TIP3    H275879   2.311   1.886  32.752  0.1674 -1.1068 -0.4910
18130TIP3   OH275880   2.586   3.527   3.876  0.3432  0.1495  0.2205
18130TIP3    H175881   2.643   3.459   3.841 -0.7824  0.5648 -2.7054
18130TIP3    H275882   2.527   3.481   3.935  1.0221 -1.0073  0.0316
18131TIP3   OH275883   0.091   3.968   6.487  0.3441  0.3729 -0.4324
18131TIP3    H175884   0.059   3.902   6.425  0.7973 -3.5182  3.0468
18131TIP3    H275885   0.186   3.957   6.486  0.2873 -0.8071  1.8348
18132TIP3   OH275886   3.242   1.432   3.956 -0.2381  0.1387  0.0284
18132TIP3    H175887   3.173   1.459   4.016  0.7591 -0.1026  1.3483
18132TIP3    H275888   3.281   1.514   3.926 -1.2720  0.2843 -0.9675
18133TIP3   OH275889   3.292   3.897  41.393 -0.0738 -0.1606 -0.1018
18133TIP3    H175890   3.253   3.977  41.428 -0.7779 -0.6759  0.3341
18133TIP3    H275891   3.319   3.848  41.471  1.5182  0.2041 -0.4009
18134TIP3   OH275892   1.150   3.973  29.689 -0.1145 -0.2337  0.7688
18134TIP3    H175893   1.135   3.986  29.596  0.9019  1.3083  0.7894
18134TIP3    H275894   1.088   4.031  29.733  1.6818  1.6884  0.9390
18135TIP3   OH275895   3.466   1.148  40.216 -0.4400 -0.1270  0.2394
18135TIP3    H175896   3.473   1.152  40.121 -1.0253 -0.6916  0.1689
18135TIP3    H275897   3.518   1.222  40.247 -0.1509 -0.0104 -0.5112
18136TIP3   OH275898   3.240   0.430  15.050 -0.4082  0.3231 -0.2113
18136TIP3    H175899   3.301   0.386  15.108  1.7975  1.1974 -1.7321
18136TIP3    H275900   3.288   0.507  15.018 -2.7424  1.7239 -0.5746
18137TIP3   OH275901   0.516   1.047  11.709 -0.3485 -0.0545  0.7548
18137TIP3    H175902   0.512   1.102  11.788  0.9832 -1.3400  1.7942
18137TIP3    H275903   0.571   1.096  11.649 -1.9671  1.2825  0.2801
18138TIP3   OH275904   2.490   0.933  11.962  0.8272  0.2116 -0.0239
18138TIP3    H175905   2.561   0.918  12.025 -0.2176 -1.1523  0.8843
18138TIP3    H275906   2.420   0.973  12.014  0.0181 -0.7638 -0.3333
18139TIP3   OH275907   2.790   1.091   5.358  0.1590 -0.7488  0.0781
18139TIP3    H175908   2.879   1.103   5.323 -0.2573  0.9703 -0.5084
18139TIP3    H275909   2.736   1.075   5.281 -0.2102 -0.6823  0.3197
18140TIP3   OH275910   1.903   3.174  37.806  0.5167  0.2733 -0.0716
18140TIP3    H175911   1.970   3.236  37.835  0.5413  0.0108  0.4700
18140TIP3    H275912   1.948   3.089  37.805 -0.2281 -0.2209  2.0898
18141TIP3   OH275913   2.822   2.433   8.067  0.5479 -0.2814 -0.4216
18141TIP3    H175914   2.740   2.482   8.065 -0.6434 -2.1195  0.5175
18141TIP3    H275915   2.872   2.474   8.137 -1.3975 -1.7564  1.9706
18142TIP3   OH275916   3.151   3.028  46.839  0.0793  0.0796  0.1964
18142TIP3    H175917   3.062   3.004  46.866 -0.2528  2.1913  1.2321
18142TIP3    H275918   3.152   3.015  46.744 -1.8018  1.2430 -0.0408
18143TIP3   OH275919   2.163   0.727  13.086 -0.0795  0.0263 -0.2791
18143TIP3    H175920   2.259   0.726  13.085  0.1244  1.6716  3.3008
18143TIP3    H275921   2.140   0.698  13.174 -2.8776  0.3868 -0.8208
18144TIP3   OH275922   3.511   2.895   1.415 -0.4798 -0.1777  0.1147
18144TIP3    H175923   3.470   2.866   1.334 -1.3655 -2.2830  1.2560
18144TIP3    H275924   3.598   2.926   1.388 -0.7913 -0.7358 -1.6371
18145TIP3   OH275925   2.066   0.503   8.798  0.6013 -0.1817 -0.0726
18145TIP3    H175926   2.003   0.552   8.851  2.0736  0.4449  1.1605
18145TIP3    H275927   2.039   0.521   8.708 -1.4540 -0.6025  0.4160
18146TIP3   OH275928   2.289   3.245  27.609  0.2796  0.4911 -0.2090
18146TIP3    H175929   2.325   3.297  27.538  1.1626 -0.7758 -0.7257
18146TIP3    H275930   2.348   3.260  27.682  1.3287 -0.7849 -0.7545
18147TIP3   OH275931   3.938   3.362   4.066 -0.1593 -0.1403  0.0989
18147TIP3    H175932   3.868   3.410   4.111 -1.4658 -0.8975 -1.0105
18147TIP3    H275933   4.017   3.383   4.114 -0.9275  1.8771  0.5817
18148TIP3   OH275934   3.313   3.657  30.641 -0.1468 -0.1354  0.7459
18148TIP3    H175935   3.250   3.590  30.615  0.8362 -0.9166  0.2886
18148TIP3    H275936   3.332   3.638  30.733  0.8200 -1.0887  0.3714
18149TIP3   OH275937   2.804   2.477  34.972  0.8279  0.0532  1.0784
18149TIP3    H175938   2.804   2.383  34.985  0.8230  0.1954  2.1489
18149TIP3    H275939   2.713   2.503  34.983  0.3491 -0.1110 -1.6959
18150TIP3   OH275940   1.837   3.127  42.505  0.8261  0.6683 -0.1447
18150TIP3    H175941   1.779   3.111  42.430  0.1670  1.5568  0.1643
18150TIP3    H275942   1.899   3.193  42.473 -0.3350  2.1353  0.4916
18151TIP3   OH275943   1.130   3.314   6.326  0.2951  0.1043 -0.0268
18151TIP3    H175944   1.135   3.404   6.295 -2.0714  0.8157  1.4114
18151TIP3    H275945   1.200   3.306   6.391  0.9073  0.7043 -0.6051
18152TIP3   OH275946   3.564   3.592   8.427  0.1283  0.2007 -0.4032
18152TIP3    H175947   3.475   3.610   8.457  0.3868 -0.4107  0.8053
18152TIP3    H275948   3.584   3.505   8.461  1.0163  0.1202 -1.0826
18153TIP3   OH275949   1.235   2.480   8.717  0.2914  0.1133 -0.0235
18153TIP3    H175950   1.296   2.441   8.655 -0.2250 -0.6941 -0.0241
18153TIP3    H275951   1.153   2.433   8.704  0.0614  0.2158  0.9766
18154TIP3   OH275952   3.417   0.475   6.102 -0.3213  0.1594 -0.0752
18154TIP3    H175953   3.489   0.463   6.039 -0.0960  1.0462 -0.0045
18154TIP3    H275954   3.406   0.570   6.107 -2.0820  0.0275 -0.7332
18155TIP3   OH275955   2.476   3.141   3.297  0.6254  0.2023 -0.3947
18155TIP3    H175956   2.501   3.055   3.264  1.6707 -0.2585  1.4821
18155TIP3    H275957   2.512   3.144   3.386 -2.2709  1.2498  0.8501
18156TIP3   OH275958   1.235   2.067   0.137  0.4430 -0.6459 -0.2645
18156TIP3    H175959   1.191   2.108   0.062 -0.1101 -0.6637  0.0425
18156TIP3    H275960   1.245   2.139   0.200 -1.9135 -1.2363  0.9091
18157TIP3   OH275961   1.906   0.424   5.294 -0.3247  0.0461  0.0607
18157TIP3    H175962   1.929   0.350   5.238  1.5209 -0.0029  0.8020
18157TIP3    H275963   1.876   0.492   5.234  0.0170 -0.5713 -0.8334
18158TIP3   OH275964   4.034   0.685  37.443 -0.1781 -0.3863 -0.4027
18158TIP3    H175965   3.979   0.608  37.459 -0.3851 -0.5395 -1.7165
18158TIP3    H275966   3.980   0.741  37.387 -0.5100  1.3055  1.4779
18159TIP3   OH275967   3.187   0.751  12.889  0.2706  0.3532  0.3751
18159TIP3    H175968   3.238   0.694  12.831 -1.0407 -0.1621 -0.3035
18159TIP3    H275969   3.212   0.840  12.863  0.9793  0.1163  0.2112
18160TIP3   OH275970   2.426   2.615   7.717  0.1747  0.7374  0.3178
18160TIP3    H175971   2.342   2.593   7.677  0.8758 -1.6387  0.0554
18160TIP3    H275972   2.489   2.556   7.676  1.3115 -0.2450  3.2569
18161TIP3   OH275973   2.776   3.109   6.258  0.0593 -0.2390  0.4003
18161TIP3    H175974   2.819   3.195   6.261  1.9459 -1.0302 -1.1872
18161TIP3    H275975   2.722   3.112   6.179 -0.8476 -0.1023  1.0224
18162TIP3   OH275976   3.987   2.826  11.809 -0.1905  0.1997 -0.2152
18162TIP3    H175977   4.010   2.891  11.741 -0.8980 -0.2498 -0.8972
18162TIP3    H275978   3.892   2.826  11.811 -0.1820  0.0667  0.6641
18163TIP3   OH275979   3.344   1.793  17.154 -0.0218  0.4388  0.3104
18163TIP3    H175980   3.366   1.880  17.189  2.3058  0.4626 -0.9826
18163TIP3    H275981   3.370   1.732  17.222  0.6052  0.6747  0.2915
18164TIP3   OH275982   0.411   2.707   5.050 -0.1577 -0.6008 -0.8006
18164TIP3    H175983   0.341   2.751   5.098  1.5075  1.3597 -0.0449
18164TIP3    H275984   0.409   2.746   4.963 -0.5480 -1.2089 -1.0761
18165TIP3   OH275985   2.214   1.208  43.073  0.5753  0.1352 -0.4407
18165TIP3    H175986   2.141   1.183  43.016  0.3030  1.9408 -0.9449
18165TIP3    H275987   2.174   1.263  43.140  1.6286  2.5894 -1.6969
18166TIP3   OH275988   3.794   1.897  36.417 -0.0274  0.3627  0.2872
18166TIP3    H175989   3.822   1.822  36.364 -0.0780  0.5423  0.0088
18166TIP3    H275990   3.860   1.903  36.486  0.1978  0.3059  0.0808
18167TIP3   OH275991   4.008   1.316  33.538  0.0661  0.1984  0.4505
18167TIP3    H175992   3.938   1.376  33.512  1.5459  2.3874  1.2374
18167TIP3    H275993   3.975   1.229  33.513 -2.3170  1.2571 -0.4419
18168TIP3   OH275994   0.139   2.965  39.202  0.4049 -0.5265 -0.1135
18168TIP3    H175995   0.059   2.992  39.157  0.7473  0.2036 -0.2919
18168TIP3    H275996   0.208   2.975  39.136  1.1854  2.0996  0.9580
18169TIP3   OH275997   1.186   3.635   9.957  0.9254 -0.5927  0.1488
18169TIP3    H175998   1.092   3.617   9.965  1.1413 -1.5977  0.5582
18169TIP3    H275999   1.191   3.710   9.898 -0.1494 -0.3526  0.3460
18170TIP3   OH276000   2.655   2.311  17.115  0.0739  0.9839  0.2053
18170TIP3    H176001   2.607   2.247  17.062  1.6472 -0.4081  0.3844
18170TIP3    H276002   2.586   2.363  17.157 -1.4492 -2.3977  2.3153
18171TIP3   OH276003   2.600   4.011  33.413  0.0373  0.0762 -0.2460
18171TIP3    H176004   2.515   4.053  33.398  0.4815  0.6263 -1.3018
18171TIP3    H276005   2.602   3.939  33.349  0.1412 -0.2802  0.1520
18172TIP3   OH276006   4.041   2.208   8.134  0.3326  0.1529 -0.1662
18172TIP3    H176007   4.039   2.182   8.042 -0.3650  0.4570 -0.2413
18172TIP3    H276008   4.121   2.260   8.143  2.0781 -2.3795  0.1112
18173TIP3   OH276009   2.925   0.826   7.720 -0.0805 -0.2248 -0.2027
18173TIP3    H176010   2.834   0.851   7.706 -0.0670  1.3961  2.0743
18173TIP3    H276011   2.931   0.807   7.814  2.4780  2.5552  0.3654
18174TIP3   OH276012   4.083   1.828  19.036 -0.2740 -0.3654  0.0231
18174TIP3    H176013   4.150   1.842  19.103 -0.2247  0.6390 -0.2188
18174TIP3    H276014   4.017   1.775  19.079  0.9018 -1.7991  0.1188
18175TIP3   OH276015   4.067   0.422  39.064 -0.0840 -0.1776  0.1388
18175TIP3    H176016   4.036   0.346  39.014 -0.0869  0.1228 -0.3208
18175TIP3    H276017   3.993   0.447  39.119 -0.0151 -0.6338  0.4421
18176TIP3   OH276018   3.434   0.252  24.831  0.7248 -0.5817 -0.4706
18176TIP3    H176019   3.376   0.320  24.797  1.4022  1.9508  2.9739
18176TIP3    H276020   3.378   0.201  24.891  1.2826 -0.1163  0.4630
18177TIP3   OH276021   0.768   3.235  36.688 -0.5158  0.2828 -0.4260
18177TIP3    H176022   0.805   3.320  36.710 -0.3712  0.0602  0.2049
18177TIP3    H276023   0.673   3.250  36.688 -0.4873  0.4657 -0.4270
18178TIP3   OH276024   2.629   3.726   4.647 -0.0510 -0.2271  0.0549
18178TIP3    H176025   2.688   3.781   4.699 -0.5961  0.2736  0.1524
18178TIP3    H276026   2.549   3.722   4.699  0.7475 -3.1238  1.2451
18179TIP3   OH276027   0.014   2.847  31.687 -0.5495  0.3759  0.3269
18179TIP3    H176028   0.010   2.756  31.713 -0.1175 -0.1934 -1.4337
18179TIP3    H276029   0.026   2.895  31.769 -3.4837 -0.8560  1.6310
18180TIP3   OH276030   3.499   0.156  46.491  0.0240  0.1506 -0.1757
18180TIP3    H176031   3.542   0.202  46.419  0.1651  0.5452  0.1605
18180TIP3    H276032   3.568   0.141  46.555 -0.1812  0.1346  0.0442
18181TIP3   OH276033   0.589   3.703   1.610  0.5742  0.0215 -0.4102
18181TIP3    H176034   0.647   3.627   1.615 -0.6198 -0.8390  1.3530
18181TIP3    H276035   0.535   3.686   1.533  0.8554 -0.5255 -0.4937
18182TIP3   OH276036   0.089   2.747  19.878  0.2949 -0.4331  0.1379
18182TIP3    H176037   0.043   2.677  19.830 -3.1523  2.0230 -0.5431
18182TIP3    H276038   0.037   2.759  19.957  1.8354  0.2753  1.0812
18183TIP3   OH276039   1.973   0.079  28.726 -0.4198 -0.2489  0.2720
18183TIP3    H176040   2.066   0.064  28.712 -0.7217 -2.1321 -0.0259
18183TIP3    H276041   1.964   0.092  28.821  0.1915  0.4285  0.2398
18184TIP3   OH276042   1.114   4.060  12.161  0.2734  0.0133 -0.1228
18184TIP3    H176043   1.203   4.038  12.191  0.6691  1.2983 -0.3268
18184TIP3    H276044   1.061   4.058  12.241  1.0471  2.0127  0.4901
18185TIP3   OH276045   3.178   1.827  40.920 -0.2929 -0.1009  0.2086
18185TIP3    H176046   3.207   1.738  40.942  0.7852 -0.1726 -1.2913
18185TIP3    H276047   3.105   1.814  40.860 -0.0330  0.0070 -0.1388
18186TIP3   OH276048   0.769   3.174  45.533 -0.4174 -0.1372  0.2721
18186TIP3    H176049   0.758   3.231  45.458 -0.9842 -1.3560 -0.6068
18186TIP3    H276050   0.718   3.096  45.511 -1.1134 -0.2729  2.1970
18187TIP3   OH276051   2.022   1.127   2.911 -0.4168  0.2775  0.0876
18187TIP3    H176052   2.085   1.082   2.967  0.0385 -0.1718 -0.7656
18187TIP3    H276053   1.971   1.182   2.971 -0.3500 -0.6460  1.0200
18188TIP3   OH276054   1.652   0.679   4.252  0.2141  0.2639  0.1521
18188TIP3    H176055   1.732   0.664   4.203  0.4692  0.4494  0.5072
18188TIP3    H276056   1.582   0.672   4.187  0.4064 -1.2254  0.0717
18189TIP3   OH276057   3.630   2.905  10.585  0.4916 -0.1006 -0.2651
18189TIP3    H176058   3.558   2.888  10.646 -1.2244  2.0227 -1.5630
18189TIP3    H276059   3.640   3.000  10.585  3.5570 -0.3051  0.0379
18190TIP3   OH276060   0.341   3.375   9.393  0.7999  0.0055 -0.5864
18190TIP3    H176061   0.421   3.345   9.349  0.6713  0.8862 -1.4635
18190TIP3    H276062   0.347   3.470   9.389  0.1687  0.0835  0.2239
18191TIP3   OH276063   1.223   1.044  39.173 -0.0997  0.3699  0.1458
18191TIP3    H176064   1.165   0.995  39.231 -0.0091  1.0000  0.7722
18191TIP3    H276065   1.265   1.109  39.229  1.2455 -0.1003 -0.2949
18192TIP3   OH276066   0.751   0.399   2.503 -0.2900  0.0199  0.1571
18192TIP3    H176067   0.744   0.473   2.443 -0.1540  1.7429  2.1830
18192TIP3    H276068   0.696   0.423   2.578  1.1986 -1.0904  1.6728
18193TIP3   OH276069   1.021   3.459  41.427  0.0661 -0.0049 -0.3877
18193TIP3    H176070   1.042   3.538  41.476  1.3052 -1.1088  0.9585
18193TIP3    H276071   0.930   3.440  41.449 -0.7491  1.8349 -1.9319
18194TIP3   OH276072   2.963   1.878   5.150 -0.2356 -0.1037  0.1079
18194TIP3    H176073   3.010   1.955   5.183 -0.2472 -0.0588  0.0198
18194TIP3    H276074   2.871   1.904   5.152 -0.1616  0.3157 -1.0311
18195TIP3   OH276075   0.547   2.799  43.926 -0.3828  0.1359  0.0742
18195TIP3    H176076   0.578   2.889  43.919  1.1554 -0.3967 -0.2991
18195TIP3    H276077   0.491   2.787  43.849 -0.2339  0.6208 -0.1110
18196TIP3   OH276078   1.715   1.884  38.923 -0.1965  0.5574  0.1249
18196TIP3    H176079   1.685   1.807  38.971  3.6304 -0.9746  0.3809
18196TIP3    H276080   1.730   1.853  38.833 -0.5482  1.5750 -0.3079
18197TIP3   OH276081   1.473   0.328  37.284  0.3040  0.2407 -0.3381
18197TIP3    H176082   1.395   0.338  37.229  0.7449  1.4657 -0.7652
18197TIP3    H276083   1.545   0.359  37.229  1.3080 -2.0680 -0.4200
18198TIP3   OH276084   3.002   0.339  42.859  0.1412  0.0178  0.0401
18198TIP3    H176085   2.937   0.391  42.811  0.7099  0.9695  0.2723
18198TIP3    H276086   2.992   0.366  42.950  0.9775  0.3139  0.0563
18199TIP3   OH276087   0.299   2.775  44.777 -0.4008 -0.1425 -0.1182
18199TIP3    H176088   0.224   2.780  44.718 -0.2954  0.1522 -0.2281
18199TIP3    H276089   0.279   2.837  44.847 -0.6087 -0.6281  0.2556
18200TIP3   OH276090   0.029   3.485  14.641  0.1222 -0.5544  0.1260
18200TIP3    H176091   0.077   3.493  14.559 -1.2795 -1.6308 -0.8556
18200TIP3    H276092  -0.034   3.556  14.639  1.5970  0.8643  1.4170
18201TIP3   OH276093   3.479   1.895   1.044  0.2709 -0.2079  0.0627
18201TIP3    H176094   3.511   1.953   1.113 -1.9803  0.6015  0.5103
18201TIP3    H276095   3.544   1.904   0.974  2.2559 -0.5270  1.7492
18202TIP3   OH276096   3.955   2.205  16.661  0.1159 -0.2527  0.0499
18202TIP3    H176097   3.895   2.204  16.587 -0.2348  0.5237  0.3099
18202TIP3    H276098   3.906   2.248  16.731 -0.2955 -2.7335  1.3995
18203TIP3   OH276099   1.896   3.165  15.058 -0.4403  0.3099  0.2838
18203TIP3    H176100   1.878   3.088  15.112 -1.3053 -1.2183 -2.0547
18203TIP3    H276101   1.970   3.139  15.003 -2.5014 -0.0490 -2.5404
18204TIP3   OH276102   1.623   1.683  39.496 -0.1055 -0.4674 -0.0571
18204TIP3    H176103   1.581   1.745  39.555 -1.9400 -1.1211 -0.6035
18204TIP3    H276104   1.688   1.638  39.550 -1.1618 -0.4723  1.2510
18205TIP3   OH276105   0.651   3.213  44.847  0.1318  0.3806 -0.2257
18205TIP3    H176106   0.583   3.188  44.908  0.5836 -0.5387 -0.0860
18205TIP3    H276107   0.659   3.308  44.857  0.3711  0.2147  1.3152
18206TIP3   OH276108   0.640   2.427   5.395 -0.1928  0.0233 -0.0797
18206TIP3    H176109   0.694   2.348   5.395  1.0795  0.8603 -0.4938
18206TIP3    H276110   0.654   2.466   5.308 -1.0339  0.5694  0.0110
18207TIP3   OH276111   2.647   2.994   9.906  0.5499  0.5591 -0.4350
18207TIP3    H176112   2.662   3.026   9.817 -2.4150  1.1721 -0.8068
18207TIP3    H276113   2.572   2.935   9.899  1.7355 -1.3020  1.3251
18208TIP3   OH276114   1.892   2.159  15.228  0.1150 -0.3168 -0.7612
18208TIP3    H176115   1.935   2.217  15.165 -1.2793 -0.1800 -1.6307
18208TIP3    H276116   1.858   2.217  15.296  0.9820 -0.3967 -0.2372
18209TIP3   OH276117   1.234   0.063   5.956  0.1974 -0.8626 -0.0272
18209TIP3    H176118   1.273  -0.006   5.902  0.0342  0.3199 -1.7346
18209TIP3    H276119   1.207   0.130   5.893 -3.1277 -0.8719  1.1650
18210TIP3   OH276120   1.541   1.740  42.000 -0.2629 -0.5868 -0.1506
18210TIP3    H176121   1.627   1.728  42.040 -0.0887 -2.1395 -0.9309
18210TIP3    H276122   1.559   1.793  41.922 -0.3855  1.1267  0.9449
18211TIP3   OH276123   2.386   0.579   2.480 -0.2316  0.4123 -0.1293
18211TIP3    H176124   2.322   0.525   2.434  0.3091 -1.1576  0.8968
18211TIP3    H276125   2.458   0.590   2.418 -0.0900 -0.5583 -0.1515
18212TIP3   OH276126   1.995   3.687  46.045 -0.0323  0.3073 -0.0709
18212TIP3    H176127   2.023   3.739  45.970 -0.4508  0.0911 -0.3834
18212TIP3    H276128   1.967   3.752  46.110 -0.8012  0.4816 -0.5558
18213TIP3   OH276129   1.353   0.466  36.040  0.2202 -0.6944  0.1774
18213TIP3    H176130   1.343   0.486  36.133 -1.2102 -1.5649  0.2505
18213TIP3    H276131   1.370   0.372  36.037  2.0317 -0.3779 -0.3768
18214TIP3   OH276132   3.251   3.033   6.794 -0.2670 -0.1390  0.3519
18214TIP3    H176133   3.268   2.988   6.877 -1.6614 -0.8641  0.2735
18214TIP3    H276134   3.227   2.964   6.734  0.5228  0.4106 -0.6282
18215TIP3   OH276135   2.640   2.669   2.970 -0.4667 -0.0282  0.1052
18215TIP3    H176136   2.680   2.584   2.987  0.0204  0.2728  0.4820
18215TIP3    H276137   2.571   2.677   3.035 -0.4575 -0.1026  0.1239
18216TIP3   OH276138   2.570   2.617   2.501  0.0482  0.6236  0.2409
18216TIP3    H176139   2.543   2.569   2.579  0.0303 -0.2633 -0.2922
18216TIP3    H276140   2.579   2.707   2.530 -0.4824  0.4014  1.1411
18217TIP3   OH276141   1.240   1.817   8.593 -0.5239  0.3721 -0.0249
18217TIP3    H176142   1.200   1.883   8.536 -3.3820 -0.1040  1.2443
18217TIP3    H276143   1.220   1.734   8.551 -0.3478  0.1409  0.3415
18218TIP3   OH276144   1.977   2.699   6.248 -0.2615 -0.2334  0.1951
18218TIP3    H176145   2.042   2.629   6.255 -0.6599 -0.5084  1.4502
18218TIP3    H276146   1.897   2.654   6.219 -0.5884 -0.3549  1.2625
18219TIP3   OH276147   3.519   1.546  37.126 -0.8283 -0.7871  0.3763
18219TIP3    H176148   3.578   1.613  37.093  0.4987 -1.9782  0.2325
18219TIP3    H276149   3.435   1.590  37.136  0.1360  1.0222  0.8242
18220TIP3   OH276150   1.615   3.109   1.691 -0.3906 -0.7019  0.0940
18220TIP3    H176151   1.680   3.040   1.684  0.1309 -0.0910 -1.3883
18220TIP3    H276152   1.542   3.069   1.739  0.4319 -1.8629  0.4034
18221TIP3   OH276153   0.758   1.453  37.302 -0.4416  0.1247 -0.1973
18221TIP3    H176154   0.664   1.437  37.294 -0.8885  1.4672  1.5797
18221TIP3    H276155   0.772   1.538  37.259  0.3761 -0.9673 -2.2297
18222TIP3   OH276156   0.360   1.656  36.451 -0.0056 -0.2815  0.6437
18222TIP3    H176157   0.417   1.687  36.381 -0.4184  0.1130  0.4734
18222TIP3    H276158   0.291   1.722  36.457  0.2320 -0.1250  1.6862
18223TIP3   OH276159   2.717   3.088  31.091  0.3214  0.2009  0.3141
18223TIP3    H176160   2.786   3.109  31.154 -0.1310 -0.2730  0.9827
18223TIP3    H276161   2.762   3.039  31.022  1.0874  1.9382 -0.4711
18224TIP3   OH276162   3.736   1.401  45.698 -0.0906 -0.1260  0.2239
18224TIP3    H176163   3.656   1.349  45.699  0.1375 -0.5260  2.5620
18224TIP3    H276164   3.768   1.398  45.788  0.5562  3.1165  0.2390
18225TIP3   OH276165   2.237   1.604  13.527 -0.0400 -0.2310 -0.0440
18225TIP3    H176166   2.215   1.558  13.608  3.6574 -0.7485  0.8625
18225TIP3    H276167   2.333   1.605  13.525  0.0707  3.0277 -2.6111
18226TIP3   OH276168   0.383   2.132  46.082  0.1342 -0.0718 -0.2067
18226TIP3    H176169   0.442   2.057  46.090  0.5770  0.0456 -1.9751
18226TIP3    H276170   0.307   2.097  46.035  0.7604  0.7672 -1.9078
18227TIP3   OH276171   0.413   1.434  33.111  0.2207 -0.1696 -0.1641
18227TIP3    H176172   0.378   1.476  33.189 -0.4920  1.0169 -1.0825
18227TIP3    H276173   0.395   1.496  33.040  2.1639 -0.5372 -1.0600
18228TIP3   OH276174   1.334   2.672  33.803 -0.3694 -0.1128  0.3313
18228TIP3    H176175   1.280   2.599  33.773 -0.6997 -0.1592  1.0111
18228TIP3    H276176   1.416   2.632  33.831 -0.0555 -0.0667 -0.5085
18229TIP3   OH276177   1.709   1.677   9.418 -0.2800 -0.1430  0.1448
18229TIP3    H176178   1.723   1.747   9.481  0.2281 -0.2181  0.1159
18229TIP3    H276179   1.755   1.602   9.455 -1.9298 -0.8617  0.8573
18230TIP3   OH276180   0.921   2.271   9.051  0.2906 -0.8728 -0.2353
18230TIP3    H176181   0.978   2.334   9.007  1.2780 -1.7660 -0.2589
18230TIP3    H276182   0.970   2.189   9.051 -0.2318 -1.2195  1.3772
18231TIP3   OH276183   0.263   2.424   5.347  0.1131  0.0430  0.3412
18231TIP3    H176184   0.331   2.436   5.281  0.2436 -0.1083  0.4467
18231TIP3    H276185   0.310   2.430   5.430  0.4785 -2.6419  0.4137
18232TIP3   OH276186   2.165   3.880  33.693  0.5639  0.3998  0.0950
18232TIP3    H176187   2.145   3.828  33.615  1.4451  1.2855 -0.7701
18232TIP3    H276188   2.088   3.872  33.748 -0.7713  0.9936 -1.5802
18233TIP3   OH276189   1.540   2.182  37.725  0.0584 -0.0088 -0.0737
18233TIP3    H176190   1.486   2.137  37.661 -1.4169  0.9302  0.4570
18233TIP3    H276191   1.622   2.133  37.727 -0.2773 -0.6953 -1.8578
18234TIP3   OH276192   1.149   1.801  18.096  0.0567  0.0428  0.4817
18234TIP3    H176193   1.148   1.896  18.102  0.0631  0.0610  0.1963
18234TIP3    H276194   1.178   1.782  18.007  1.4631 -0.2374  0.9626
18235TIP3   OH276195   1.992   0.321  44.971 -0.3537 -0.0872  0.2745
18235TIP3    H176196   1.965   0.231  44.993 -1.6480 -0.4148 -2.2887
18235TIP3    H276197   1.945   0.341  44.890  0.3984  2.7077  0.4321
18236TIP3   OH276198   0.655   2.439  36.427 -0.1934  0.1309 -0.5264
18236TIP3    H176199   0.624   2.526  36.454 -1.7061 -0.3024 -0.7620
18236TIP3    H276200   0.673   2.448  36.334  0.7941  0.4919 -0.3053
18237TIP3   OH276201   4.104   1.452   8.689 -0.1368 -0.2178 -0.5230
18237TIP3    H176202   4.013   1.421   8.689 -0.3886  0.5049  0.3912
18237TIP3    H276203   4.105   1.525   8.750  1.0804 -0.2512 -0.4835
18238TIP3   OH276204   2.987   3.214  47.435  0.1267 -0.8054 -0.4080
18238TIP3    H176205   3.078   3.212  47.405  0.4790  0.1193  0.5018
18238TIP3    H276206   2.982   3.294  47.488 -1.4183 -0.4345 -1.0551
18239TIP3   OH276207   2.662   3.117  41.709 -0.0605  0.1011 -0.2011
18239TIP3    H176208   2.667   3.200  41.757 -0.3723 -0.4634  0.8316
18239TIP3    H276209   2.744   3.113  41.660 -0.8523  1.9453 -1.8556
18240TIP3   OH276210   3.797   1.312  43.490 -1.0200  0.0876  0.2926
18240TIP3    H176211   3.788   1.253  43.415  0.7301  0.0429  0.0760
18240TIP3    H276212   3.709   1.316  43.528 -1.6231 -1.0299 -0.8969
18241TIP3   OH276213   0.292   0.090  47.090  0.2083 -0.8736  0.0769
18241TIP3    H176214   0.344   0.159  47.132 -0.9406  0.6767 -0.9159
18241TIP3    H276215   0.320   0.009  47.133  3.4655 -0.1658 -0.4308
18242TIP3   OH276216   1.555   3.222  42.867  0.5808  0.3608  0.2988
18242TIP3    H176217   1.499   3.146  42.853  0.1036  0.3453  2.0553
18242TIP3    H276218   1.641   3.186  42.884  0.1329  0.1120  2.2241
18243TIP3   OH276219   2.728   2.858  38.643 -0.1045  0.8761 -0.3151
18243TIP3    H176220   2.816   2.830  38.668  0.0949  0.7838 -1.0886
18243TIP3    H276221   2.724   2.842  38.549 -0.8792  1.0794 -0.3207
18244TIP3   OH276222   1.361   3.009  11.008 -0.0842 -0.2076  0.0670
18244TIP3    H176223   1.295   3.077  10.992  0.4191  0.0138 -1.1156
18244TIP3    H276224   1.323   2.955  11.077 -0.8650  0.7726  0.4331
18245TIP3   OH276225   3.250   2.805  11.610 -0.1368 -0.0118  0.5626
18245TIP3    H176226   3.287   2.716  11.607  0.5927  0.2877  0.3985
18245TIP3    H276227   3.303   2.850  11.676 -0.9155  0.1293  1.1068
18246TIP3   OH276228   1.433   4.081   6.968 -1.0514  0.0433  0.7998
18246TIP3    H176229   1.392   4.127   6.895 -1.6151 -0.3896  0.8430
18246TIP3    H276230   1.363   4.028   7.007 -0.5549 -0.3963  1.1187
18247TIP3   OH276231   1.532   2.545  39.139 -0.2091  0.2663  0.6427
18247TIP3    H176232   1.510   2.506  39.223 -1.1489  0.7555  0.6360
18247TIP3    H276233   1.595   2.484  39.100 -2.6593 -2.0613  0.0235
18248TIP3   OH276234   0.244   3.495   7.965 -0.6308 -0.0908  0.0917
18248TIP3    H176235   0.312   3.561   7.979  0.2952 -1.5272  3.5462
18248TIP3    H276236   0.281   3.434   7.902  0.0794  0.6598 -0.2346
18249TIP3   OH276237   1.004   3.916  41.027  0.3160 -0.3892  0.1315
18249TIP3    H176238   1.099   3.905  41.034  0.4657  0.2666 -0.7404
18249TIP3    H276239   0.968   3.845  41.081  1.2864 -1.7553 -0.9375
18250TIP3   OH276240   1.986   1.016  31.448  0.7241 -0.0463 -0.7959
18250TIP3    H176241   1.978   1.097  31.398  0.1996  0.0275 -0.5957
18250TIP3    H276242   1.912   1.017  31.508  1.3659 -0.1202  0.0099
18251TIP3   OH276243   1.657   0.957  12.526  0.4491  0.3001 -0.4839
18251TIP3    H176244   1.630   1.022  12.592  1.9036  0.2242  0.2152
18251TIP3    H276245   1.698   0.887  12.577  0.8170 -0.1722 -1.4160
18252TIP3   OH276246   1.996   1.343  39.460  0.5609  0.6759 -0.3967
18252TIP3    H176247   2.068   1.377  39.406  1.6676  0.0735  0.6520
18252TIP3    H276248   1.972   1.261  39.419  0.9384  0.5483 -0.3688
18253TIP3   OH276249   1.422   2.324  33.080  0.3808 -0.2793  0.2631
18253TIP3    H176250   1.446   2.324  33.173 -0.7228  2.5310  0.6431
18253TIP3    H276251   1.422   2.416  33.055  0.7616 -0.9491 -2.6115
18254TIP3   OH276252   1.687   0.015   3.932 -0.3392  0.4588 -0.4874
18254TIP3    H176253   1.682   0.030   3.838 -0.7416 -1.0635 -0.7291
18254TIP3    H276254   1.780   0.027   3.953 -0.2508  0.8152 -1.0586
18255TIP3   OH276255   0.826   3.678  11.908 -0.1110 -0.8910 -0.1153
18255TIP3    H176256   0.821   3.635  11.994  0.6290 -0.3410  0.2135
18255TIP3    H276257   0.870   3.614  11.852  0.2668 -0.8815  0.1649
18256TIP3   OH276258   0.924   2.617  38.093 -0.1253  0.3325  0.8076
18256TIP3    H176259   0.934   2.712  38.088 -1.2699  0.4124 -0.5015
18256TIP3    H276260   0.865   2.604  38.168 -1.3046  0.7919 -0.0130
18257TIP3   OH276261   0.335   2.659  44.373 -0.2431 -0.0191 -0.2865
18257TIP3    H176262   0.431   2.654  44.367 -0.0018  1.0410  1.6882
18257TIP3    H276263   0.305   2.657  44.283  1.6490 -0.2815 -0.9657
18258TIP3   OH276264   0.048   0.951   8.774  0.1237  0.3326  0.0045
18258TIP3    H176265   0.080   1.020   8.831  0.2078 -0.6420  1.1639
18258TIP3    H276266   0.127   0.907   8.743  0.0241 -0.5078  0.8950
18259TIP3   OH276267   0.100   2.455  45.227  0.1311  0.1980 -0.2305
18259TIP3    H176268   0.177   2.399  45.222  0.6933  0.8111  1.2002
18259TIP3    H276269   0.127   2.536  45.182 -0.2945 -0.2262 -1.2803
18260TIP3   OH276270   0.689   3.753  43.247  0.3958 -0.1152 -0.0461
18260TIP3    H176271   0.609   3.704  43.267  1.3327 -2.3072 -1.2230
18260TIP3    H276272   0.659   3.842  43.228 -1.6510 -0.6548  0.4136
18261TIP3   OH276273   2.775   1.816  13.095 -0.0459  0.2649  0.0074
18261TIP3    H176274   2.737   1.831  13.008 -1.2768  2.2619  0.7937
18261TIP3    H276275   2.833   1.741  13.084 -1.1756 -0.3770 -2.2237
18262TIP3   OH276276   2.968   3.140  46.590  0.2609  0.0854 -0.3557
18262TIP3    H176277   2.997   3.100  46.508  2.5127 -0.7356  0.7645
18262TIP3    H276278   2.928   3.068  46.639  1.0780 -0.0156  0.1964
18263TIP3   OH276279   3.805   1.148   5.620  0.1422  0.0813  0.2425
18263TIP3    H176280   3.896   1.162   5.594 -0.3743 -0.9769 -2.4547
18263TIP3    H276281   3.773   1.235   5.644  1.4536  0.7072 -0.1797
18264TIP3   OH276282   3.802   0.297  34.232 -0.0613 -0.2097 -0.2093
18264TIP3    H176283   3.752   0.223  34.268 -2.4543  2.3723  2.2937
18264TIP3    H276284   3.775   0.302  34.141  1.5861 -3.3983 -1.0088
18265TIP3   OH276285   0.208   0.416  31.441  0.0568  0.5685 -0.0957
18265TIP3    H176286   0.173   0.328  31.423  1.7092 -0.3752  1.0499
18265TIP3    H276287   0.170   0.471  31.372  0.2583 -1.3635 -1.8789
18266TIP3   OH276288   4.007   3.905  45.802 -0.3499 -0.3460  0.2955
18266TIP3    H176289   4.025   3.953  45.722  0.6438 -1.1947 -0.0221
18266TIP3    H276290   3.914   3.920  45.820 -0.2436  1.0439 -0.1917
18267TIP3   OH276291   3.166   0.056  35.883 -0.0064  0.1060  0.4417
18267TIP3    H176292   3.094   0.099  35.836 -0.2569 -2.6286 -1.9678
18267TIP3    H276293   3.123  -0.002  35.945  0.1704 -0.0400  0.4256
18268TIP3   OH276294   4.010   0.945   9.278  0.3893 -0.5220  0.1463
18268TIP3    H176295   3.948   0.987   9.337  0.1875  0.3816 -0.6929
18268TIP3    H276296   4.067   1.016   9.249 -0.6521 -0.5504 -2.1794
18269TIP3   OH276297   1.189   2.805  31.354  0.4167 -0.2251 -0.1797
18269TIP3    H176298   1.110   2.818  31.407 -0.0589 -0.6246 -0.7670
18269TIP3    H276299   1.157   2.810  31.263  0.9269 -1.2112 -0.4243
18270TIP3   OH276300   2.505   3.394  46.728  0.4509  0.4033  0.0130
18270TIP3    H176301   2.581   3.413  46.673 -0.1405  0.7712 -0.6898
18270TIP3    H276302   2.530   3.426  46.815  1.3409 -0.0649 -0.0526
18271TIP3   OH276303   0.015   3.751  35.865 -0.5769  0.2149 -0.9263
18271TIP3    H176304  -0.023   3.689  35.803 -1.1223  0.6962 -1.0834
18271TIP3    H276305   0.108   3.754  35.843 -0.5659 -0.4683 -0.9773
18272TIP3   OH276306   3.271   1.404  14.519 -0.1344  0.6322  0.2711
18272TIP3    H176307   3.308   1.353  14.447 -0.5166  1.4397 -0.5169
18272TIP3    H276308   3.320   1.376  14.596  0.6317  0.1218 -0.3844
18273TIP3   OH276309   0.502   1.221  11.900  0.4576 -0.4649  0.0148
18273TIP3    H176310   0.576   1.276  11.924  2.2144 -3.4863  2.1068
18273TIP3    H276311   0.432   1.249  11.959  0.3347  1.3171 -0.8806
18274TIP3   OH276312   1.526   2.205  12.177  0.4204  0.0085  0.5509
18274TIP3    H176313   1.600   2.199  12.117  0.5961 -2.8056  0.9079
18274TIP3    H276314   1.483   2.120  12.170 -1.4629  0.7800  2.0282
18275TIP3   OH276315   0.550   2.786   3.421  0.0054 -0.1799  0.1898
18275TIP3    H176316   0.572   2.821   3.507 -0.8733  1.1868 -0.1046
18275TIP3    H276317   0.634   2.764   3.381  0.3932 -1.2328  1.5348
18276TIP3   OH276318   0.971   0.423  30.207 -0.1593  0.0082 -0.1060
18276TIP3    H176319   1.053   0.409  30.255  0.1280  1.9762  0.0307
18276TIP3    H276320   0.997   0.422  30.115 -0.4038 -1.7882 -0.1931
18277TIP3   OH276321   3.367   0.400   9.272 -0.5673  0.8655 -0.1435
18277TIP3    H176322   3.351   0.356   9.355  1.0283 -0.6426 -0.5644
18277TIP3    H276323   3.398   0.487   9.296 -2.6646  1.4178  0.7463
18278TIP3   OH276324   1.138   3.634  39.962 -0.0261 -0.2195  0.3908
18278TIP3    H176325   1.217   3.643  40.014  0.9413 -2.2756 -0.6152
18278TIP3    H276326   1.168   3.603  39.876 -1.8492 -0.3384 -0.2695
18279TIP3   OH276327   3.123   3.821  43.264 -0.0380  0.3443 -0.4203
18279TIP3    H176328   3.062   3.866  43.206  1.0907 -1.5809 -3.3310
18279TIP3    H276329   3.171   3.761  43.207  2.4006 -0.4943  2.2522
18280TIP3   OH276330   0.640   3.198  38.769 -0.3960 -0.3944 -0.3673
18280TIP3    H176331   0.735   3.181  38.774  0.1695  1.9677 -1.8963
18280TIP3    H276332   0.603   3.139  38.835  2.3974  0.6374  2.3837
18281TIP3   OH276333   2.491   2.147  34.319  0.0642  0.3247 -0.4880
18281TIP3    H176334   2.407   2.122  34.281  0.2061 -0.1051 -0.5227
18281TIP3    H276335   2.477   2.141  34.414  0.5382 -1.4113 -0.4926
18282TIP3   OH276336   3.746   0.947  38.397  0.0166 -0.7587 -0.0195
18282TIP3    H176337   3.833   0.936  38.358  0.0423  0.5896 -0.3894
18282TIP3    H276338   3.757   0.919  38.488  0.7175 -1.0425 -0.1842
18283TIP3   OH276339   0.051   2.171  10.645 -0.6785  0.3336 -0.2242
18283TIP3    H176340   0.014   2.259  10.644 -1.0361  0.1819 -0.5385
18283TIP3    H276341  -0.019   2.115  10.612 -0.1355  0.0536 -0.9281
18284TIP3   OH276342   2.084   2.347  31.482  0.5205  0.0671  0.6441
18284TIP3    H176343   2.095   2.293  31.561  2.3998  0.3618  0.6188
18284TIP3    H276344   2.110   2.435  31.510 -1.2714  0.7493  0.3361
18285TIP3   OH276345   1.249   3.960  30.525  0.0054 -0.1414  0.0225
18285TIP3    H176346   1.341   3.985  30.540  0.7718 -2.4040 -0.5212
18285TIP3    H276347   1.242   3.872  30.561 -1.5882 -0.5603 -1.1993
18286TIP3   OH276348   1.374   3.806  29.260 -0.7763  0.0328 -0.0528
18286TIP3    H176349   1.284   3.800  29.289 -0.1354 -2.7484  1.7195
18286TIP3    H276350   1.372   3.781  29.168 -1.6470 -1.8056  0.4374
18287TIP3   OH276351   3.201   3.225  37.248 -0.3380  0.7568 -0.3307
18287TIP3    H176352   3.125   3.226  37.190 -1.6218  0.1555  1.2827
18287TIP3    H276353   3.195   3.142  37.295  0.8362  1.0893  0.4482
18288TIP3   OH276354   1.118   3.840  38.765 -0.5591 -0.4483  0.1942
18288TIP3    H176355   1.156   3.926  38.745 -0.7276 -0.3787  0.1663
18288TIP3    H276356   1.031   3.843  38.724 -1.0452 -0.1800  1.2067
18289TIP3   OH276357   0.453   3.539  33.634  0.2109  0.4646  0.8375
18289TIP3    H176358   0.506   3.496  33.567  2.0449 -1.1166  3.1555
18289TIP3    H276359   0.453   3.631  33.608  1.9693  0.1162 -0.6364
18290TIP3   OH276360   0.572   1.306  40.142 -0.0015  0.3789 -0.4310
18290TIP3    H176361   0.582   1.211  40.147  1.1996  0.5454  1.4363
18290TIP3    H276362   0.580   1.327  40.049  0.4167 -1.2723 -0.7945
18291TIP3   OH276363   1.623   1.194  32.039  0.0598  0.5341 -0.6568
18291TIP3    H176364   1.588   1.249  31.968  0.8215  1.3224 -0.4324
18291TIP3    H276365   1.617   1.249  32.117  0.5503  0.1828 -0.3690
18292TIP3   OH276366   0.902   0.650   9.824 -0.2636 -0.1625  0.3892
18292TIP3    H176367   0.848   0.688   9.893 -1.0250  0.3634 -0.4692
18292TIP3    H276368   0.961   0.590   9.869  0.8313  1.8378  1.8097
18293TIP3   OH276369   0.306   0.889   2.669  0.3028 -0.1476  0.3929
18293TIP3    H176370   0.220   0.874   2.707  0.4607  1.2326  1.3908
18293TIP3    H276371   0.298   0.860   2.579 -1.5501  0.9196  0.1569
18294TIP3   OH276372   0.929   2.813  40.301  0.3020 -0.4214  0.7525
18294TIP3    H176373   0.896   2.775  40.383 -1.0111  0.2120  0.5326
18294TIP3    H276374   1.014   2.850  40.325 -0.8341  1.3612  2.2910
18295TIP3   OH276375   0.443   2.811  34.837 -0.6973  0.0085 -0.1334
18295TIP3    H176376   0.382   2.838  34.905 -0.5487 -0.6876  0.2830
18295TIP3    H276377   0.418   2.863  34.760  0.0544  1.8874  0.8141
18296TIP3   OH276378   2.099   2.629  10.617 -0.5610 -0.7629  0.1100
18296TIP3    H176379   2.137   2.543  10.630 -1.5315 -1.2568 -0.2289
18296TIP3    H276380   2.052   2.647  10.699 -1.0848 -0.9387 -0.1505
18297TIP3   OH276381   2.622   1.272  32.830  0.2256  0.3907  0.0387
18297TIP3    H176382   2.684   1.245  32.762  0.2895 -0.4219  0.4081
18297TIP3    H276383   2.672   1.335  32.883 -0.0342  1.5382 -1.0279
18298TIP3   OH276384   4.040   1.797   6.177  0.0359  0.2352  0.2245
18298TIP3    H176385   4.045   1.726   6.114 -0.2582  0.6830 -0.3068
18298TIP3    H276386   4.010   1.873   6.127 -0.5151  0.5199  0.9579
18299TIP3   OH276387   0.545   3.930  44.121  0.1892  0.1895  0.2504
18299TIP3    H176388   0.587   3.902  44.203 -0.8577 -1.2655  0.3443
18299TIP3    H276389   0.575   3.866  44.056 -1.3151 -0.4944  0.1877
18300TIP3   OH276390   2.660   2.838  14.331  0.2890 -0.4495 -0.2677
18300TIP3    H176391   2.698   2.808  14.248 -1.7880 -0.9786 -1.0831
18300TIP3    H276392   2.626   2.925  14.312 -2.6855 -1.6142 -0.8998
18301TIP3   OH276393   0.994   0.841   6.273 -0.1738  0.1054  0.2412
18301TIP3    H176394   0.959   0.774   6.215  1.1537 -0.2332 -0.1974
18301TIP3    H276395   0.929   0.848   6.344 -1.4247 -0.0257 -0.8600
18302TIP3   OH276396   2.360   0.355  47.521 -0.1202 -0.0994  0.7934
18302TIP3    H176397   2.397   0.266  47.525 -1.1272 -0.5395  0.6162
18302TIP3    H276398   2.286   0.347  47.462  0.7010  1.2271 -0.4801
18303TIP3   OH276399   1.399   2.759  47.152 -0.0785 -0.2045  0.3635
18303TIP3    H176400   1.361   2.752  47.065  0.4867 -1.0569  0.1656
18303TIP3    H276401   1.378   2.676  47.194  0.9793 -0.4406  0.4736
18304TIP3   OH276402   0.630   3.516  29.352  0.2672  0.0658 -0.1444
18304TIP3    H176403   0.696   3.576  29.388 -0.0112  0.1375  0.2533
18304TIP3    H276404   0.563   3.572  29.314  1.2894 -0.0023 -2.1862
18305TIP3   OH276405   0.957   3.263  47.331  0.5584  0.4519  0.0208
18305TIP3    H176406   0.896   3.325  47.289 -1.6534 -1.9935 -0.6744
18305TIP3    H276407   1.007   3.226  47.258 -1.9308 -2.3863 -0.4208
18306TIP3   OH276408   1.401   3.924  46.710 -0.5438 -0.3092  0.3083
18306TIP3    H176409   1.366   3.859  46.771 -0.3528  0.0325  0.7887
18306TIP3    H276410   1.464   3.974  46.762 -1.3302  0.8431  0.1974
18307TIP3   OH276411   0.970   3.529  38.455 -0.4113 -0.5215  0.3588
18307TIP3    H176412   0.924   3.601  38.498 -0.1604 -0.7682  1.0540
18307TIP3    H276413   0.918   3.510  38.377 -1.9172 -1.2851  1.5062
18308TIP3   OH276414   1.077   3.628  12.132  0.1692 -0.1439  0.2798
18308TIP3    H176415   1.007   3.566  12.155 -0.7327  0.4252 -0.8148
18308TIP3    H276416   1.058   3.706  12.184 -0.2048  0.1173 -0.2349
18309TIP3   OH276417   3.760   0.204   5.398 -0.1643 -0.1718  0.0032
18309TIP3    H176418   3.700   0.208   5.324  0.9944 -0.7302 -1.0082
18309TIP3    H276419   3.716   0.148   5.462 -0.2334 -1.5751 -1.2166
18310TIP3   OH276420   3.319   3.813  31.241 -0.1327  0.2823 -0.3567
18310TIP3    H176421   3.301   3.780  31.329 -1.3024  1.2315 -0.2162
18310TIP3    H276422   3.232   3.824  31.201  0.3196  1.0447 -1.1808
18311TIP3   OH276423   3.378   3.981  43.572 -0.1957  0.0634  0.1168
18311TIP3    H176424   3.395   3.925  43.495 -0.9331  0.4073 -0.3082
18311TIP3    H276425   3.313   4.044  43.541 -0.9675 -0.1773  1.1968
18312TIP3   OH276426   2.789   1.767   5.516  0.2802  0.3664  0.0013
18312TIP3    H176427   2.796   1.674   5.494  1.3690  0.7239 -1.2626
18312TIP3    H276428   2.820   1.772   5.607 -0.1929 -0.5601  0.2214
18313TIP3   OH276429   1.687   1.802  19.401 -0.6365 -0.0427 -0.2690
18313TIP3    H176430   1.719   1.715  19.425  1.4725  0.3787 -1.2697
18313TIP3    H276431   1.686   1.851  19.483 -1.2812 -0.8315  0.2085
18314TIP3   OH276432   3.017   2.123  47.040 -0.3807 -0.1246  0.2328
18314TIP3    H176433   2.940   2.180  47.038 -0.3419 -0.0690  0.3698
18314TIP3    H276434   3.056   2.133  46.953 -0.9792 -0.7693 -0.1261
18315TIP3   OH276435   2.769   2.872  10.159  0.4892  0.2440 -0.1679
18315TIP3    H176436   2.726   2.918  10.087 -0.7182 -3.0407 -1.7417
18315TIP3    H276437   2.765   2.780  10.135  1.0659 -0.9610  3.5891
18316TIP3   OH276438   0.404   1.351  32.353 -0.0962 -0.1324  0.3879
18316TIP3    H176439   0.405   1.280  32.418  1.1298 -2.3980 -1.9292
18316TIP3    H276440   0.321   1.395  32.368 -0.5565 -1.5517  2.4701
18317TIP3   OH276441   3.202   2.954  45.997 -0.3911 -0.4662 -0.5356
18317TIP3    H176442   3.120   2.914  46.026 -1.7699  2.6245  0.2062
18317TIP3    H276443   3.255   2.960  46.077  0.0237 -1.2246 -0.7443
18318TIP3   OH276444   2.555   1.959  11.517 -0.7255 -0.2963 -0.0482
18318TIP3    H176445   2.486   1.903  11.482 -1.5766  0.9804 -0.4767
18318TIP3    H276446   2.543   2.043  11.472 -0.0875  0.5288  1.2598
18319TIP3   OH276447   2.074   3.645  46.589  0.0766 -0.1281 -0.1258
18319TIP3    H176448   1.993   3.615  46.548  0.3998 -0.9961 -0.1776
18319TIP3    H276449   2.110   3.566  46.629  0.8691  0.2548 -0.0665
18320TIP3   OH276450   2.131   2.642  10.350  0.4942 -0.1033  0.3865
18320TIP3    H176451   2.132   2.639  10.446 -0.8254 -0.1309  0.4203
18320TIP3    H276452   2.066   2.576  10.325  1.3729 -0.6404 -0.5693
18321TIP3   OH276453   1.615   2.595  13.353 -0.0863  0.2245  0.0759
18321TIP3    H176454   1.573   2.518  13.315  1.9609  0.0122 -1.9576
18321TIP3    H276455   1.558   2.668  13.329 -0.0356 -0.2132 -1.4864
18322TIP3   OH276456   2.468   3.799   5.841  0.1113  0.0208 -0.3309
18322TIP3    H176457   2.492   3.706   5.840  0.8426  0.1754  0.6175
18322TIP3    H276458   2.410   3.810   5.766  0.7642 -1.0029 -1.0170
18323TIP3   OH276459   3.182   0.612  40.092 -0.6523 -0.5572  0.5249
18323TIP3    H176460   3.094   0.618  40.130 -0.5755  0.8362  0.5267
18323TIP3    H276461   3.241   0.624  40.166 -0.4994  1.7591  0.1046
18324TIP3   OH276462   3.871   2.520  14.190  0.0747 -0.1886 -0.5231
18324TIP3    H176463   3.952   2.478  14.159 -1.3879 -1.4739 -2.8374
18324TIP3    H276464   3.814   2.447  14.213 -0.4824  0.7123  1.1546
18325TIP3   OH276465   3.649   2.509   5.895  0.3885 -0.3392 -0.6856
18325TIP3    H176466   3.671   2.429   5.943 -0.6026  0.0784  0.4960
18325TIP3    H276467   3.654   2.578   5.960 -1.4495  0.1761 -1.0253
18326TIP3   OH276468   3.031   2.165   1.798 -0.1089  0.3155  0.3901
18326TIP3    H176469   3.116   2.138   1.833 -0.3928 -1.2439 -0.0278
18326TIP3    H276470   3.035   2.143   1.705 -1.0359 -0.0061  0.4111
18327TIP3   OH276471   2.416   0.920  41.707 -0.6507 -0.5001  0.1809
18327TIP3    H176472   2.472   0.980  41.658 -0.4231  0.5660  1.6623
18327TIP3    H276473   2.465   0.838  41.709  0.0039 -0.1272 -0.1192
18328TIP3   OH276474   2.642   1.003  34.014 -0.1927 -0.1908 -0.8713
18328TIP3    H176475   2.680   1.037  34.095  0.6050  1.6842 -1.9920
18328TIP3    H276476   2.718   0.983  33.959 -0.7569 -0.5680 -1.5156
18329TIP3   OH276477   4.085   0.467  26.928 -0.2703  0.2370 -0.5477
18329TIP3    H176478   4.098   0.554  26.890 -0.2690  0.3759 -0.2398
18329TIP3    H276479   4.016   0.481  26.994  1.4555  0.5601  1.3089
18330TIP3   OH276480   2.457   3.929  24.633  0.2259 -0.3663  0.5994
18330TIP3    H176481   2.435   3.946  24.724 -1.0642  0.3668  0.1848
18330TIP3    H276482   2.450   4.014  24.590 -0.9623 -0.9830 -0.5049
18331TIP3   OH276483   0.118   1.189  44.942  0.7873  0.5035  0.0109
18331TIP3    H176484   0.075   1.246  44.878  1.0546  0.8023  0.0977
18331TIP3    H276485   0.099   1.100  44.911 -2.1145  0.4936  1.4260
18332TIP3   OH276486   0.663   3.096  34.531 -0.4574 -0.2796  0.7280
18332TIP3    H176487   0.735   3.082  34.470  0.2457 -1.3378  1.7485
18332TIP3    H276488   0.613   3.168  34.493  1.7275  1.2501  0.5040
18333TIP3   OH276489   2.597   0.107  12.955  0.4422 -0.0063 -0.2281
18333TIP3    H176490   2.514   0.062  12.939  0.5436 -0.5382  0.6957
18333TIP3    H276491   2.581   0.162  13.031  0.9554 -0.1830  0.0131
18334TIP3   OH276492   1.420   3.551   5.975  0.2661 -0.3163  0.4030
18334TIP3    H176493   1.465   3.534   6.058  4.4526  2.5079 -1.0046
18334TIP3    H276494   1.447   3.480   5.918 -1.2669 -1.3328  0.8681
18335TIP3   OH276495   0.690   4.013  43.093  0.1130 -0.5162  0.6442
18335TIP3    H176496   0.630   4.075  43.134 -1.3709 -0.8607 -0.8902
18335TIP3    H276497   0.649   3.991  43.010  2.1936 -1.0945 -0.3101
18336TIP3   OH276498   2.382   3.817   8.804 -0.3150  0.1695  0.0296
18336TIP3    H176499   2.300   3.768   8.811 -0.0616 -0.5742 -1.6896
18336TIP3    H276500   2.399   3.848   8.893 -1.2762 -1.5880  0.8777
18337TIP3   OH276501   1.182   1.226  44.288  0.2897  0.2117 -0.3850
18337TIP3    H176502   1.181   1.276  44.370 -1.1030 -0.6168  0.1448
18337TIP3    H276503   1.208   1.138  44.314 -0.7471 -0.2089 -0.7192
18338TIP3   OH276504   2.394   3.435   4.114  0.4939 -0.4142  0.7692
18338TIP3    H176505   2.456   3.420   4.186  1.1670 -0.3533  0.2202
18338TIP3    H276506   2.337   3.504   4.145  0.4456 -0.7554  1.4504
18339TIP3   OH276507   1.652   3.593   5.042 -0.2216  0.3158 -0.1313
18339TIP3    H176508   1.664   3.498   5.044 -1.3968  0.1297 -0.9106
18339TIP3    H276509   1.671   3.622   5.131 -2.0907 -0.9639  0.7254
18340TIP3   OH276510   1.649   2.560   3.424 -0.5149  0.1889  0.8022
18340TIP3    H176511   1.660   2.641   3.474 -0.8694  0.7881 -0.0716
18340TIP3    H276512   1.683   2.581   3.337 -1.5712 -0.2742  0.2663
18341TIP3   OH276513   2.878   3.911  10.805 -0.5009  0.1444 -0.4453
18341TIP3    H176514   2.935   3.835  10.806 -0.3678  0.1404 -2.5653
18341TIP3    H276515   2.815   3.896  10.876  0.3193 -1.2778  0.0078
18342TIP3   OH276516   1.402   0.050  13.835  0.1474  0.0754 -0.2288
18342TIP3    H176517   1.447   0.065  13.919 -1.4870 -1.5530  1.0210
18342TIP3    H276518   1.377  -0.042  13.837 -2.1559  0.5887 -1.3589
18343TIP3   OH276519   0.855   0.692  45.298 -0.1994  0.2375  0.3029
18343TIP3    H176520   0.814   0.778  45.310 -1.7733 -0.5873  1.1703
18343TIP3    H276521   0.805   0.634  45.355  1.4294 -1.0943  0.4586
18344TIP3   OH276522   3.470   2.680  41.921 -0.2037 -0.4748 -0.0027
18344TIP3    H176523   3.502   2.613  41.861  1.2632 -2.0979  2.4139
18344TIP3    H276524   3.517   2.759  41.897  0.5579 -1.1584 -0.8178
18345TIP3   OH276525   3.708   1.191  14.519 -0.4629  0.4097 -0.0362
18345TIP3    H176526   3.773   1.192  14.589 -2.1876 -1.4996  1.7309
18345TIP3    H276527   3.760   1.195  14.438  2.0894 -2.9734  1.1986
18346TIP3   OH276528   2.222   1.095  35.655  0.0469 -0.7187  0.7388
18346TIP3    H176529   2.231   1.052  35.741 -4.1665  0.9734  2.2811
18346TIP3    H276530   2.309   1.132  35.638  0.7811  0.1940  5.1095
18347TIP3   OH276531   1.319   0.973  11.659  0.4260 -0.0232 -0.6215
18347TIP3    H176532   1.403   1.017  11.648 -0.1896  1.1073 -0.9107
18347TIP3    H276533   1.264   1.036  11.706 -1.1490  0.4241 -2.8890
18348TIP3   OH276534   0.293   1.154   5.674 -0.5869  0.3423  0.0341
18348TIP3    H176535   0.216   1.153   5.731 -1.2639 -0.5412 -0.8603
18348TIP3    H276536   0.257   1.164   5.586  0.1942 -1.6727 -0.5568
18349TIP3   OH276537   0.966   0.834  38.372  0.2840 -0.3174  0.0670
18349TIP3    H176538   0.970   0.804  38.281  0.6138 -3.5575  1.0228
18349TIP3    H276539   0.891   0.894  38.374 -0.2147 -0.7715 -2.1740
18350TIP3   OH276540   0.966   3.565  35.182  0.3107 -0.3359  0.0826
18350TIP3    H176541   1.029   3.554  35.111  0.1946 -0.0783 -0.0621
18350TIP3    H276542   0.932   3.654  35.171  0.8203 -0.0286  0.8855
18351TIP3   OH276543   0.831   0.174  13.269 -0.2339 -0.6681 -0.2325
18351TIP3    H176544   0.781   0.171  13.351 -0.5509 -1.4606 -0.4491
18351TIP3    H276545   0.787   0.241  13.217  1.0466  1.1782  0.9135
18352TIP3   OH276546   1.087   1.203  41.211  0.7933 -0.4218  0.3203
18352TIP3    H176547   1.055   1.231  41.126  0.0439  1.1163  1.0698
18352TIP3    H276548   1.135   1.122  41.193  0.8322 -0.0210 -1.5672
18353TIP3   OH276549   0.326   2.269   5.840  0.2565  0.2340  0.4505
18353TIP3    H176550   0.280   2.328   5.781 -1.0392  0.7363  1.9013
18353TIP3    H276551   0.410   2.312   5.857  0.3334  0.4409 -0.4083
18354TIP3   OH276552   2.081   0.088   1.446  0.0947 -0.0869  0.3642
18354TIP3    H176553   2.052   0.059   1.360 -1.6488  0.3899  0.7463
18354TIP3    H276554   2.081   0.184   1.441  3.2938 -0.0006 -0.0980
18355TIP3   OH276555   0.487   3.102  12.747  0.0078  0.3339  0.4812
18355TIP3    H176556   0.403   3.136  12.717  0.0527  0.4709  0.5114
18355TIP3    H276557   0.477   3.094  12.842 -1.4492 -3.5581  0.1830
18356TIP3   OH276558   3.019   1.049  11.823  0.4267  0.1343  0.3625
18356TIP3    H176559   2.929   1.061  11.851  0.2745 -0.8957  0.3319
18356TIP3    H276560   3.062   1.004  11.896  0.6943 -0.1559  0.0326
18357TIP3   OH276561   1.647   1.135  12.964 -0.0390 -0.3328  0.0162
18357TIP3    H176562   1.724   1.142  13.021 -1.1717 -0.3870  1.6301
18357TIP3    H276563   1.575   1.165  13.019 -1.3454 -1.3727 -1.0878
18358TIP3   OH276564   3.348   3.443  35.108  0.7268  0.4751  0.0331
18358TIP3    H176565   3.273   3.499  35.087  1.4830  1.4186 -0.2142
18358TIP3    H276566   3.309   3.365  35.148 -0.4039  0.7906 -0.4149
18359TIP3   OH276567   0.737   3.922   3.870 -0.4944  0.4383 -0.7235
18359TIP3    H176568   0.741   3.876   3.954  1.0971  1.4118 -0.2141
18359TIP3    H276569   0.705   3.856   3.808  1.2789 -1.2685  0.0528
18360TIP3   OH276570   1.436   2.132   4.987  0.4104  0.2103 -0.0630
18360TIP3    H176571   1.448   2.227   4.980 -1.5037  0.4353 -1.2177
18360TIP3    H276572   1.434   2.102   4.896 -1.6911 -0.5088  0.1745
18361TIP3   OH276573   1.158   2.108   4.181 -0.1348  0.3714  0.1262
18361TIP3    H176574   1.174   2.200   4.204  2.5602  0.0352 -0.0289
18361TIP3    H276575   1.100   2.112   4.105 -1.1024  1.8831  0.9075
18362TIP3   OH276576   0.259   3.816  15.026 -0.7897  0.3479  0.2377
18362TIP3    H176577   0.265   3.728  14.989 -1.1794  0.8311 -1.0192
18362TIP3    H276578   0.166   3.839  15.018 -0.7814  0.6770  1.0395
18363TIP3   OH276579   0.331   2.553  14.400 -0.1443 -0.1958 -0.1386
18363TIP3    H176580   0.358   2.574  14.489  0.4649  1.7891 -0.7450
18363TIP3    H276581   0.413   2.532  14.355 -0.2136  0.7061 -0.6981
18364TIP3   OH276582   0.618   1.115  38.884  0.2336 -0.1231  0.4894
18364TIP3    H176583   0.692   1.119  38.946  0.2401 -1.6205  0.6016
18364TIP3    H276584   0.658   1.097  38.800  0.2933  2.6491 -0.1673
18365TIP3   OH276585   1.346   2.696   3.830 -0.5626 -0.1288  0.2017
18365TIP3    H176586   1.352   2.769   3.768  0.2671  0.2456  0.6899
18365TIP3    H276587   1.402   2.723   3.903  1.3406 -2.0616 -0.4354
18366TIP3   OH276588   2.416   3.822  35.197 -0.2831  0.6392  0.3041
18366TIP3    H176589   2.410   3.809  35.292  0.1535 -0.9022  0.1476
18366TIP3    H276590   2.506   3.797  35.175 -0.8734 -0.6512 -0.7342
18367TIP3   OH276591   0.815   1.189   1.367 -0.2252 -0.0124 -0.1600
18367TIP3    H176592   0.830   1.184   1.461 -0.8353  0.3231 -0.0432
18367TIP3    H276593   0.822   1.098   1.337 -0.0886 -0.1266  0.2164
18368TIP3   OH276594   2.501   0.773  38.687  0.2267  0.1219 -0.2025
18368TIP3    H176595   2.433   0.817  38.736 -1.6207 -1.3975 -1.2601
18368TIP3    H276596   2.563   0.741  38.753  0.4301  2.2683  0.7042
18369TIP3   OH276597   2.280   1.090   0.360 -0.6548 -0.0866 -0.3078
18369TIP3    H176598   2.346   1.052   0.418 -1.8087 -0.1095  1.0280
18369TIP3    H276599   2.299   1.052   0.274  0.3331 -1.0090  0.2958
18370TIP3   OH276600   2.832   1.352  43.280 -0.0850 -0.4683  0.0248
18370TIP3    H176601   2.805   1.267  43.247 -1.0959 -0.6530  1.2411
18370TIP3    H276602   2.887   1.331  43.356  2.1475 -0.0616 -1.3908
18371TIP3   OH276603   2.372   3.968   2.500  0.4957 -0.0683 -0.2213
18371TIP3    H176604   2.341   4.056   2.524 -0.6786 -0.1699 -1.2774
18371TIP3    H276605   2.361   3.964   2.405  3.0024 -0.4532 -0.5557
18372TIP3   OH276606   1.630   1.844  35.576  0.0636 -0.3714 -0.4625
18372TIP3    H176607   1.697   1.901  35.537  1.2971 -1.0865  0.5222
18372TIP3    H276608   1.547   1.879  35.543  0.7155  2.2624  0.4110
18373TIP3   OH276609   3.278   2.055   1.139  0.0392 -0.3458  0.3655
18373TIP3    H176610   3.345   1.996   1.105 -1.1577 -0.2976 -2.2820
18373TIP3    H276611   3.202   1.998   1.153  0.0801 -0.1029  1.6962
18374TIP3   OH276612   2.217   2.537  31.677  0.2182 -0.6437 -0.1353
18374TIP3    H176613   2.282   2.582  31.622 -1.0495  1.8430  0.2524
18374TIP3    H276614   2.266   2.510  31.755  1.2563 -0.9418 -0.8719
18375TIP3   OH276615   3.534   3.870   7.508  0.1252 -0.3264 -0.3430
18375TIP3    H176616   3.469   3.852   7.441  0.8813 -1.0390 -0.8948
18375TIP3    H276617   3.599   3.926   7.465 -0.5695  1.1902  0.4676
18376TIP3   OH276618   3.712   0.333  37.165  0.0333  0.2068  0.8655
18376TIP3    H176619   3.770   0.338  37.241  0.7270  0.7046  0.3051
18376TIP3    H276620   3.767   0.353  37.090 -0.5322 -0.7504  0.1555
18377TIP3   OH276621   0.339   2.797   3.210  0.2633  0.7063 -0.3462
18377TIP3    H176622   0.265   2.857   3.201  0.1100  0.6216  0.2466
18377TIP3    H276623   0.395   2.837   3.277 -0.5816 -0.5018  1.1647
18378TIP3   OH276624   1.332   2.158   4.546 -0.3972  0.4446 -0.2697
18378TIP3    H176625   1.372   2.216   4.482  0.2950 -0.7780 -0.9712
18378TIP3    H276626   1.404   2.105   4.580 -0.8632  0.6191  1.0511
18379TIP3   OH276627   1.747   4.024  47.706  0.1897 -0.1952  0.3339
18379TIP3    H176628   1.751   3.931  47.687 -0.6376  0.2276 -2.3736
18379TIP3    H276629   1.657   4.039  47.735 -0.1281 -0.0312 -0.7089
18380TIP3   OH276630   0.960   0.908  13.611  0.3263  0.1444 -0.3525
18380TIP3    H176631   0.928   0.832  13.562 -0.0760  0.5225 -0.6807
18380TIP3    H276632   1.051   0.917  13.585  0.2411  0.0633 -0.6778
18381TIP3   OH276633   2.100   2.359   1.564 -0.1451 -0.5053  0.1114
18381TIP3    H176634   2.048   2.282   1.587 -1.2559  0.5950  1.4778
18381TIP3    H276635   2.118   2.402   1.648  1.0266  0.3770 -0.5543
18382TIP3   OH276636   1.041   0.254  46.810 -0.4873  0.1529 -0.0908
18382TIP3    H176637   1.114   0.250  46.872  0.5854 -2.1233 -1.3473
18382TIP3    H276638   1.079   0.288  46.729 -0.8797 -0.6187 -0.6227
18383TIP3   OH276639   2.957   2.188  34.121  0.7877  0.7436 -0.0743
18383TIP3    H176640   2.873   2.196  34.165 -0.1588  1.5364 -1.9106
18383TIP3    H276641   2.990   2.278  34.116  1.1456  0.5930 -0.4554
18384TIP3   OH276642   3.889   1.701   6.798 -0.1390  0.0340 -0.0588
18384TIP3    H176643   3.812   1.646   6.809  0.7941 -1.2165  0.4794
18384TIP3    H276644   3.960   1.651   6.838  1.1421  0.6997 -1.4034
18385TIP3   OH276645   3.490   2.159  42.192 -0.3936 -0.1950 -0.0399
18385TIP3    H176646   3.515   2.226  42.129 -1.6399 -1.9297 -2.5497
18385TIP3    H276647   3.500   2.076  42.145 -1.6509 -1.5795  1.9564
18386TIP3   OH276648   3.719   1.739   3.341  0.0010  0.4510  0.3262
18386TIP3    H176649   3.645   1.769   3.290 -0.7713 -2.1898 -0.2904
18386TIP3    H276650   3.682   1.713   3.425  0.3732  0.0816  0.3828
18387TIP3   OH276651   3.526   0.534  13.472 -0.2168 -0.3818 -0.3592
18387TIP3    H176652   3.494   0.594  13.539 -3.0638 -1.4406 -0.5865
18387TIP3    H276653   3.563   0.460  13.521 -2.9868 -1.5166  0.2159
18388TIP3   OH276654   1.979   4.062  45.402  0.4443 -0.5042 -0.2146
18388TIP3    H176655   2.047   3.996  45.391  0.0340 -0.5161 -3.8789
18388TIP3    H276656   1.906   4.015  45.442  1.0895 -1.5708 -0.2646
18389TIP3   OH276657   1.803   3.715  47.732  0.0497  0.3588 -0.1952
18389TIP3    H176658   1.721   3.667  47.750 -1.2676  2.2022 -0.9904
18389TIP3    H276659   1.847   3.718  47.817 -0.3608 -1.2391  0.1199
18390TIP3   OH276660   0.642   0.853  39.026  0.0897  0.1617 -0.3257
18390TIP3    H176661   0.644   0.808  38.942 -0.5579  0.4888 -0.5170
18390TIP3    H276662   0.621   0.944  39.005  2.3890  0.8251 -0.0369
18391TIP3   OH276663   3.588   3.290  33.640  0.1908 -0.3181 -0.3285
18391TIP3    H176664   3.509   3.311  33.590 -0.3668 -0.6815  0.3869
18391TIP3    H276665   3.583   3.196  33.656 -0.2405 -0.0517  1.3729
18392TIP3   OH276666   2.473   1.620  13.823 -0.3082  0.0366 -0.4957
18392TIP3    H176667   2.521   1.573  13.891  2.1673  0.8648 -1.5709
18392TIP3    H276668   2.405   1.559  13.795  1.6215 -2.2093 -0.5517
18393TIP3   OH276669   0.661   1.508   6.708  0.2107  0.1239  0.0250
18393TIP3    H176670   0.704   1.480   6.789  0.7069  1.2870  0.1721
18393TIP3    H276671   0.621   1.592   6.729 -0.9242 -0.2506 -0.5323
18394TIP3   OH276672   2.318   3.258  32.058 -0.2256 -0.2445 -0.0593
18394TIP3    H176673   2.296   3.350  32.069 -0.9349 -0.3069 -0.8099
18394TIP3    H276674   2.395   3.244  32.113 -0.8599  0.4915  1.0411
18395TIP3   OH276675   0.817   3.342  45.745 -0.3364  0.1701  0.0261
18395TIP3    H176676   0.757   3.288  45.694  1.2246 -0.5395 -1.1632
18395TIP3    H276677   0.892   3.285  45.763 -0.1721  0.8709  1.8648
18396TIP3   OH276678   2.513   1.412   1.806  0.3120 -0.0962  0.2472
18396TIP3    H176679   2.567   1.491   1.813 -1.1506  0.7684  3.0992
18396TIP3    H276680   2.429   1.436   1.845 -1.3295 -2.1643 -1.7172
18397TIP3   OH276681   0.090   4.007  10.064 -0.0092  0.1609  0.3713
18397TIP3    H176682   0.158   3.950  10.100  0.0088 -0.0656 -0.0188
18397TIP3    H276683   0.102   4.091  10.109 -0.7937 -0.4741  1.8497
18398TIP3   OH276684   0.610   2.587  46.401 -0.4366 -0.1199  0.5870
18398TIP3    H176685   0.682   2.617  46.346 -0.8175  0.9196  0.6481
18398TIP3    H276686   0.643   2.593  46.490 -0.2229 -0.6952  0.5512
18399TIP3   OH276687   3.439   2.802  33.933  0.0515  0.1574  0.3380
18399TIP3    H176688   3.413   2.752  33.855 -0.3300  0.2338  0.4136
18399TIP3    H276689   3.499   2.744  33.980  1.0852  0.5024 -0.5241
18400TIP3   OH276690   1.031   3.232  26.169  0.1444 -0.4066 -0.1329
18400TIP3    H176691   1.008   3.169  26.101 -1.9296  0.7016 -0.5284
18400TIP3    H276692   0.947   3.265  26.201  1.1026  0.0642  2.0700
18401TIP3   OH276693   0.112   2.730  40.967  0.2629  0.3629 -0.4919
18401TIP3    H176694   0.032   2.719  41.018  1.8071  0.5569  2.1619
18401TIP3    H276695   0.082   2.762  40.882 -2.4410  0.6606  0.4744
18402TIP3   OH276696   1.668   0.749  39.979 -0.3984  0.0396 -0.3793
18402TIP3    H176697   1.700   0.732  39.891 -2.3751 -1.3139 -0.9245
18402TIP3    H276698   1.699   0.836  40.000  0.7638  0.0936 -2.1044
18403TIP3   OH276699   3.238   3.228  33.209  0.3220  0.3280  0.0319
18403TIP3    H176700   3.303   3.188  33.152 -0.1057  1.4238 -1.3106
18403TIP3    H276701   3.161   3.171  33.202  0.6097 -0.0940  0.3277
18404TIP3   OH276702   3.403   2.326   5.200  0.4200  0.5590 -0.1861
18404TIP3    H176703   3.376   2.418   5.196 -1.1340  0.1664  0.3763
18404TIP3    H276704   3.448   2.311   5.118 -1.7370  1.1424 -1.5805
18405TIP3   OH276705   1.698   3.327  30.264 -0.0873 -0.9027 -0.5840
18405TIP3    H176706   1.721   3.260  30.199  1.1383  0.5234 -1.7254
18405TIP3    H276707   1.729   3.409  30.224 -2.1915  0.4528  0.4127
18406TIP3   OH276708   2.785   1.400   1.560 -0.3369  0.3217 -0.1439
18406TIP3    H176709   2.703   1.359   1.587 -0.9019  1.9926  0.7856
18406TIP3    H276710   2.761   1.461   1.490  0.1626  0.6402 -0.0467
18407TIP3   OH276711   2.884   2.349  14.203 -0.5674 -0.2212 -0.1738
18407TIP3    H176712   2.836   2.276  14.243 -0.2565  0.0072  0.6405
18407TIP3    H276713   2.861   2.425  14.258 -1.5430  0.4790 -1.4907
18408TIP3   OH276714   2.744   2.940  37.204  0.4290 -0.1976 -0.2385
18408TIP3    H176715   2.717   2.914  37.292  1.8727 -0.4264  0.1647
18408TIP3    H276716   2.719   2.866  37.149 -3.8428  1.3853 -0.7596
18409TIP3   OH276717   4.080   2.249  38.802 -0.4747  0.1022 -0.2574
18409TIP3    H176718   4.019   2.181  38.833  0.2647 -0.0149  1.0172
18409TIP3    H276719   4.094   2.228  38.710  0.0558 -1.7487  0.2052
18410TIP3   OH276720   0.695   0.996  40.401 -0.1585  0.1857  0.2292
18410TIP3    H176721   0.649   1.053  40.463 -0.4801 -1.2040  1.2996
18410TIP3    H276722   0.772   1.046  40.376 -0.3503  1.0396  1.2579
18411TIP3   OH276723   1.665   2.328  41.416  0.5695 -0.2914  0.1435
18411TIP3    H176724   1.713   2.409  41.396  2.1880 -1.1175  0.5347
18411TIP3    H276725   1.713   2.289  41.489 -1.5704 -0.4552  1.5566
18412TIP3   OH276726   2.801   0.946  45.995 -0.8682 -0.1479  0.0463
18412TIP3    H176727   2.871   0.985  45.943 -0.4870 -0.6772  0.1556
18412TIP3    H276728   2.813   0.984  46.082 -0.5170 -0.4695  0.1439
18413TIP3   OH276729   1.463   2.179  32.741 -0.1837  0.1558 -0.4130
18413TIP3    H176730   1.441   2.087  32.758 -3.3015  0.9532  0.4259
18413TIP3    H276731   1.386   2.228  32.768  1.2832  3.0554 -1.0616
18414TIP3   OH276732   3.245   3.964  33.255  0.8676  0.5251 -0.0324
18414TIP3    H176733   3.305   3.894  33.230  0.7392  1.2797 -2.7995
18414TIP3    H276734   3.159   3.923  33.254  0.9393  0.3754 -0.1255
18415TIP3   OH276735   3.948   0.993  40.848 -0.3334 -0.2684  0.1381
18415TIP3    H176736   3.913   1.001  40.936 -0.8394 -0.4190 -0.0456
18415TIP3    H276737   3.892   1.050  40.795 -0.1278 -0.2944 -0.1097
18416TIP3   OH276738   3.490   1.283   5.438 -0.2309 -0.2873 -0.2947
18416TIP3    H176739   3.547   1.292   5.515 -1.8488 -0.1374  0.9308
18416TIP3    H276740   3.546   1.308   5.364  1.2957 -0.1804  0.8424
18417TIP3   OH276741   0.823   3.203  39.790 -0.3708 -0.1381 -0.0151
18417TIP3    H176742   0.780   3.204  39.875 -0.0488  1.0106  0.1508
18417TIP3    H276743   0.833   3.110  39.769 -1.3413 -0.4251  0.7366
18418TIP3   OH276744   3.930   0.419   0.875  0.0623 -0.1573 -0.2027
18418TIP3    H176745   3.985   0.385   0.805  0.6673 -1.1902  0.7271
18418TIP3    H276746   3.956   0.368   0.952  1.6154  2.9119  1.5118
18419TIP3   OH276747   3.959   1.840  11.345 -0.6861  0.0432 -0.8977
18419TIP3    H176748   4.007   1.894  11.283  0.0501 -0.9336 -1.1994
18419TIP3    H276749   4.014   1.763  11.358 -0.9999  0.0628  0.6947
18420TIP3   OH276750   0.150   1.756  11.980  0.9863 -0.3086  0.8207
18420TIP3    H176751   0.128   1.846  12.004  0.7307  0.0778 -0.7574
18420TIP3    H276752   0.100   1.739  11.901  0.4716 -2.1173  1.4930
18421TIP3   OH276753   2.973   0.599  36.951  0.2342  0.1788  0.1777
18421TIP3    H176754   3.059   0.580  36.915 -0.2638 -0.8777 -0.5228
18421TIP3    H276755   2.924   0.517  36.940 -0.2609  0.1189  2.3844
18422TIP3   OH276756   0.968   2.645  11.782  0.4138  0.2516  0.6612
18422TIP3    H176757   0.998   2.734  11.762  0.7932  0.4492  2.0441
18422TIP3    H276758   1.003   2.626  11.869 -1.6015 -0.3644  1.3871
18423TIP3   OH276759   3.457   1.955  10.410  0.0930 -0.1932 -0.2402
18423TIP3    H176760   3.383   1.910  10.369  0.1178 -1.0616  0.6361
18423TIP3    H276761   3.513   1.980  10.336  0.6351 -2.6004 -0.7508
18424TIP3   OH276762   1.846   1.390  38.838 -0.6258  0.0009 -0.0180
18424TIP3    H176763   1.900   1.466  38.818  1.9473 -1.4131  1.0992
18424TIP3    H276764   1.855   1.377  38.932 -1.9818 -0.9985  0.0148
18425TIP3   OH276765   2.761   2.953   6.847  0.1654 -0.2357  0.2352
18425TIP3    H176766   2.757   2.951   6.752  0.5064  0.5788  0.1980
18425TIP3    H276767   2.854   2.947   6.868  0.0741 -0.7122  0.5306
18426TIP3   OH276768   3.957   3.401  11.146 -0.2089  0.0362  0.3804
18426TIP3    H176769   3.922   3.315  11.122  0.1765 -0.2382  0.8003
18426TIP3    H276770   4.050   3.385  11.161 -0.6562 -0.1185  3.5289
18427TIP3   OH276771   0.626   1.601  18.088 -0.4443 -0.9715 -0.5473
18427TIP3    H176772   0.699   1.588  18.027 -0.3163  1.0173 -0.9087
18427TIP3    H276773   0.653   1.557  18.168  2.2405  1.4540  0.0826
18428TIP3   OH276774   3.959   0.951  14.251 -0.3222  0.5508 -0.0695
18428TIP3    H176775   3.951   0.890  14.178 -0.3411 -0.4166  0.7255
18428TIP3    H276776   3.977   1.036  14.209  0.6303 -0.1554 -1.1443
18429TIP3   OH276777   3.407   0.438  15.678  0.0046 -0.1218 -0.0499
18429TIP3    H176778   3.389   0.372  15.611 -1.0149  1.4636 -1.4125
18429TIP3    H276779   3.321   0.460  15.714  0.0440  2.0279 -1.1846
18430TIP3   OH276780   0.801   3.653  37.649  0.4753  0.1533  0.2871
18430TIP3    H176781   0.865   3.671  37.580  1.8221 -3.7711  0.2667
18430TIP3    H276782   0.854   3.630  37.725 -0.8814 -1.3386  0.8382
18431TIP3   OH276783   0.045   2.265  35.583  0.2153  0.2380 -0.4259
18431TIP3    H176784   0.075   2.184  35.542 -1.0708  0.0176 -0.9571
18431TIP3    H276785   0.018   2.320  35.509 -0.2059  0.6230  0.0134
18432TIP3   OH276786   3.488   3.718  46.863 -0.1841  0.2770 -0.2508
18432TIP3    H176787   3.482   3.650  46.796  0.6103  1.7360 -1.8631
18432TIP3    H276788   3.438   3.791  46.828 -0.3389  0.8316  1.0751
18433TIP3   OH276789   3.808   3.937   4.228 -0.4049  0.3380 -0.0663
18433TIP3    H176790   3.787   4.021   4.187  0.9853  0.8086  0.1098
18433TIP3    H276791   3.888   3.954   4.278  0.0351 -1.1372 -0.1957
18434TIP3   OH276792   2.442   2.401  43.327 -0.1010 -0.4499  0.4603
18434TIP3    H176793   2.377   2.337  43.298  0.8607 -0.8265 -0.9522
18434TIP3    H276794   2.394   2.458  43.386 -1.5120 -1.2137  0.1056
18435TIP3   OH276795   2.598   3.858  35.819  0.1596  0.3773 -0.0497
18435TIP3    H176796   2.518   3.806  35.816 -0.4361  1.1556  1.4484
18435TIP3    H276797   2.594   3.912  35.740 -1.0089  0.7058  0.2232
18436TIP3   OH276798   1.249   0.151   3.223  0.0305 -0.3105  0.1886
18436TIP3    H176799   1.294   0.183   3.301 -0.4640 -1.8040  1.1204
18436TIP3    H276800   1.276   0.211   3.153 -1.1996  2.4672  1.8928
18437TIP3   OH276801   3.945   0.037  35.040  0.4950 -0.5238 -0.0244
18437TIP3    H176802   3.973   0.127  35.022 -0.1456 -0.2678  0.2236
18437TIP3    H276803   3.916   0.040  35.131  0.4770 -0.9914 -0.0152
18438TIP3   OH276804   1.883   0.446  10.955  0.6044 -0.3895 -0.1168
18438TIP3    H176805   1.946   0.514  10.980  0.9866 -1.2969  1.5612
18438TIP3    H276806   1.808   0.461  11.013 -0.1033 -0.2645 -1.0421
18439TIP3   OH276807   0.466   2.501  46.103  0.4364 -0.6435  0.0605
18439TIP3    H176808   0.444   2.488  46.196  0.2239 -0.6816  0.0070
18439TIP3    H276809   0.531   2.572  46.103 -1.5991  1.3479  0.0514
18440TIP3   OH276810   1.872   1.385  43.448 -0.3274 -0.2317 -0.0521
18440TIP3    H176811   1.895   1.367  43.357  0.2563  0.4216 -0.0490
18440TIP3    H276812   1.783   1.421  43.444 -0.3475 -0.3141 -0.3527
18441TIP3   OH276813   3.939   1.714  18.008  0.0757  0.5501  0.2103
18441TIP3    H176814   4.009   1.730  17.945 -0.8400  0.3962 -0.8628
18441TIP3    H276815   3.882   1.791  18.001  0.0453  0.6082  0.9712
18442TIP3   OH276816   0.096   3.760  26.039 -0.4299 -0.7436 -0.0271
18442TIP3    H176817   0.105   3.695  26.109 -3.1151 -1.6040 -0.3373
18442TIP3    H276818   0.001   3.775  26.033 -0.0219  1.8868 -1.1908
18443TIP3   OH276819   0.973   0.435  15.738  0.1334 -0.1345  0.1811
18443TIP3    H176820   0.889   0.391  15.754 -0.5703  0.7877 -0.7896
18443TIP3    H276821   1.036   0.387  15.791 -1.2784  0.1302  2.2191
18444TIP3   OH276822   3.891   0.167   7.842  0.1013  0.0100  0.1401
18444TIP3    H176823   3.862   0.103   7.907 -1.8124 -0.8624 -1.4811
18444TIP3    H276824   3.826   0.237   7.846  0.4810  0.3927 -0.2195
18445TIP3   OH276825   0.593   1.872   3.422  0.3654  0.1034  0.0950
18445TIP3    H176826   0.597   1.903   3.512 -1.3641 -0.7580  0.5058
18445TIP3    H276827   0.526   1.927   3.381  1.6390  0.9829 -0.9056
18446TIP3   OH276828   0.907   3.197  10.458  0.0666 -0.7333 -0.2419
18446TIP3    H176829   0.984   3.142  10.442  0.8403  0.4293 -0.7296
18446TIP3    H276830   0.833   3.137  10.453  0.8193 -1.6208 -1.4309
18447TIP3   OH276831   0.348   2.997  35.251  0.5278 -0.3947 -0.7213
18447TIP3    H176832   0.305   2.948  35.181 -0.1005  1.3936 -1.6728
18447TIP3    H276833   0.439   3.005  35.223  0.3360  0.0892 -1.2341
18448TIP3   OH276834   1.113   1.881   0.856  0.2758  0.2398 -0.0127
18448TIP3    H176835   1.054   1.897   0.782  0.5182  0.2459 -0.2081
18448TIP3    H276836   1.146   1.967   0.879 -0.1098  0.2866  0.3663
18449TIP3   OH276837   3.247   1.578  14.185  0.1154 -0.5689 -0.0408
18449TIP3    H176838   3.152   1.580  14.189  0.1625 -0.0781  2.4932
18449TIP3    H276839   3.275   1.550  14.272  2.3009  0.4342 -0.3270
18450TIP3   OH276840   1.199   0.614  14.756  0.3066  0.1185  0.5499
18450TIP3    H176841   1.205   0.660  14.840 -0.3365  1.7270 -0.2465
18450TIP3    H276842   1.129   0.550  14.770  0.0585  0.5133  1.1897
18451TIP3   OH276843   1.892   0.124   4.971  0.2250 -0.5830 -0.5201
18451TIP3    H176844   1.923   0.036   4.948 -0.3882 -1.1386  0.6770
18451TIP3    H276845   1.920   0.179   4.898  0.5150 -1.7926 -1.3563
18452TIP3   OH276846   0.550   3.195   6.484  0.0847 -0.6171 -0.2435
18452TIP3    H176847   0.511   3.266   6.534 -0.3688  1.3688 -3.2066
18452TIP3    H276848   0.644   3.205   6.497 -0.0376 -0.5708  0.6927
18453TIP3   OH276849   2.891   2.531   0.944 -0.1630  0.0598 -0.1423
18453TIP3    H176850   2.955   2.547   1.013  0.9926 -0.5325 -1.0560
18453TIP3    H276851   2.806   2.539   0.988  0.5085  1.2503  0.9989
18454TIP3   OH276852   3.533   1.177   5.037  0.6572  0.7153  0.0012
18454TIP3    H176853   3.461   1.115   5.030  1.3770 -0.3753  1.7412
18454TIP3    H276854   3.598   1.146   4.974  0.7878  0.0207  0.4750
18455TIP3   OH276855   3.569   2.267  43.206  0.4273 -0.1037 -0.2122
18455TIP3    H176856   3.587   2.319  43.285  0.2864  0.3815 -0.4962
18455TIP3    H276857   3.491   2.217  43.229  0.3830  0.0401 -0.0407
18456TIP3   OH276858   3.297   1.767   2.728  0.5421 -0.4133 -0.2859
18456TIP3    H176859   3.270   1.731   2.643  1.1240  0.8884 -1.0581
18456TIP3    H276860   3.303   1.691   2.786 -0.3619 -1.2660 -1.2747
18457TIP3   OH276861   0.943   2.398  34.134  0.1604 -0.1879  0.1174
18457TIP3    H176862   0.868   2.414  34.077  0.1545 -1.8767 -0.4070
18457TIP3    H276863   0.905   2.370  34.217  0.1942 -0.2030  0.1297
18458TIP3   OH276864   3.149   0.543  41.309  0.2402  0.3345  0.0878
18458TIP3    H176865   3.210   0.570  41.378  3.0055 -1.9409 -1.2666
18458TIP3    H276866   3.151   0.616  41.246  2.8527 -0.2541 -0.6284
18459TIP3   OH276867   1.423   2.531  15.764 -0.1820  0.9481  0.0424
18459TIP3    H176868   1.466   2.554  15.847  0.7412  0.8179 -0.3811
18459TIP3    H276869   1.335   2.567  15.772  0.0312  1.3208  0.9065
18460TIP3   OH276870   2.703   3.354  34.726  0.0836  0.6531 -0.2783
18460TIP3    H176871   2.790   3.347  34.688  0.9349  0.7860  1.5502
18460TIP3    H276872   2.651   3.401  34.659  1.9167  2.3469 -0.6049
18461TIP3   OH276873   0.272   1.136  12.876 -0.1726 -0.1294  0.2126
18461TIP3    H176874   0.332   1.178  12.814 -2.6609  1.8256 -1.0381
18461TIP3    H276875   0.239   1.059  12.830  1.3504 -1.2608  0.9385
18462TIP3   OH276876   3.380   2.563  41.392 -0.3055  0.4933 -0.0631
18462TIP3    H176877   3.339   2.562  41.478 -0.9157 -1.8334 -0.3382
18462TIP3    H276878   3.466   2.602  41.408  0.2271 -1.3086  1.9453
18463TIP3   OH276879   4.083   3.314  40.279  0.2421  0.5444 -0.1628
18463TIP3    H176880   4.113   3.359  40.200  0.6489 -0.7882 -0.8146
18463TIP3    H276881   4.106   3.222  40.263  1.2067  0.3712  1.9018
18464TIP3   OH276882   2.707   1.107   0.229  0.6305 -0.6889 -0.2338
18464TIP3    H176883   2.713   1.203   0.230 -0.2178 -0.5788  2.2344
18464TIP3    H276884   2.658   1.087   0.150 -0.8192  1.0907  0.1436
18465TIP3   OH276885   0.381   2.261  41.422 -0.3464  0.2104  0.5382
18465TIP3    H176886   0.314   2.194  41.434 -0.9550  0.8415  0.6927
18465TIP3    H276887   0.337   2.331  41.373  0.3741  0.3633  0.0832
18466TIP3   OH276888   2.202   3.584   5.804 -0.4535 -0.4262  0.4490
18466TIP3    H176889   2.261   3.599   5.731  1.2390  0.2939  1.8871
18466TIP3    H276890   2.181   3.491   5.799  0.6482 -0.6580 -0.2478
18467TIP3   OH276891   3.857   2.766   9.867 -0.5851 -0.4444  0.3802
18467TIP3    H176892   3.895   2.748   9.953  0.7192 -0.6690 -0.2202
18467TIP3    H276893   3.930   2.756   9.806 -1.4621 -0.1658 -0.7455
18468TIP3   OH276894   1.557   0.236   5.914  0.8892 -0.0108  0.2183
18468TIP3    H176895   1.586   0.326   5.898  1.1516 -0.1502 -0.0940
18468TIP3    H276896   1.467   0.234   5.883  1.1003 -0.0336 -0.4044
18469TIP3   OH276897   1.203   1.571  40.604 -0.4369 -0.0151 -0.1092
18469TIP3    H176898   1.289   1.584  40.643 -1.5356  1.0094  2.1655
18469TIP3    H276899   1.148   1.639  40.644 -2.0931 -0.0305 -2.2029
18470TIP3   OH276900   0.407   0.934  39.933  0.3049  0.7217 -0.5999
18470TIP3    H176901   0.354   0.996  39.883 -1.1834  0.6578  0.8459
18470TIP3    H276902   0.345   0.890  39.991  1.3474 -1.9448 -1.3457
18471TIP3   OH276903   3.238   0.587   1.112 -0.2601 -0.0295  0.4673
18471TIP3    H176904   3.322   0.579   1.067 -0.4280  3.2561 -0.7049
18471TIP3    H276905   3.181   0.524   1.069  0.3939  0.9652 -2.0039
18472TIP3   OH276906   1.590   2.735  34.639 -0.7472  0.4512  0.0201
18472TIP3    H176907   1.570   2.826  34.619 -1.7449  0.5231  1.1978
18472TIP3    H276908   1.533   2.684  34.581 -0.5905  0.5779 -0.2473
18473TIP3   OH276909   1.251   1.264  34.281  0.5716 -0.4379 -0.1992
18473TIP3    H176910   1.295   1.194  34.232 -2.0851 -1.0174 -2.0052
18473TIP3    H276911   1.200   1.218  34.348  2.5811  0.2179  1.9001
18474TIP3   OH276912   2.187   3.983   5.194  0.1580  0.0980  0.2309
18474TIP3    H176913   2.113   3.936   5.155 -0.7460  0.5285  1.3721
18474TIP3    H276914   2.264   3.940   5.158 -0.6244  0.0639 -1.5142
18475TIP3   OH276915   0.580   2.312  38.427  0.7144  0.3868  0.3690
18475TIP3    H176916   0.544   2.229  38.460  1.1650 -1.2086 -2.7913
18475TIP3    H276917   0.504   2.362  38.398  0.5821  0.0588  0.1458
18476TIP3   OH276918   1.047   2.480   9.868 -0.4322 -0.3725  0.3137
18476TIP3    H176919   0.984   2.467   9.798  0.2463  1.3061 -0.6478
18476TIP3    H276920   1.130   2.446   9.833 -0.3309 -0.6182  0.7722
18477TIP3   OH276921   0.531   0.435  40.847 -0.1781 -0.1950  0.0319
18477TIP3    H176922   0.514   0.368  40.913 -1.6606  0.2111  0.0940
18477TIP3    H276923   0.595   0.395  40.788  0.6775 -0.8006  1.3309
18478TIP3   OH276924   2.659   0.722  33.104 -0.4818 -0.0422 -0.0854
18478TIP3    H176925   2.741   0.772  33.116 -1.2002  0.6788  2.7465
18478TIP3    H276926   2.685   0.631  33.117 -0.0884  0.1781  0.7584
18479TIP3   OH276927   2.411   1.182  33.902  0.4415  1.1045 -0.4064
18479TIP3    H176928   2.414   1.093  33.868 -1.2002  0.4967  0.9237
18479TIP3    H276929   2.482   1.186  33.966  0.2730  0.6087 -0.1820
18480TIP3   OH276930   2.856   2.964   1.223 -0.4677  0.7935 -0.1568
18480TIP3    H176931   2.776   2.948   1.174 -0.2305  1.0452 -0.6382
18480TIP3    H276932   2.905   2.882   1.216  0.4724  1.4581 -2.0982
18481TIP3   OH276933   3.141   1.217  43.686  0.7570  0.0811 -0.3332
18481TIP3    H176934   3.148   1.272  43.764 -1.9485  0.9124 -0.5998
18481TIP3    H276935   3.076   1.151  43.709  1.4274 -0.9370 -1.2391
18482TIP3   OH276936   1.260   2.850  39.111 -0.1040  0.3922  0.0297
18482TIP3    H176937   1.356   2.849  39.104 -0.2385 -0.1361 -2.5168
18482TIP3    H276938   1.241   2.789  39.182  1.4014 -0.6511 -0.4117
18483TIP3   OH276939   2.701   0.922  36.470  0.6490  0.5299  0.3584
18483TIP3    H176940   2.775   0.907  36.529 -1.0466  0.1776  2.5542
18483TIP3    H276941   2.737   0.976  36.399  2.9526  0.4623  1.3880
18484TIP3   OH276942   1.940   3.071   8.709 -0.4505 -0.7585  0.1243
18484TIP3    H176943   1.979   3.158   8.699  2.1375 -1.9824 -1.3390
18484TIP3    H276944   1.855   3.077   8.665 -0.5671  1.1421  0.5336
18485TIP3   OH276945   2.680   3.187  37.266 -0.4092 -0.2103 -0.4154
18485TIP3    H176946   2.753   3.176  37.327 -0.4418  0.5985 -0.2292
18485TIP3    H276947   2.666   3.099  37.230  1.3629 -0.1932 -1.2875
18486TIP3   OH276948   2.612   3.201  27.631  0.1234  0.3660 -0.0868
18486TIP3    H176949   2.631   3.259  27.705  0.0234  0.9187 -0.4955
18486TIP3    H276950   2.695   3.156  27.614  0.1237  0.1706  0.4183
18487TIP3   OH276951   3.884   1.215  14.021  0.0015 -0.1299 -0.2372
18487TIP3    H176952   3.857   1.171  13.940 -1.4443 -0.3898  0.3635
18487TIP3    H276953   3.929   1.294  13.992  1.4396 -1.2802 -1.3172
18488TIP3   OH276954   1.595   3.224   7.004 -0.3403 -0.0189  0.2083
18488TIP3    H176955   1.643   3.307   7.002 -0.4903  0.0600 -0.2153
18488TIP3    H276956   1.514   3.244   7.050 -0.1392 -0.0599  0.5832
18489TIP3   OH276957   3.742   1.570  40.774 -0.2335 -0.3126 -0.6074
18489TIP3    H176958   3.830   1.574  40.812 -0.6094 -1.4270  0.4718
18489TIP3    H276959   3.753   1.519  40.694 -0.0925 -1.6671  0.2447
18490TIP3   OH276960   3.078   2.205  39.255 -0.2090  0.0429 -0.2297
18490TIP3    H176961   3.160   2.242  39.287 -0.6552  0.8672 -0.0131
18490TIP3    H276962   3.044   2.156  39.330  1.3733 -2.6041 -1.1205
18491TIP3   OH276963   2.108   3.632  43.936  0.1289  0.2183  0.5216
18491TIP3    H176964   2.094   3.537  43.928 -1.4984  0.5330 -0.8616
18491TIP3    H276965   2.168   3.653  43.864 -0.3111  0.3923  0.2078
18492TIP3   OH276966   0.473   0.595  32.154  0.5991  0.3508  0.2716
18492TIP3    H176967   0.388   0.550  32.151 -0.2767  1.8742  1.0484
18492TIP3    H276968   0.460   0.674  32.102  1.2795  1.0010  1.0638
18493TIP3   OH276969   1.900   1.998   1.192  0.0368 -0.0885 -0.0551
18493TIP3    H176970   1.976   1.984   1.136  0.7302 -0.5198  0.9663
18493TIP3    H276971   1.898   2.093   1.206  1.0225 -0.1721  0.7562
18494TIP3   OH276972   0.450   0.663   1.130  0.5676 -0.0179 -0.4032
18494TIP3    H176973   0.392   0.650   1.054 -1.3209  3.6372  0.1931
18494TIP3    H276974   0.391   0.660   1.205  1.7788  0.2840  0.5735
18495TIP3   OH276975   1.349   3.553  34.809  0.1355  0.1108 -0.1625
18495TIP3    H176976   1.350   3.480  34.748  0.8344  1.6818 -2.1480
18495TIP3    H276977   1.425   3.538  34.866 -1.2289 -2.0218  1.2677
18496TIP3   OH276978   3.776   2.448   4.157  0.0055 -0.2073  0.5609
18496TIP3    H176979   3.766   2.363   4.116  0.8881  0.7015 -1.6705
18496TIP3    H276980   3.869   2.455   4.177 -0.3501 -0.5098  2.6009
18497TIP3   OH276981   1.606   3.377  34.403  0.2421  0.1701  0.0399
18497TIP3    H176982   1.528   3.392  34.457 -0.5410  0.7289 -1.1900
18497TIP3    H276983   1.679   3.404  34.458 -0.5129  0.5289  0.8935
18498TIP3   OH276984   0.692   1.614  32.005 -0.6536 -0.3920  0.6255
18498TIP3    H176985   0.657   1.526  31.992 -0.8484 -0.1987 -0.2710
18498TIP3    H276986   0.746   1.629  31.928  0.2399 -0.1245  1.2910
18499TIP3   OH276987   2.836   2.991   8.702 -0.3075  0.1297  0.1937
18499TIP3    H176988   2.790   3.044   8.637  0.8375  1.5086  0.4515
18499TIP3    H276989   2.890   3.054   8.751  1.6346 -1.3371  0.0784
18500TIP3   OH276990   0.493   1.784   0.953 -0.0444  0.5216  0.3109
18500TIP3    H176991   0.517   1.813   0.865  1.9888 -0.9949  0.3017
18500TIP3    H276992   0.511   1.860   1.009 -1.2556  1.4652 -0.5178
18501TIP3   OH276993   3.975   3.341  31.752 -0.3451 -0.1093 -0.1241
18501TIP3    H176994   3.921   3.267  31.724  2.0476 -1.4173 -1.5113
18501TIP3    H276995   3.987   3.328  31.846 -2.8710  0.5741  0.3691
18502TIP3   OH276996   3.469   3.557  47.384  0.1486 -0.0220  0.4076
18502TIP3    H176997   3.544   3.612  47.361 -0.6559  1.0725  0.3678
18502TIP3    H276998   3.410   3.565  47.309 -0.0249 -0.8770  0.4411
18503TIP3   OH276999   3.914   0.522   6.042 -0.2280 -0.1470 -0.0632
18503TIP3    H177000   3.843   0.585   6.032 -0.8636 -0.7565  0.4454
18503TIP3    H277001   3.898   0.482   6.128  1.8320  1.0425  0.9437
18504TIP3   OH277002   2.235   0.470  43.286  0.1923  0.4645  0.7595
18504TIP3    H177003   2.286   0.514  43.355 -0.1816  1.0513  0.6700
18504TIP3    H277004   2.299   0.449  43.218  0.2359  1.8145  0.3422
18505TIP3   OH277005   2.612   2.663  10.702 -0.0603  0.0960 -0.1249
18505TIP3    H177006   2.653   2.738  10.744 -0.5023  1.4779 -2.0080
18505TIP3    H277007   2.673   2.639  10.631 -0.7190 -0.2274 -0.5926
18506TIP3   OH277008   3.292   1.884   5.973 -0.0409 -0.1868 -0.1574
18506TIP3    H177009   3.264   1.934   6.050  1.4533 -0.2225  0.4458
18506TIP3    H277010   3.213   1.840   5.943 -0.9637  0.9697  0.4902
18507TIP3   OH277011   1.247   0.836  14.078 -1.3072 -0.1772  0.4926
18507TIP3    H177012   1.181   0.767  14.072  1.0871 -2.4521 -2.0925
18507TIP3    H277013   1.314   0.812  14.015  1.7309  2.3415  2.4228
18508TIP3   OH277014   3.825   1.963   8.759  0.3844 -0.6168 -0.0615
18508TIP3    H177015   3.735   1.954   8.726  0.5273  0.4194 -0.7807
18508TIP3    H277016   3.833   1.894   8.825 -1.7455  0.7148  1.7303
18509TIP3   OH277017   2.430   3.961   8.575 -0.0602 -0.1698  0.0198
18509TIP3    H177018   2.523   3.971   8.591  0.0388 -0.8084 -0.1133
18509TIP3    H277019   2.400   3.902   8.644 -0.6411  1.0741  0.8731
18510TIP3   OH277020   3.612   2.536  13.647 -0.2993  0.2891  0.4095
18510TIP3    H177021   3.616   2.520  13.742 -0.3814  0.5043  0.4491
18510TIP3    H277022   3.674   2.473  13.610  0.1708  0.5972  0.6557
18511TIP3   OH277023   4.032   0.471  43.213 -0.9298 -0.8924  0.4324
18511TIP3    H177024   4.098   0.423  43.163 -0.3473  1.8343 -1.6198
18511TIP3    H277025   4.075   0.491  43.296  0.4561 -0.1110 -0.4416
18512TIP3   OH277026   0.694   3.519  40.817 -0.0868  0.7542  0.2690
18512TIP3    H177027   0.678   3.556  40.904 -0.6785  2.3672 -0.4913
18512TIP3    H277028   0.709   3.595  40.761 -3.1271  0.0351 -1.7617
18513TIP3   OH277029   0.250   0.177  41.141  0.0167  0.6207 -0.2036
18513TIP3    H177030   0.186   0.141  41.078 -1.4928  2.1414  0.3792
18513TIP3    H277031   0.238   0.124  41.220  2.1432 -1.5078 -1.1885
18514TIP3   OH277032   1.710   2.814  32.438 -0.4960  0.3884 -0.3971
18514TIP3    H177033   1.661   2.897  32.439  2.4488  2.3457 -2.3147
18514TIP3    H277034   1.785   2.830  32.495  0.1045 -0.9836 -0.7702
18515TIP3   OH277035   2.284   2.382   1.962  0.2794  0.6658 -0.4190
18515TIP3    H177036   2.337   2.356   1.887  1.6904 -2.2708  1.4189
18515TIP3    H277037   2.332   2.348   2.038 -2.8135  0.3587  1.5541
18516TIP3   OH277038   0.356   0.565   9.594  0.1892 -0.3297  0.3481
18516TIP3    H177039   0.320   0.641   9.640 -0.4731 -1.0711  1.0872
18516TIP3    H277040   0.346   0.493   9.656 -1.0457 -1.4355 -1.0610
18517TIP3   OH277041   0.941   2.522  36.285 -0.3258 -0.2730  0.2855
18517TIP3    H177042   0.863   2.492  36.237  0.5259 -2.5848  0.1932
18517TIP3    H277043   1.008   2.457  36.262  1.2793  0.9622  1.3386
18518TIP3   OH277044   1.408   1.375  45.922 -0.6132  0.1911 -0.4577
18518TIP3    H177045   1.461   1.455  45.918 -0.1741 -0.0780 -0.1241
18518TIP3    H277046   1.463   1.308  45.881 -0.0396 -0.4381  1.2509
18519TIP3   OH277047   0.654   1.133  31.289  0.3302  0.2146 -0.2473
18519TIP3    H177048   0.598   1.067  31.249  0.8018 -0.1941 -0.2550
18519TIP3    H277049   0.655   1.110  31.382  0.9973 -0.1810 -0.3428
18520TIP3   OH277050   2.690   0.389  30.997  0.8186 -0.5087 -0.6848
18520TIP3    H177051   2.653   0.406  30.910  0.3804  1.0730 -0.2371
18520TIP3    H277052   2.654   0.305  31.022 -1.9852  0.5978 -0.5998
18521TIP3   OH277053   2.418   2.060  43.512 -0.1826 -0.4284  0.4840
18521TIP3    H177054   2.376   1.977  43.535  0.1544 -0.3201  1.5538
18521TIP3    H277055   2.502   2.034  43.474 -0.5041 -0.5967 -0.1265
18522TIP3   OH277056   1.221   2.351  14.605  0.0923 -0.2628  0.2927
18522TIP3    H177057   1.279   2.390  14.540  2.2636  1.1055  2.8806
18522TIP3    H277058   1.187   2.425  14.655  0.1673 -1.3503  2.0496
18523TIP3   OH277059   1.326   2.439  33.629 -0.0537 -0.2740 -0.0673
18523TIP3    H177060   1.248   2.479  33.592 -0.3992 -0.2217  0.6992
18523TIP3    H277061   1.398   2.471  33.575 -0.7294 -1.9714 -2.1336
18524TIP3   OH277062   2.000   4.045   0.096  0.0637 -0.7018  0.2318
18524TIP3    H177063   1.913   4.038   0.058  0.3370 -0.2215 -0.5032
18524TIP3    H277064   1.990   4.108   0.168 -0.5676 -2.0140  1.3290
18525TIP3   OH277065   2.059   2.757  31.177  0.6599 -0.0415 -0.5348
18525TIP3    H177066   2.064   2.678  31.123  1.0292 -0.2970 -0.1354
18525TIP3    H277067   1.976   2.749  31.223  0.8784 -0.4008 -0.1932
18526TIP3   OH277068   0.238   4.098   8.147  0.2245 -0.5085  0.1131
18526TIP3    H177069   0.232   4.023   8.088  1.7984 -2.2396  1.9984
18526TIP3    H277070   0.162   4.089   8.205  0.9144 -1.2391  0.9317
18527TIP3   OH277071   1.956   3.827  33.234 -0.2389 -0.7092 -0.5762
18527TIP3    H177072   1.905   3.906  33.217 -1.2154 -1.2640 -0.3377
18527TIP3    H277073   2.047   3.856  33.236 -0.6943  0.7453  1.3993
18528TIP3   OH277074   0.532   1.662  46.443  0.4915  1.0007  0.1429
18528TIP3    H177075   0.522   1.710  46.526 -0.2741  0.9345  0.0940
18528TIP3    H277076   0.515   1.571  46.467 -0.7479  1.1113 -0.2730
18529TIP3   OH277077   1.774   0.957  14.652 -0.0459 -0.3100 -0.5035
18529TIP3    H177078   1.705   1.019  14.629  1.0390  0.2408 -2.5379
18529TIP3    H277079   1.828   1.002  14.717 -0.5786 -0.0551 -0.2354
18530TIP3   OH277080   0.118   1.763  34.864  0.0811  0.2305  0.4281
18530TIP3    H177081   0.211   1.741  34.853  0.0742  0.5564 -0.3483
18530TIP3    H277082   0.088   1.705  34.934  0.5998 -0.6721 -0.0685
18531TIP3   OH277083   3.591   0.428  14.383 -0.6213 -0.2966  0.3707
18531TIP3    H177084   3.503   0.431  14.346  0.3225  1.1477 -1.9766
18531TIP3    H277085   3.594   0.502  14.444 -0.8033  0.1725 -0.1775
18532TIP3   OH277086   2.718   0.499  46.181 -0.1229 -0.1027 -0.1009
18532TIP3    H177087   2.788   0.482  46.244  1.3427  1.2256 -1.3039
18532TIP3    H277088   2.703   0.415  46.138  1.2711 -0.2428 -0.3427
18533TIP3   OH277089   3.531   1.720   9.625 -0.2767 -0.5347  0.5533
18533TIP3    H177090   3.494   1.655   9.685 -0.3713  0.2207  1.3252
18533TIP3    H277091   3.523   1.803   9.671  0.0218  0.0063 -0.3472
18534TIP3   OH277092   0.225   0.930   0.584 -0.4258 -0.2436  0.1409
18534TIP3    H177093   0.318   0.953   0.585 -0.1916 -1.1552  0.7305
18534TIP3    H277094   0.181   1.007   0.621  0.2298 -0.3215  1.1204
18535TIP3   OH277095   1.241   2.552  21.477  0.5363  0.4224 -0.0433
18535TIP3    H177096   1.333   2.577  21.466  0.9183  0.4163  2.4935
18535TIP3    H277097   1.243   2.478  21.538 -1.1500  0.3783  0.0137
18536TIP3   OH277098   2.786   3.334  28.790 -0.0223 -0.3043 -0.1212
18536TIP3    H177099   2.722   3.318  28.721 -1.1284 -2.6195  1.3040
18536TIP3    H277100   2.747   3.294  28.868  1.6686  1.2268  1.6071
18537TIP3   OH277101   1.228   2.723  10.799 -0.6192  0.3410 -0.2654
18537TIP3    H177102   1.189   2.783  10.736  0.9341  0.4783 -1.1294
18537TIP3    H277103   1.249   2.645  10.749  1.5471  0.8202 -0.2082
18538TIP3   OH277104   0.590   0.436  35.267 -0.4807 -0.3019 -0.1374
18538TIP3    H177105   0.538   0.452  35.346  0.7061 -2.9242  1.3028
18538TIP3    H277106   0.681   0.435  35.297 -0.0530 -2.3739 -1.2492
18539TIP3   OH277107   3.714   2.324  20.667 -0.4739  0.3477 -0.2609
18539TIP3    H177108   3.733   2.279  20.585 -1.0846 -2.5337  1.0752
18539TIP3    H277109   3.797   2.366  20.690  0.9420 -2.1550 -0.4016
18540TIP3   OH277110   0.952   0.571  41.983 -0.2360  0.9897  0.1055
18540TIP3    H177111   0.964   0.603  41.893  0.4137 -0.3947 -0.3458
18540TIP3    H277112   0.924   0.480  41.971 -2.8248  1.5606  1.2974
18541TIP3   OH277113   3.494   3.858  30.257 -0.2619  0.5113 -0.1000
18541TIP3    H177114   3.426   3.916  30.222 -0.6629  0.0286 -0.1316
18541TIP3    H277115   3.575   3.909  30.252 -0.4547  0.7457 -0.9619
18542TIP3   OH277116   1.067   1.376  41.477  0.4554  0.0613  0.3884
18542TIP3    H177117   1.115   1.341  41.402  1.5994  0.4559  0.9121
18542TIP3    H277118   1.049   1.467  41.454 -0.4382 -0.2043  0.0135
18543TIP3   OH277119   2.485   0.474  13.519 -0.3268  0.2189  0.0049
18543TIP3    H177120   2.407   0.479  13.464 -0.9757  1.6403  0.9965
18543TIP3    H277121   2.485   0.555  13.569  1.2514 -0.2022  0.7680
18544TIP3   OH277122   0.842   2.738   5.842  0.0540  0.3784 -0.2192
18544TIP3    H177123   0.804   2.810   5.792 -0.0498  1.0405  0.7869
18544TIP3    H277124   0.773   2.714   5.904 -0.3898 -1.4216 -1.3311
18545TIP3   OH277125   1.339   2.094   3.569  0.6035 -0.3642 -0.4163
18545TIP3    H177126   1.431   2.092   3.595  1.3986  1.6818 -2.7885
18545TIP3    H277127   1.308   2.181   3.595 -0.7414 -1.0624  0.4483
18546TIP3   OH277128   1.017   0.133  42.576 -0.6169  0.4384  0.9597
18546TIP3    H177129   1.009   0.225  42.549 -0.8068  0.6270  1.6533
18546TIP3    H277130   1.105   0.108  42.547 -1.1387  0.3482 -0.6629
18547TIP3   OH277131   4.040   3.560   1.221 -0.2168  0.1395 -0.3907
18547TIP3    H177132   3.956   3.608   1.227  0.8599  2.1719 -0.5457
18547TIP3    H277133   4.034   3.492   1.288 -1.5534  0.9803  0.3884
18548TIP3   OH277134   0.100   3.648   5.469 -0.3822 -0.1969  0.5059
18548TIP3    H177135   0.144   3.650   5.554 -1.1715  2.8851  0.9751
18548TIP3    H277136   0.136   3.571   5.425  2.3086 -0.1977  2.4608
18549TIP3   OH277137   2.380   0.457  15.243  0.3223 -0.3273  0.4309
18549TIP3    H177138   2.372   0.382  15.185  0.3104 -1.4275  1.8222
18549TIP3    H277139   2.392   0.420  15.330 -0.9154  1.2631  1.3453
18550TIP3   OH277140   3.810   1.321  33.322  0.2450  0.0885  0.1223
18550TIP3    H177141   3.718   1.314  33.296  0.3521  1.8732 -0.9272
18550TIP3    H277142   3.858   1.296  33.243  0.7542 -2.4569  1.1435
18551TIP3   OH277143   2.583   0.155  45.756  0.1768 -0.0934 -0.5768
18551TIP3    H177144   2.629   0.168  45.839 -0.3612 -1.0581 -0.1097
18551TIP3    H277145   2.530   0.233  45.745 -1.5033 -0.9184  1.1704
18552TIP3   OH277146   3.234   3.409  28.741  0.1785  0.1456 -0.1380
18552TIP3    H177147   3.253   3.352  28.667  0.1585 -0.5715  0.3963
18552TIP3    H277148   3.315   3.407  28.794  0.4898  1.2924 -0.5388
18553TIP3   OH277149   3.805   2.622   8.976 -0.2848  0.7206  0.2153
18553TIP3    H177150   3.789   2.547   8.917 -0.3361  0.1207  0.9747
18553TIP3    H277151   3.889   2.657   8.947 -0.3887  0.5405 -0.3292
18554TIP3   OH277152   0.201   2.600   0.730 -0.0822  0.2116  0.0530
18554TIP3    H177153   0.233   2.684   0.698 -0.1042 -0.3730 -1.6313
18554TIP3    H277154   0.276   2.561   0.775 -0.8166  2.2060  3.2792
18555TIP3   OH277155   2.583   2.566   2.084  0.2080 -0.2750  0.7509
18555TIP3    H177156   2.527   2.584   2.160  0.4004 -0.8265  1.0290
18555TIP3    H277157   2.623   2.481   2.103  0.1585 -0.4837 -0.0305
18556TIP3   OH277158   1.130   1.485  13.670 -0.1037  0.4773 -0.5178
18556TIP3    H177159   1.093   1.565  13.634 -0.9658  0.4032  0.1864
18556TIP3    H277160   1.225   1.497  13.662 -0.2398  0.7957 -2.0544
18557TIP3   OH277161   0.929   0.726  32.875  0.1180  0.2435  0.3046
18557TIP3    H177162   0.925   0.814  32.912  0.2224  0.0527  0.7783
18557TIP3    H277163   0.915   0.739  32.781 -0.3284  0.7178  0.4293
18558TIP3   OH277164   4.057   0.515  38.769  0.0198  0.2610  0.5877
18558TIP3    H177165   4.012   0.578  38.826 -2.4727 -0.4982 -0.4191
18558TIP3    H277166   4.079   0.442  38.827 -0.7903  0.3042  0.9710
18559TIP3   OH277167   0.663   3.594  33.297 -0.2847  0.2861 -0.2858
18559TIP3    H177168   0.659   3.689  33.311  1.8282  0.3225  0.4693
18559TIP3    H277169   0.642   3.582  33.204 -2.2642  1.2823 -0.0275
18560TIP3   OH277170   1.873   2.884   0.820 -0.3642 -0.0958  0.0876
18560TIP3    H177171   1.920   2.927   0.891 -0.1550 -0.8869  0.4438
18560TIP3    H277172   1.799   2.943   0.800  0.5419  0.9660 -0.2188
18561TIP3   OH277173   3.364   3.102  10.473  0.0526 -0.0091 -0.6433
18561TIP3    H177174   3.328   3.167  10.534 -0.1209 -0.6341 -0.0631
18561TIP3    H277175   3.289   3.047  10.450  0.0603  0.3703 -1.6375
18562TIP3   OH277176   3.597   1.345  11.303  0.4572 -0.2871  0.3148
18562TIP3    H177177   3.607   1.328  11.397 -0.2354 -0.4477  0.3627
18562TIP3    H277178   3.515   1.302  11.280 -1.0456  2.3701  0.2875
18563TIP3   OH277179   3.720   2.592  47.305 -0.0483 -0.0482  0.1160
18563TIP3    H177180   3.780   2.523  47.332 -0.1533 -0.6136 -1.0586
18563TIP3    H277181   3.690   2.631  47.388  0.8562 -0.6681  0.7546
18564TIP3   OH277182   3.885   2.463  31.567  0.4159 -0.5328 -0.1042
18564TIP3    H177183   3.855   2.394  31.508  0.6953 -0.7053 -0.0435
18564TIP3    H277184   3.896   2.420  31.652 -1.3555 -0.0044  0.4475
18565TIP3   OH277185   0.160   0.026  44.271  0.5032  0.2879 -0.6752
18565TIP3    H177186   0.149  -0.049  44.330 -0.6029 -0.1567 -1.4108
18565TIP3    H277187   0.177   0.100  44.329 -1.3671  0.0233  0.2978
18566TIP3   OH277188   3.697   1.647   0.316 -0.0368  0.0059 -0.0406
18566TIP3    H177189   3.629   1.591   0.280 -1.1907  1.4599 -0.2384
18566TIP3    H277190   3.763   1.587   0.350 -1.3759 -1.4524  0.0639
18567TIP3   OH277191   0.637   0.706  13.104 -0.3259 -0.2635 -0.3570
18567TIP3    H177192   0.547   0.704  13.072 -0.3368 -0.8265 -0.2993
18567TIP3    H277193   0.691   0.702  13.025 -0.3507  0.1469 -0.3954
18568TIP3   OH277194   0.199   4.024  12.711  1.2523 -0.3510 -0.3851
18568TIP3    H177195   0.135   4.002  12.643  0.0064 -4.3098  1.7836
18568TIP3    H277196   0.187   4.118  12.726 -0.7256 -0.0127 -3.2713
18569TIP3   OH277197   0.103   3.328  38.425 -0.8909 -0.4441  0.4721
18569TIP3    H177198   0.140   3.271  38.358  0.7094  1.6276 -0.5561
18569TIP3    H277199   0.170   3.330  38.494 -0.9324  0.1263  0.5038
18570TIP3   OH277200   0.324   1.572  10.331  0.5723 -0.2900 -0.1683
18570TIP3    H177201   0.278   1.650  10.363  1.5077 -0.0133  0.5524
18570TIP3    H277202   0.339   1.589  10.238 -0.4297 -0.2254 -0.3305
18571TIP3   OH277203   1.854   2.313  44.592  0.0170  0.6636 -0.5619
18571TIP3    H177204   1.909   2.253  44.643 -0.9698 -2.6104 -2.9531
18571TIP3    H277205   1.911   2.341  44.520 -0.7034 -1.1391 -1.9255
18572TIP3   OH277206   0.974   2.031  20.837 -0.2737  0.3148 -0.3455
18572TIP3    H177207   0.903   2.002  20.894  2.9539 -1.1656  3.4131
18572TIP3    H277208   0.996   1.953  20.785 -1.0857  0.6804 -1.2762
18573TIP3   OH277209   1.596   1.595   9.803  0.2888  0.4871 -0.1459
18573TIP3    H177210   1.545   1.531   9.852  1.3470 -0.6889 -0.5211
18573TIP3    H277211   1.544   1.675   9.805 -0.8626 -0.2658  0.7068
18574TIP3   OH277212   1.902   3.631   7.386 -0.1824  0.3470 -0.2107
18574TIP3    H177213   1.867   3.666   7.304  1.0505 -2.4806 -2.1068
18574TIP3    H277214   1.843   3.559   7.409  0.2703  0.2266  0.6324
18575TIP3   OH277215   3.613   1.747  14.268  0.4895 -0.5643  0.5260
18575TIP3    H177216   3.642   1.831  14.302 -0.9569  0.4987 -0.7480
18575TIP3    H277217   3.630   1.685  14.339  2.3821  0.6197  1.1701
18576TIP3   OH277218   0.648   1.921  10.567 -0.0186 -0.1325  0.4851
18576TIP3    H177219   0.578   1.930  10.502  1.6234  0.4315 -1.2981
18576TIP3    H277220   0.658   2.008  10.605  1.7687  0.6471 -1.5732
18577TIP3   OH277221   1.790   3.045  32.845  0.1297  0.1081 -0.3285
18577TIP3    H177222   1.779   2.999  32.928 -0.2219 -1.6556 -1.3012
18577TIP3    H277223   1.712   3.099  32.836  0.2411  0.4224  0.5364
18578TIP3   OH277224   2.224   0.321  11.686 -0.2364 -0.1451  0.4214
18578TIP3    H177225   2.137   0.300  11.652 -0.6970  2.7641 -0.4967
18578TIP3    H277226   2.207   0.377  11.761  0.8101  0.9706 -0.1445
18579TIP3   OH277227   2.281   0.925   6.527 -0.4123  0.5911 -0.4364
18579TIP3    H177228   2.221   0.999   6.526  1.3134  2.1431  1.1672
18579TIP3    H277229   2.353   0.951   6.469  1.7000  1.6893  2.4080
18580TIP3   OH277230   1.715   0.984  38.045 -0.0103  0.3212 -0.3173
18580TIP3    H177231   1.626   0.951  38.057 -0.8245  2.9153  1.5857
18580TIP3    H277232   1.726   0.987  37.950 -2.2233  0.5443 -0.6350
18581TIP3   OH277233   2.767   2.213  41.977  0.2932 -0.1282  0.2731
18581TIP3    H177234   2.857   2.226  41.948 -0.1974  0.9484 -0.8676
18581TIP3    H277235   2.770   2.134  42.031  1.6038 -1.1023 -1.1549
18582TIP3   OH277236   3.020   2.098  38.487 -0.6829 -0.2320  0.2238
18582TIP3    H177237   3.042   2.131  38.574  1.5854 -1.0637  0.0418
18582TIP3    H277238   3.068   2.155  38.427 -0.4107 -1.0437 -0.3429
18583TIP3   OH277239   3.316   1.461   9.928  0.2506  0.1458  0.2331
18583TIP3    H177240   3.302   1.376   9.886  0.0352  0.8352 -1.1501
18583TIP3    H277241   3.306   1.443  10.022  1.5099 -1.5955  0.0804
18584TIP3   OH277242   0.754   3.471  29.068 -0.2897  0.5029 -0.2201
18584TIP3    H177243   0.686   3.516  29.017 -0.3070  0.4877 -0.2101
18584TIP3    H277244   0.725   3.480  29.159 -0.1765  0.6723 -0.1986
18585TIP3   OH277245   1.167   1.154  11.817  0.2724 -0.2313 -0.1152
18585TIP3    H177246   1.115   1.216  11.766 -0.5312 -0.8411 -0.0705
18585TIP3    H277247   1.110   1.130  11.890  0.9721 -0.2401  0.4412
18586TIP3   OH277248   3.262   2.689  37.567  0.2765 -0.6907  0.4497
18586TIP3    H177249   3.298   2.623  37.508  1.0364  1.9373 -2.3002
18586TIP3    H277250   3.187   2.725  37.519 -1.1276 -0.6096  2.5869
18587TIP3   OH277251   3.057   3.422  26.279 -0.3807  0.4589  0.1423
18587TIP3    H177252   2.969   3.390  26.261 -0.7492  1.9449 -0.9033
18587TIP3    H277253   3.056   3.448  26.371 -0.4024 -1.3617  0.6951
18588TIP3   OH277254   2.104   3.218   6.426  1.0437  0.1676  0.3584
18588TIP3    H177255   2.043   3.291   6.423  0.7130 -0.1338 -0.9179
18588TIP3    H277256   2.087   3.175   6.509  1.8936  2.0657  1.5885
18589TIP3   OH277257   3.158   2.708  34.103 -0.2757 -0.2364 -1.0430
18589TIP3    H177258   3.158   2.736  34.195 -0.1635 -0.3286 -1.0158
18589TIP3    H277259   3.137   2.787  34.054 -0.3651 -0.1927 -0.9362
18590TIP3   OH277260   3.413   3.517  11.401 -0.6029  0.0658  0.1848
18590TIP3    H177261   3.335   3.572  11.407 -1.2566 -0.8839  0.6858
18590TIP3    H277262   3.382   3.430  11.427  0.3943 -0.5461 -0.6273
18591TIP3   OH277263   1.487   1.648  11.405  0.3241 -0.2991  0.1573
18591TIP3    H177264   1.431   1.579  11.371  1.7582 -0.6170 -1.7521
18591TIP3    H277265   1.564   1.647  11.348  2.0436  0.4779  2.2925
18592TIP3   OH277266   1.956   3.914  33.895 -0.0881  0.1542 -0.4181
18592TIP3    H177267   1.942   4.006  33.916  0.4454  0.2932 -0.6572
18592TIP3    H277268   1.930   3.867  33.974  3.2481  0.7255  1.1961
18593TIP3   OH277269   0.223   3.396  41.854  0.4015  0.3369 -0.1464
18593TIP3    H177270   0.147   3.428  41.903  1.3702  1.5228  0.6533
18593TIP3    H277271   0.297   3.415  41.911  1.1785 -2.4677 -0.0637
18594TIP3   OH277272   3.745   0.140  37.564 -0.5173  0.0860  0.0145
18594TIP3    H177273   3.718   0.056  37.600 -1.7130  0.3250 -0.2977
18594TIP3    H277274   3.830   0.157  37.605 -0.8483 -0.6648  1.0538
18595TIP3   OH277275   0.481   2.754  45.099 -0.0354 -0.0563 -0.1650
18595TIP3    H177276   0.468   2.670  45.144 -1.3209 -0.8167 -1.8388
18595TIP3    H277277   0.392   2.786  45.083  0.3928  0.4358 -1.6425
18596TIP3   OH277278   2.942   2.494  12.545 -0.6152  1.0821  0.3207
18596TIP3    H177279   3.014   2.476  12.484 -0.2672  1.9370  0.4599
18596TIP3    H277280   2.931   2.412  12.593  1.5568  1.4469  1.6044
18597TIP3   OH277281   1.303   0.464  44.010 -0.3650  0.2414 -0.0795
18597TIP3    H177282   1.246   0.528  43.967 -0.7508  0.8703  1.3237
18597TIP3    H277283   1.243   0.394  44.036 -0.0315 -0.4465 -1.0942
18598TIP3   OH277284   0.625   2.470  14.351  0.1711 -0.6609 -0.7033
18598TIP3    H177285   0.580   2.389  14.327 -0.4518 -0.7861  0.7609
18598TIP3    H277286   0.716   2.456  14.326 -0.3810 -0.8194 -2.7402
18599TIP3   OH277287   0.262   3.258  38.644  0.5584 -0.5498 -0.2483
18599TIP3    H177288   0.252   3.310  38.724  1.0558  0.6947 -0.9594
18599TIP3    H277289   0.275   3.168  38.675 -0.4179 -0.2846  1.0240
18600TIP3   OH277290   0.125   1.237   4.585 -0.0628 -0.0412  0.0832
18600TIP3    H177291   0.199   1.223   4.644  0.6410 -0.5990 -0.9022
18600TIP3    H277292   0.123   1.159   4.530 -1.2787  0.0549 -0.0399
18601TIP3   OH277293   2.383   2.498  35.653 -0.2596  0.0988  0.8454
18601TIP3    H177294   2.434   2.538  35.723 -0.2052  0.1351  0.7852
18601TIP3    H277295   2.301   2.549  35.652 -0.7372 -0.6240  1.6363
18602TIP3   OH277296   2.511   0.211  29.305  1.1181 -0.2553 -0.7770
18602TIP3    H177297   2.482   0.148  29.371  0.9048  0.7374  0.0947
18602TIP3    H277298   2.478   0.176  29.222  0.5856 -1.0310 -0.2499
18603TIP3   OH277299   0.993   3.820  43.016 -0.0537  0.8717 -0.6055
18603TIP3    H177300   0.908   3.809  43.059 -1.1445 -0.0713 -2.8409
18603TIP3    H277301   1.048   3.863  43.082 -2.0130  0.7969  1.1778
18604TIP3   OH277302   3.381   3.684   4.886  0.0523 -0.1511  0.1243
18604TIP3    H177303   3.359   3.773   4.858 -0.9969  0.0273  1.4211
18604TIP3    H277304   3.368   3.684   4.980  1.1359 -1.3895  0.2978
18605TIP3   OH277305   0.434   3.708   8.025  0.2014  0.0010 -0.1188
18605TIP3    H177306   0.526   3.722   8.007  0.6895 -2.7714 -0.2679
18605TIP3    H277307   0.422   3.739   8.115  1.5454 -0.4732  0.2493
18606TIP3   OH277308   2.936   2.632  41.380 -0.5130  0.2186  0.6601
18606TIP3    H177309   2.895   2.547  41.363  0.1631  0.2567 -1.4602
18606TIP3    H277310   2.881   2.695  41.334 -0.0317  0.7055  0.7380
18607TIP3   OH277311   0.009   3.097  37.581 -0.1347 -0.0480  0.1127
18607TIP3    H177312   0.043   3.129  37.664  1.2438 -1.0608 -0.0211
18607TIP3    H277313   0.084   3.100  37.522 -0.3281 -2.0918 -0.2916
18608TIP3   OH277314   2.705   2.607  39.931  0.8886  0.1976  0.3590
18608TIP3    H177315   2.648   2.606  39.854  0.2549 -0.3016  0.8310
18608TIP3    H277316   2.785   2.563  39.902  1.3334  1.5164 -0.5075
18609TIP3   OH277317   0.175   0.952  38.485  0.4114 -0.2542  0.0278
18609TIP3    H177318   0.239   0.983  38.549  0.5581 -0.3263 -0.0846
18609TIP3    H277319   0.166   1.024  38.423  0.0255 -0.0564  0.3106
18610TIP3   OH277320   3.233   1.382  20.793  0.2522  0.2794  0.0727
18610TIP3    H177321   3.268   1.421  20.712 -0.5868 -1.0815 -0.9766
18610TIP3    H277322   3.189   1.455  20.837  1.4927  1.2497 -0.2128
18611TIP3   OH277323   0.093   2.300   5.064 -0.1435 -0.0606 -0.1350
18611TIP3    H177324   0.047   2.376   5.029  0.5759 -0.7146 -2.7219
18611TIP3    H277325   0.137   2.261   4.988  0.9294 -2.0749  1.4063
18612TIP3   OH277326   1.645   0.826  43.484 -0.0092  0.2681  0.0835
18612TIP3    H177327   1.695   0.838  43.403 -1.3853 -1.8778 -1.1836
18612TIP3    H277328   1.656   0.909  43.531  3.0552  0.5997 -0.9921
18613TIP3   OH277329   0.066   1.964  32.685 -0.0605  0.2827  0.1775
18613TIP3    H177330   0.138   1.921  32.731  0.7880  1.0080 -0.4411
18613TIP3    H277331   0.107   2.002  32.607 -0.9955  1.2667  0.1532
18614TIP3   OH277332   2.381   2.305   0.984  0.4438 -0.1110 -0.3790
18614TIP3    H177333   2.394   2.223   0.936 -0.7951 -0.0890 -0.7764
18614TIP3    H277334   2.378   2.279   1.076 -0.3271 -0.5779 -0.5282
18615TIP3   OH277335   3.085   2.523  36.897 -0.0358 -0.1059  0.3575
18615TIP3    H177336   3.140   2.454  36.860 -1.4027 -1.9169  1.5839
18615TIP3    H277337   3.001   2.514  36.852 -0.0569  1.1746  0.1037
18616TIP3   OH277338   3.023   1.960  36.073  0.1222 -0.0599  0.2121
18616TIP3    H177339   2.940   2.006  36.085  0.3243  0.2245  0.5298
18616TIP3    H277340   3.086   2.028  36.052  0.3555 -0.2268  0.3620
18617TIP3   OH277341   0.991   0.503  14.905 -0.3935 -0.0103  0.2700
18617TIP3    H177342   0.977   0.441  14.833  1.5328 -1.0985  0.7522
18617TIP3    H277343   1.007   0.447  14.982 -3.3424  1.1006  1.8430
18618TIP3   OH277344   3.563   3.189  32.396  0.3074  0.1491  0.7417
18618TIP3    H177345   3.565   3.184  32.492 -0.3126  0.9911  0.8164
18618TIP3    H277346   3.652   3.166  32.369  0.6183  0.3609  1.5423
18619TIP3   OH277347   0.558   2.300  31.608  0.2361  0.6381  0.4178
18619TIP3    H177348   0.611   2.325  31.533 -0.2524  0.6468  0.0746
18619TIP3    H277349   0.476   2.268  31.571  0.8350 -1.5443  0.8287
18620TIP3   OH277350   1.827   0.868  36.187 -0.2204  0.0517  0.3464
18620TIP3    H177351   1.812   0.948  36.237  0.1458  0.3223  0.0257
18620TIP3    H277352   1.844   0.898  36.098 -2.3404 -0.5048 -0.2807
18621TIP3   OH277353   0.826   1.153   7.275 -0.0765  0.5097  0.0203
18621TIP3    H177354   0.834   1.194   7.189  0.7920 -0.1160 -0.2066
18621TIP3    H277355   0.904   1.181   7.323  0.3395 -0.5390 -0.0107
18622TIP3   OH277356   1.086   3.800   6.870  0.0288  0.0288 -0.5408
18622TIP3    H177357   1.027   3.728   6.895 -1.1425  1.6875  1.8751
18622TIP3    H277358   1.047   3.838   6.792 -0.2420 -0.9167 -0.8788
18623TIP3   OH277359   2.411   3.301  35.228 -0.3628  0.2021  0.2364
18623TIP3    H177360   2.365   3.342  35.154 -1.4888  0.3130  0.9817
18623TIP3    H277361   2.492   3.352  35.237  1.3955 -1.6568 -2.8385
18624TIP3   OH277362   4.099   0.840  12.311 -0.0271 -0.5422  0.6086
18624TIP3    H177363   4.029   0.781  12.340 -1.4561  0.2878 -0.9349
18624TIP3    H277364   4.098   0.911  12.374  0.4888 -1.2862  1.4677
18625TIP3   OH277365   1.507   2.608  22.083 -0.6836  0.0889  0.0245
18625TIP3    H177366   1.523   2.663  22.159 -0.0511  0.3783 -0.3143
18625TIP3    H277367   1.581   2.624  22.025 -0.9965 -0.3689 -0.5138
18626TIP3   OH277368   3.298   1.713  10.939  0.2322 -0.0199  0.2504
18626TIP3    H177369   3.386   1.699  10.972  0.5983 -0.2583 -0.7882
18626TIP3    H277370   3.248   1.638  10.972  0.1328  0.6323  1.6954
18627TIP3   OH277371   1.809   1.072  41.718  0.3071 -0.2667 -0.3851
18627TIP3    H177372   1.780   1.164  41.719 -2.2631 -0.9665  2.0404
18627TIP3    H277373   1.774   1.037  41.636 -0.8674  0.3392 -0.1596
18628TIP3   OH277374   0.835   2.833  33.396 -0.7131  0.0109 -0.3418
18628TIP3    H177375   0.837   2.835  33.300  2.1954 -1.7296 -0.4472
18628TIP3    H277376   0.855   2.742  33.418  1.5766  0.9086  1.8252
18629TIP3   OH277377   2.540   2.119  42.367 -0.0965  0.5832 -0.2987
18629TIP3    H177378   2.530   2.155  42.278  0.3410  0.7921 -0.2625
18629TIP3    H277379   2.608   2.173  42.407 -0.3804  0.5657  0.2090
18630TIP3   OH277380   0.140   3.137  11.479  0.6064  0.3275  0.4620
18630TIP3    H177381   0.145   3.201  11.408 -1.3644 -0.1544 -0.1820
18630TIP3    H277382   0.197   3.065  11.450  0.2555  0.3751 -0.3737
18631TIP3   OH277383   3.868   2.584  16.136 -0.2013 -0.6509  0.0111
18631TIP3    H177384   3.862   2.674  16.168  2.4521 -0.6711  0.8262
18631TIP3    H277385   3.961   2.572  16.115 -0.4353 -3.2417  0.0673
18632TIP3   OH277386   1.233   2.949  13.439  0.4504  0.9514 -0.4286
18632TIP3    H177387   1.139   2.943  13.424  0.2889  2.0702  0.0820
18632TIP3    H277388   1.269   2.978  13.356  0.5376 -0.8377 -1.0632
18633TIP3   OH277389   1.297   1.987  43.042 -0.3530 -0.0377 -0.3096
18633TIP3    H177390   1.246   1.915  43.076 -1.6109  1.5748  1.3889
18633TIP3    H277391   1.264   2.001  42.953  1.3742 -2.7989 -1.5213
18634TIP3   OH277392   3.703   0.109  31.939 -0.3772 -0.0568 -0.0686
18634TIP3    H177393   3.792   0.075  31.949 -0.3647  0.0067  0.0404
18634TIP3    H277394   3.711   0.203  31.957 -0.5224 -0.1070  0.2739
18635TIP3   OH277395   3.688   0.311  38.546 -0.0555 -0.4534 -0.2042
18635TIP3    H177396   3.652   0.224  38.561  2.2911 -1.1825  1.8417
18635TIP3    H277397   3.774   0.296  38.508  1.4369  0.7339  2.3674
18636TIP3   OH277398   0.720   3.754  40.656 -0.0194 -0.5061  0.1454
18636TIP3    H177399   0.796   3.701  40.631  1.5020  2.0366 -0.9537
18636TIP3    H277400   0.694   3.798  40.575 -2.3417 -0.8307  0.6368
18637TIP3   OH277401   2.444   1.370  40.437 -0.1126  0.3813 -0.4233
18637TIP3    H177402   2.386   1.294  40.442  1.1572 -0.6772 -1.3329
18637TIP3    H277403   2.437   1.401  40.347  0.9252  0.0766 -0.6205
18638TIP3   OH277404   1.938   3.647  42.323 -0.3108  0.1762  0.0089
18638TIP3    H177405   1.858   3.693  42.297 -0.9972  1.0464  3.2341
18638TIP3    H277406   2.008   3.695  42.279 -1.1096  3.6226  2.0750
18639TIP3   OH277407   3.120   2.366  32.427 -0.2162 -0.2536  0.0197
18639TIP3    H177408   3.120   2.294  32.364  0.0176  0.3907 -0.7281
18639TIP3    H277409   3.179   2.431  32.389 -1.4238  0.8943  0.0251
18640TIP3   OH277410   1.533   1.676  47.261  0.2180  0.5158 -0.4549
18640TIP3    H177411   1.614   1.671  47.210  1.2213 -0.4567  1.1445
18640TIP3    H277412   1.555   1.729  47.337 -0.4241 -0.3521  0.3598
18641TIP3   OH277413   2.326   2.645   2.861  0.1179  0.5782  0.2691
18641TIP3    H177414   2.398   2.626   2.921 -1.6268 -1.7352  1.7992
18641TIP3    H277415   2.347   2.595   2.782 -0.0091 -0.4150  0.8585
18642TIP3   OH277416   3.901   1.360   7.487 -0.1709  0.3062  0.3663
18642TIP3    H177417   3.906   1.451   7.516 -0.3162  0.2321  0.6267
18642TIP3    H277418   3.964   1.354   7.415  1.9345 -0.0474  2.1133
18643TIP3   OH277419   1.368   1.228  33.326  0.2676 -0.7930 -0.1598
18643TIP3    H177420   1.275   1.231  33.349  0.2401 -1.1636 -0.2106
18643TIP3    H277421   1.389   1.135  33.329  0.8657 -0.6397  0.7882
18644TIP3   OH277422   1.974   3.574  44.255  0.3582 -0.1500  0.9014
18644TIP3    H177423   1.899   3.559  44.198  0.5943 -1.0582  0.8269
18644TIP3    H277424   1.959   3.662  44.290  0.1672  0.3888 -0.4651
18645TIP3   OH277425   3.080   1.482   1.468  0.0870 -0.1516  0.0526
18645TIP3    H177426   3.040   1.412   1.417  0.3322 -0.2875  0.0437
18645TIP3    H277427   3.010   1.515   1.525 -0.7208  1.2630 -1.6714
18646TIP3   OH277428   3.916   3.824  12.815 -0.0286 -0.2458  0.1767
18646TIP3    H177429   3.848   3.891  12.812 -0.2076 -0.4222  0.2640
18646TIP3    H277430   3.982   3.860  12.874 -0.3017 -0.3058  0.5278
18647TIP3   OH277431   3.788   0.651   7.113  0.8107 -0.1265  0.1247
18647TIP3    H177432   3.722   0.644   7.182  0.9474 -0.8516  0.1955
18647TIP3    H277433   3.865   0.687   7.157  0.0090  2.2423 -0.2893
18648TIP3   OH277434   2.166   1.766  35.534  0.2009 -0.1211 -0.2760
18648TIP3    H177435   2.261   1.765  35.529  0.1844 -1.4481 -0.7371
18648TIP3    H277436   2.136   1.760  35.444 -0.2872 -1.7745 -0.0342
18649TIP3   OH277437   3.098   1.858   8.816  0.2111 -0.3190 -0.3490
18649TIP3    H177438   3.102   1.949   8.845  0.2469  0.2370 -1.9973
18649TIP3    H277439   3.058   1.812   8.889 -1.3175  1.2966 -0.0927
18650TIP3   OH277440   2.336   2.928  36.181  0.3789 -0.2051 -0.3866
18650TIP3    H177441   2.249   2.935  36.219  0.2853  1.5878 -0.8586
18650TIP3    H277442   2.345   2.835  36.158 -0.4999 -0.8668  1.7181
18651TIP3   OH277443   1.581   3.703  46.551  0.3339 -0.4393 -0.2187
18651TIP3    H177444   1.542   3.781  46.512 -0.1953 -1.2113 -1.2542
18651TIP3    H277445   1.660   3.736  46.596  0.7146  0.5436 -1.5533
18652TIP3   OH277446   1.397   0.757  37.594 -0.0556  0.0679 -0.6139
18652TIP3    H177447   1.339   0.686  37.621  1.5084 -1.5140 -1.2013
18652TIP3    H277448   1.445   0.722  37.520  1.2608  1.5110 -0.4989
18653TIP3   OH277449   1.585   2.770  42.609  0.2082  0.0817 -0.1570
18653TIP3    H177450   1.495   2.776  42.643  0.1300 -0.7467 -0.1831
18653TIP3    H277451   1.590   2.681  42.573  1.0852  0.0693 -0.0178
18654TIP3   OH277452   2.038   3.805  27.007  0.4821 -0.1236 -0.1101
18654TIP3    H177453   2.032   3.831  27.099  1.3033 -1.5965  0.3987
18654TIP3    H277454   1.966   3.742  26.996 -0.6934  1.3080 -0.9730
18655TIP3   OH277455   3.307   4.019   6.394  0.1925 -0.4033  0.1512
18655TIP3    H177456   3.363   4.092   6.365 -1.4215  1.4024  1.3843
18655TIP3    H277457   3.368   3.945   6.402  2.0208  0.9295 -0.5321
18656TIP3   OH277458   1.161   0.109  37.165 -0.0512 -0.4835  0.0574
18656TIP3    H177459   1.183   0.069  37.081 -0.4630 -0.0011 -0.2915
18656TIP3    H277460   1.188   0.201  37.155 -0.8317 -0.2324  0.1515
18657TIP3   OH277461   1.025   0.118   9.201  0.5437 -0.0087 -0.1477
18657TIP3    H177462   1.036   0.031   9.240  1.1593  0.6496  1.2352
18657TIP3    H277463   1.004   0.175   9.275 -0.4849  0.9208 -1.1226
18658TIP3   OH277464   2.724   0.173  13.239 -0.5109 -0.1980 -0.3848
18658TIP3    H177465   2.801   0.117  13.236 -1.2689 -1.3015  0.3043
18658TIP3    H277466   2.756   0.254  13.279  0.5970 -0.0958 -1.4255
18659TIP3   OH277467   1.594   1.845   3.043  0.4237  0.4331  0.0692
18659TIP3    H177468   1.668   1.859   3.103  0.9381  2.2208 -0.8862
18659TIP3    H277469   1.609   1.758   3.006  3.3208  1.5333 -1.6775
18660TIP3   OH277470   0.224   2.156  32.954  0.1970 -0.9017  0.3032
18660TIP3    H177471   0.308   2.187  32.988  1.5187 -4.2255  0.4954
18660TIP3    H277472   0.167   2.150  33.031  0.2025  0.1280  0.3924
18661TIP3   OH277473   2.032   1.964  36.963  0.1887  0.1743  0.3072
18661TIP3    H177474   2.032   2.011  36.880  1.2747  0.5878  0.5193
18661TIP3    H277475   1.941   1.936  36.975 -0.1279  0.7366 -0.6598
18662TIP3   OH277476   0.478   0.860   5.977 -0.2999 -0.3202 -0.2174
18662TIP3    H177477   0.549   0.804   5.947 -0.0366 -1.1216  1.7210
18662TIP3    H277478   0.398   0.810   5.957 -0.1681 -0.5788 -0.1016
18663TIP3   OH277479   0.221   0.542  47.298  0.1381 -0.0409  0.2844
18663TIP3    H177480   0.143   0.494  47.269 -0.6099 -1.0529  3.5212
18663TIP3    H277481   0.290   0.475  47.300  0.4790  0.2870 -0.2067
18664TIP3   OH277482   1.086   0.690  39.112 -0.0729 -0.9603 -0.3861
18664TIP3    H177483   1.029   0.732  39.177  0.3572 -1.3821  0.2700
18664TIP3    H277484   1.083   0.749  39.036  1.7748  1.1532  1.0467
18665TIP3   OH277485   1.012   2.799   3.795 -0.3814 -0.1134 -0.5517
18665TIP3    H177486   1.032   2.722   3.741  1.0086  0.9733 -1.6851
18665TIP3    H277487   0.939   2.771   3.850  0.4148 -2.4140 -0.5280
18666TIP3   OH277488   2.699   1.790  47.423  0.1826  0.1585 -0.1063
18666TIP3    H177489   2.747   1.799  47.341 -0.8173 -0.1465 -0.7380
18666TIP3    H277490   2.767   1.793  47.491  0.9776  0.7891 -0.9125
18667TIP3   OH277491   2.599   2.467  38.755 -0.0129 -0.3695 -0.3162
18667TIP3    H177492   2.573   2.481  38.846 -0.1965 -0.6398 -0.3243
18667TIP3    H277493   2.695   2.461  38.758 -0.0608 -1.1339 -0.0328
18668TIP3   OH277494   0.801   0.437   4.539 -0.2051 -0.3864  0.8278
18668TIP3    H177495   0.838   0.443   4.627  0.4576  2.5334  0.4517
18668TIP3    H277496   0.877   0.423   4.482 -0.6380 -2.3509  0.6654
18669TIP3   OH277497   3.523   2.448  41.760  0.2130 -0.7422 -0.0465
18669TIP3    H177498   3.457   2.450  41.691  1.1813 -0.6100 -0.9811
18669TIP3    H277499   3.576   2.370  41.740  1.1926 -0.0720 -0.1201
18670TIP3   OH277500   1.742   3.553   6.670 -0.0638 -0.7190  0.3541
18670TIP3    H177501   1.656   3.570   6.707  0.5349  1.8078  0.7738
18670TIP3    H277502   1.764   3.633   6.623  1.7184 -1.6156 -0.4288
18671TIP3   OH277503   1.131   2.570  40.584  0.0182 -0.7699  0.0386
18671TIP3    H177504   1.177   2.614  40.513  1.0312 -0.8845  0.5933
18671TIP3    H277505   1.174   2.602  40.663  0.6254 -2.5430  0.4750
18672TIP3   OH277506   3.459   0.558  45.057  0.2882  0.6243  0.3486
18672TIP3    H177507   3.377   0.514  45.079  0.5976 -0.1789 -0.0660
18672TIP3    H277508   3.524   0.519  45.116  0.2421  1.8126  1.2196
18673TIP3   OH277509   3.753   1.803  46.939  1.1688  0.3659  0.6887
18673TIP3    H177510   3.704   1.824  47.018 -0.1044  1.4792 -0.3453
18673TIP3    H277511   3.839   1.842  46.952  0.8506  0.8469  1.3762
18674TIP3   OH277512   1.324   1.658  32.664 -0.0372  0.0507  0.0231
18674TIP3    H177513   1.380   1.605  32.607  1.0537  0.6949  0.4516
18674TIP3    H277514   1.333   1.619  32.751 -1.2031 -0.5534 -0.1183
18675TIP3   OH277515   2.927   0.307  38.444  0.0753 -0.2838 -0.2642
18675TIP3    H177516   2.999   0.369  38.442 -0.2397  0.1185  0.4743
18675TIP3    H277517   2.910   0.286  38.352  1.3614 -0.6625 -0.4376
18676TIP3   OH277518   3.976   0.684  45.823  0.0915 -0.2941  0.0679
18676TIP3    H177519   3.957   0.758  45.880 -2.2308  0.5115 -1.6108
18676TIP3    H277520   4.021   0.722  45.748 -2.2828 -0.2537 -1.4348
18677TIP3   OH277521   1.991   2.823  45.798 -0.2927 -0.2247  0.8370
18677TIP3    H177522   2.025   2.850  45.712 -0.1695  0.6367  1.1562
18677TIP3    H277523   1.896   2.832  45.789 -0.2301  0.9071  1.1206
18678TIP3   OH277524   2.510   3.529   1.019  0.3280  0.0059 -0.3267
18678TIP3    H177525   2.563   3.607   1.001 -0.6420  0.4814 -1.2249
18678TIP3    H277526   2.455   3.519   0.942  1.3621 -2.3884 -0.8575
18679TIP3   OH277527   0.142   2.921  14.783 -0.7264 -0.1262  0.3088
18679TIP3    H177528   0.232   2.950  14.773 -1.7795  3.3700 -0.6335
18679TIP3    H277529   0.106   2.979  14.851 -2.1517 -1.7785  1.0238
18680TIP3   OH277530   1.751   3.885  13.312 -0.0691  0.5455 -0.6326
18680TIP3    H177531   1.831   3.914  13.268 -0.4840  1.9834 -0.4864
18680TIP3    H277532   1.732   3.954  13.376  0.3339 -1.2980  1.6246
18681TIP3   OH277533   1.613   2.308  42.998  0.3517 -0.3512 -0.2562
18681TIP3    H177534   1.555   2.266  42.935 -0.6196  2.1382 -1.1404
18681TIP3    H277535   1.569   2.389  43.021  2.3887  0.4982  0.9085
18682TIP3   OH277536   3.665   3.067  11.964 -0.4147  0.4875 -0.0726
18682TIP3    H177537   3.584   3.038  12.005 -1.5347  1.5316 -1.4368
18682TIP3    H277538   3.666   3.162  11.977  0.7963  0.4515  0.2463
18683TIP3   OH277539   1.523   1.988   3.769 -0.2385  0.2660  0.1680
18683TIP3    H177540   1.577   1.939   3.707  0.3056  0.8366  0.1844
18683TIP3    H277541   1.464   1.922   3.806 -0.7529 -0.0448 -1.1355
18684TIP3   OH277542   0.492   1.987  45.084  0.0204 -0.3983  0.3831
18684TIP3    H177543   0.488   2.062  45.143  0.8269  0.4131 -0.5446
18684TIP3    H277544   0.460   1.914  45.136  0.1024  0.4057  1.6162
18685TIP3   OH277545   3.058   0.286  29.014 -1.1616 -0.1854  0.3618
18685TIP3    H177546   2.992   0.261  28.950 -0.2686  0.1987 -0.7486
18685TIP3    H277547   3.141   0.272  28.969 -0.5137 -0.0140  1.4848
18686TIP3   OH277548   3.922   2.240   2.149  0.1266  0.4243 -0.4936
18686TIP3    H177549   3.920   2.146   2.165 -1.2709  0.7586  1.7514
18686TIP3    H277550   4.004   2.255   2.101  0.4869 -1.8793 -0.6907
18687TIP3   OH277551   0.019   2.760   3.474  0.4856 -0.0815 -0.4316
18687TIP3    H177552  -0.051   2.699   3.453  0.7000 -0.6876  0.5155
18687TIP3    H277553  -0.023   2.828   3.527  0.8533 -1.2469  1.4329
18688TIP3   OH277554   1.089   0.647   4.738 -0.6700 -0.4956 -0.1909
18688TIP3    H177555   1.064   0.712   4.672  0.6893  0.2159 -0.0332
18688TIP3    H277556   1.007   0.602   4.759 -1.1688 -0.6570 -2.2643
18689TIP3   OH277557   2.808   2.190  10.585  0.3360 -1.0641 -0.5519
18689TIP3    H177558   2.903   2.191  10.572  0.4426  1.0739 -0.0203
18689TIP3    H277559   2.793   2.251  10.656 -1.5548 -0.1883 -1.6192
18690TIP3   OH277560   1.669   2.900   8.356  0.3549  0.1968  0.2007
18690TIP3    H177561   1.606   2.900   8.284 -1.1309 -0.7297  1.4227
18690TIP3    H277562   1.628   2.845   8.423  0.8093  2.4084  2.4557
18691TIP3   OH277563   2.567   2.763  41.557  0.4829  0.2253  0.7267
18691TIP3    H177564   2.649   2.732  41.595  1.0266 -0.0229 -0.6016
18691TIP3    H277565   2.594   2.813  41.480 -0.6361 -0.6288 -0.2571
18692TIP3   OH277566   1.518   0.357   0.325 -0.0808 -0.4609  0.2267
18692TIP3    H177567   1.483   0.272   0.295 -0.1711 -0.5085  0.4666
18692TIP3    H277568   1.567   0.390   0.250  3.8260 -2.7773  1.4697
18693TIP3   OH277569   1.009   0.209  40.252  0.4716 -0.2449  0.0258
18693TIP3    H177570   1.079   0.146  40.269  1.1960  0.5660  0.1096
18693TIP3    H277571   1.010   0.221  40.157  0.2245 -0.4765 -0.0089
18694TIP3   OH277572   1.761   1.776  45.277  0.2579 -0.8404  0.0626
18694TIP3    H177573   1.755   1.838  45.204 -0.6696 -1.6064 -0.5300
18694TIP3    H277574   1.844   1.730  45.263  0.0721 -1.0000 -0.5235
18695TIP3   OH277575   3.736   3.567   9.136 -0.4837 -0.0962  0.2235
18695TIP3    H177576   3.786   3.643   9.106 -1.4041  0.3834 -0.1404
18695TIP3    H277577   3.647   3.601   9.152 -0.9078 -1.0863  0.0645
18696TIP3   OH277578   1.623   3.667  26.821 -0.2889 -0.0970  0.4699
18696TIP3    H177579   1.665   3.589  26.857  1.6943  0.6028 -0.2050
18696TIP3    H277580   1.553   3.688  26.883 -1.6408 -2.9966  0.1291
18697TIP3   OH277581   0.905   1.729   1.556  0.0054 -0.9026 -0.1444
18697TIP3    H177582   0.994   1.746   1.588 -0.5461 -1.3194  1.7349
18697TIP3    H277583   0.917   1.709   1.463  1.3763  3.4840 -1.1584
18698TIP3   OH277584   2.990   1.596  47.272 -0.0366  0.1446  0.0201
18698TIP3    H177585   2.916   1.623  47.217  0.0035  2.7635  1.1439
18698TIP3    H277586   2.950   1.546  47.343 -0.9326  2.4721  1.2234
18699TIP3   OH277587   3.817   1.821  13.343 -0.1240  0.0792  0.5479
18699TIP3    H177588   3.909   1.847  13.349  0.3157 -1.6868  3.0921
18699TIP3    H277589   3.818   1.741  13.291 -0.2548  0.0658  0.5658
18700TIP3   OH277590   0.111   2.509  36.638  0.1525 -0.5153  0.0007
18700TIP3    H177591   0.089   2.519  36.545 -0.4497 -0.9154  0.0887
18700TIP3    H277592   0.117   2.598  36.672 -0.0226 -0.3750 -0.3376
18701TIP3   OH277593   2.428   1.343  47.578  0.0017  0.6936  0.3564
18701TIP3    H177594   2.345   1.296  47.583 -1.4836  3.0623 -0.5238
18701TIP3    H277595   2.439   1.362  47.485  1.7917  0.0349  0.4003
18702TIP3   OH277596   2.135   0.176  32.739  0.0153  0.5274 -0.8939
18702TIP3    H177597   2.043   0.157  32.721  0.3194 -0.3346 -1.6162
18702TIP3    H277598   2.183   0.133  32.668  1.0340  0.2022 -0.0343
18703TIP3   OH277599   1.060   1.285  38.806  0.5273 -0.2892 -0.7789
18703TIP3    H177600   1.066   1.324  38.893  0.2758  1.4731 -1.5011
18703TIP3    H277601   1.106   1.202  38.813 -1.1685 -1.1310  1.5275
18704TIP3   OH277602   2.681   0.844  33.675  0.1947 -0.4629  0.3014
18704TIP3    H177603   2.661   0.936  33.658  0.2860  0.0147  2.4160
18704TIP3    H277604   2.755   0.847  33.735  0.3243 -1.9327  0.2339
18705TIP3   OH277605   1.025   0.857  10.072  0.3329 -0.1569 -0.1543
18705TIP3    H177606   0.934   0.871  10.047  0.2828 -1.2641 -0.6779
18705TIP3    H277607   1.025   0.772  10.115  0.6483  1.1023  2.5121
18706TIP3   OH277608   0.618   1.044  40.088 -0.0194  0.3328  0.0578
18706TIP3    H177609   0.535   1.054  40.042 -0.3202  2.9937  1.0187
18706TIP3    H277610   0.596   0.999  40.170 -0.4311  0.6391  0.1165
18707TIP3   OH277611   1.634   1.421  14.327 -0.0784  0.0846  0.3270
18707TIP3    H177612   1.727   1.434  14.345  0.3586  0.3070 -1.8071
18707TIP3    H277613   1.603   1.506  14.296 -0.5027 -0.4481 -0.7918
18708TIP3   OH277614   3.721   1.140  34.372 -0.0288 -0.1863  0.4473
18708TIP3    H177615   3.747   1.150  34.281  1.1653 -0.9393  0.6900
18708TIP3    H277616   3.803   1.130  34.420 -0.5834  1.0328  1.7280
18709TIP3   OH277617   1.708   4.075  42.024 -0.2019  0.4561 -0.1134
18709TIP3    H177618   1.648   4.009  42.058  1.6165 -1.2434 -0.0182
18709TIP3    H277619   1.659   4.119  41.955 -2.4561  1.0001  1.6977
18710TIP3   OH277620   2.211   2.275  13.555  0.0642  0.2701  0.2183
18710TIP3    H177621   2.295   2.309  13.525  0.8896 -0.9940  1.0260
18710TIP3    H277622   2.162   2.258  13.474  1.1680 -0.4128 -0.3259
18711TIP3   OH277623   0.754   1.318  11.861 -1.0632 -0.2644  0.2601
18711TIP3    H177624   0.744   1.272  11.778  0.0543 -0.1584  0.0479
18711TIP3    H277625   0.848   1.337  11.866 -0.8589 -1.5927  2.2603
18712TIP3   OH277626   1.045   2.499  37.239 -0.3294  1.0053 -0.0147
18712TIP3    H177627   1.053   2.554  37.161  0.6936 -0.3707 -0.9418
18712TIP3    H277628   1.100   2.423  37.219 -2.9046 -1.1219  0.5114
18713TIP3   OH277629   3.676   0.486   2.285 -0.2298  0.1462 -0.3125
18713TIP3    H177630   3.593   0.495   2.238 -0.0097  0.7898 -0.5804
18713TIP3    H277631   3.651   0.444   2.368 -0.7495 -0.1186 -0.5933
18714TIP3   OH277632   0.053   1.179   4.024 -0.1817  0.1152 -0.0166
18714TIP3    H177633   0.146   1.158   4.025 -0.4247 -1.1054 -0.5830
18714TIP3    H277634   0.049   1.273   4.009  0.9451 -0.1022 -1.9864
18715TIP3   OH277635   2.817   2.468  44.049 -0.3979  0.8315  0.2077
18715TIP3    H177636   2.787   2.449  44.138  0.0852 -0.9436  0.0155
18715TIP3    H277637   2.748   2.436  43.992  0.7842 -1.2159 -0.1479
18716TIP3   OH277638   1.580   3.630   6.234  0.0034  0.0912 -0.0613
18716TIP3    H177639   1.489   3.652   6.252 -0.0520 -0.9363  1.0566
18716TIP3    H277640   1.626   3.714   6.234 -0.8536  0.5643 -0.0735
18717TIP3   OH277641   1.666   2.797  31.531 -0.2821 -0.0493 -0.0974
18717TIP3    H177642   1.681   2.718  31.584  2.1144  2.1014  2.7565
18717TIP3    H277643   1.574   2.817  31.542 -0.0876 -0.2642  2.6069
18718TIP3   OH277644   3.731   1.657   9.428  0.5196  0.4562 -0.5266
18718TIP3    H177645   3.657   1.675   9.486 -0.1505  1.1984 -1.5641
18718TIP3    H277646   3.718   1.567   9.399 -0.7830  0.9954 -1.7622
18719TIP3   OH277647   1.555   3.234  33.171  0.4589 -0.7461  0.2463
18719TIP3    H177648   1.545   3.204  33.080  2.1584  0.2830 -0.3236
18719TIP3    H277649   1.593   3.321  33.164  0.3039 -0.4984  1.9706
18720TIP3   OH277650   1.529   3.979  35.654  0.1036 -0.4176  0.0785
18720TIP3    H177651   1.527   4.075  35.657  0.1181 -0.4414  1.2881
18720TIP3    H277652   1.472   3.957  35.580 -0.9785  0.5056  0.5893
18721TIP3   OH277653   0.114   3.756  34.171 -0.7523  0.2754 -0.4757
18721TIP3    H177654   0.134   3.720  34.258  1.9997  1.8829 -0.3179
18721TIP3    H277655   0.183   3.721  34.115  0.5286  3.1305 -0.8432
18722TIP3   OH277656   1.348   3.736  33.534  0.1349 -0.3920  0.1037
18722TIP3    H177657   1.310   3.817  33.569 -0.8694 -1.3220  1.2411
18722TIP3    H277658   1.362   3.681  33.611 -0.1039 -1.6726 -0.7378
18723TIP3   OH277659   3.611   3.355  34.963 -0.1157  0.6610  0.1106
18723TIP3    H177660   3.672   3.338  34.891 -0.1191  0.9334  0.0443
18723TIP3    H277661   3.665   3.347  35.042  0.6593  3.5676 -0.0189
18724TIP3   OH277662   0.554   3.960  27.641  1.0587 -0.1433 -0.3313
18724TIP3    H177663   0.600   4.012  27.575  0.7565 -0.7839 -1.0660
18724TIP3    H277664   0.562   3.870  27.610  0.4571 -0.3970  0.2325
18725TIP3   OH277665   2.420   1.181  43.739  0.7575 -0.6467  0.1009
18725TIP3    H177666   2.361   1.254  43.753  0.2236 -0.8262 -1.1076
18725TIP3    H277667   2.378   1.128  43.671  1.0241 -2.1976  1.0937
18726TIP3   OH277668   0.199   3.272  41.594  0.1393 -0.2147  0.6087
18726TIP3    H177669   0.186   3.334  41.666 -2.1292  0.0421  0.0611
18726TIP3    H277670   0.230   3.327  41.522 -2.0328  0.4043  0.0724
18727TIP3   OH277671   3.725   1.746  10.848 -0.2637 -0.2690  0.5756
18727TIP3    H177672   3.661   1.788  10.792 -1.1634 -1.0759  0.9708
18727TIP3    H277673   3.754   1.815  10.908  2.3631  1.2336 -2.1470
18728TIP3   OH277674   1.599   2.467  12.254 -0.0189  0.4144  0.4754
18728TIP3    H177675   1.565   2.531  12.191 -0.7223  0.7161  1.1289
18728TIP3    H277676   1.567   2.383  12.222 -0.3558  0.5636  0.4038
18729TIP3   OH277677   2.733   4.082   8.574 -0.0615  0.4917  0.0615
18729TIP3    H177678   2.749   4.003   8.625  0.4294  0.2721 -0.4282
18729TIP3    H277679   2.820   4.112   8.547 -0.1637  1.7372  1.0335
18730TIP3   OH277680   0.939   3.077  35.552 -0.2571  0.7409  0.3114
18730TIP3    H177681   1.033   3.083  35.537 -0.3329 -0.0799 -0.5887
18730TIP3    H277682   0.901   3.132  35.483 -0.4613  0.5330  0.2596
18731TIP3   OH277683   1.675   2.253   7.419  0.1897  0.3651 -0.5735
18731TIP3    H177684   1.650   2.199   7.494  0.1442 -0.7889 -1.3928
18731TIP3    H277685   1.619   2.331   7.425 -0.5361 -0.1920  0.0146
18732TIP3   OH277686   3.766   3.219   5.346 -0.5269 -0.7124  0.3511
18732TIP3    H177687   3.807   3.163   5.279 -0.1641 -0.7083  0.5658
18732TIP3    H277688   3.810   3.304   5.335  0.3767 -1.0239  1.3555
18733TIP3   OH277689   0.284   0.271  11.454  0.2362 -0.3657  0.0904
18733TIP3    H177690   0.315   0.270  11.364  0.7176  1.5376  0.1937
18733TIP3    H277691   0.203   0.219  11.452  0.6268 -0.9640 -1.2695
18734TIP3   OH277692   2.354   3.041  39.578 -0.9520  0.2117  0.1401
18734TIP3    H177693   2.291   3.096  39.533 -0.2763 -0.0735 -1.1982
18734TIP3    H277694   2.389   3.096  39.648 -1.9391  0.7051  0.2539
18735TIP3   OH277695   2.502   3.382  14.308  0.1697 -0.0645 -0.8632
18735TIP3    H177696   2.512   3.447  14.377  0.6440 -1.2589  0.2243
18735TIP3    H277697   2.414   3.346  14.321 -0.6352  1.2669 -2.3063
18736TIP3   OH277698   3.736   2.503  37.544  0.5113  0.2318  0.1499
18736TIP3    H177699   3.780   2.422  37.569  0.6388  0.5895  1.1354
18736TIP3    H277700   3.654   2.502  37.592 -0.2564 -0.0791 -1.1167
18737TIP3   OH277701   1.398   0.199   0.134  0.4940 -0.4056 -0.2374
18737TIP3    H177702   1.319   0.178   0.184  1.1841  0.1811  1.1501
18737TIP3    H277703   1.366   0.247   0.058 -0.5198 -0.6298  0.0255
18738TIP3   OH277704   0.475   1.273  33.972 -0.1517 -0.2099  0.3407
18738TIP3    H177705   0.387   1.242  33.993 -0.5007 -1.0214 -2.0492
18738TIP3    H277706   0.532   1.201  33.998 -0.2343  0.0415  1.2635
18739TIP3   OH277707   1.920   2.619   9.724  0.1418 -0.4333  0.1738
18739TIP3    H177708   2.012   2.604   9.705 -0.3530 -3.3130 -0.4148
18739TIP3    H277709   1.883   2.652   9.642  0.5569  0.5150  0.3488
18740TIP3   OH277710   2.279   2.756  35.670  0.2790 -0.1048 -0.0373
18740TIP3    H177711   2.237   2.789  35.749  1.7642 -0.6923  1.0482
18740TIP3    H277712   2.229   2.795  35.598 -1.2240  0.3058  1.1695
18741TIP3   OH277713   0.444   3.599  39.300  0.5188 -0.6517 -0.0972
18741TIP3    H177714   0.419   3.670  39.359 -0.0218 -1.1069  0.2285
18741TIP3    H277715   0.517   3.556  39.345 -0.6009 -1.6812  0.7926
18742TIP3   OH277716   4.049   1.042  16.658 -0.1307  0.6489 -0.2979
18742TIP3    H177717   3.964   0.999  16.651 -0.3480  0.5757  1.9745
18742TIP3    H277718   4.095   1.017  16.578 -2.7339  1.8945 -2.3144
18743TIP3   OH277719   1.184   4.056  30.072 -0.9922 -0.8146 -0.0604
18743TIP3    H177720   1.114   4.121  30.082 -0.5291 -0.2323 -0.5165
18743TIP3    H277721   1.188   4.012  30.157 -1.0105  0.0654  0.4076
18744TIP3   OH277722   1.070   2.217  14.990 -0.3659  0.0895  0.3797
18744TIP3    H177723   1.128   2.170  14.930  1.1799  1.9958  0.3133
18744TIP3    H277724   0.995   2.158  15.000  1.5355 -2.5225  0.5242
18745TIP3   OH277725   3.610   1.104  38.674 -0.4878 -0.4575 -0.6708
18745TIP3    H177726   3.539   1.100  38.611 -0.1950 -0.9973 -0.9750
18745TIP3    H277727   3.576   1.158  38.745 -0.9419 -0.1281 -1.1336
18746TIP3   OH277728   1.831   0.470  34.654 -0.1675  0.5962 -0.5634
18746TIP3    H177729   1.798   0.465  34.744 -0.2730 -1.7615 -0.6497
18746TIP3    H277730   1.799   0.554  34.621  1.0810  2.1966  2.0106
18747TIP3   OH277731   1.018   2.298  47.197 -0.2534 -0.6085 -0.0503
18747TIP3    H177732   1.036   2.342  47.114 -1.2358 -0.2580 -0.0931
18747TIP3    H277733   1.080   2.337  47.259 -0.7113  0.4270 -0.2249
18748TIP3   OH277734   3.190   1.944  40.511  0.0647  0.1898 -0.5996
18748TIP3    H177735   3.132   1.898  40.451 -1.3275 -0.9235  1.4928
18748TIP3    H277736   3.208   1.881  40.581  1.0331  1.6489  0.5277
18749TIP3   OH277737   0.559   1.767  38.427  0.1897 -0.3982  0.0982
18749TIP3    H177738   0.619   1.693  38.431  0.5098 -0.0906  1.5028
18749TIP3    H277739   0.613   1.840  38.398  0.5949 -0.0647  1.6021
18750TIP3   OH277740   1.591   0.561  41.418 -0.1185  0.2405  0.0251
18750TIP3    H177741   1.593   0.509  41.498  1.3595 -0.2380 -0.2996
18750TIP3    H277742   1.680   0.558  41.384 -0.6783  0.5224 -1.5895
18751TIP3   OH277743   3.211   4.101  10.943 -0.4704  0.6756 -0.3805
18751TIP3    H177744   3.247   4.183  10.976 -0.0988  0.3152  0.1187
18751TIP3    H277745   3.154   4.069  11.013  2.7942 -1.7394  1.4533
18752TIP3   OH277746   2.796   1.446  18.251  0.1957 -0.3911  0.0397
18752TIP3    H177747   2.872   1.485  18.208  0.2506  1.0977  1.3987
18752TIP3    H277748   2.830   1.368  18.295  0.9994  0.3792  0.8088
18753TIP3   OH277749   1.691   2.315  46.894  0.5064  0.2165  0.2605
18753TIP3    H177750   1.671   2.305  46.988  0.5171  0.8628  0.3342
18753TIP3    H277751   1.712   2.407  46.884 -1.1027  0.4959 -0.6874
18754TIP3   OH277752   0.989   0.221   0.717  0.4536  0.2415 -0.0333
18754TIP3    H177753   0.941   0.297   0.687 -0.0657 -0.2299 -0.4175
18754TIP3    H277754   0.992   0.230   0.812 -0.2493  0.3670 -0.0180
18755TIP3   OH277755   3.527   0.142  37.845  0.3668  0.0304 -0.1586
18755TIP3    H177756   3.533   0.228  37.803 -0.7311  0.2777  0.1741
18755TIP3    H277757   3.607   0.135  37.897  0.9414  0.4217 -0.9679
18756TIP3   OH277758   0.264   0.263   7.214 -0.1624 -0.4769  0.4587
18756TIP3    H177759   0.292   0.274   7.123 -0.0548  0.2787  0.5793
18756TIP3    H277760   0.346   0.253   7.263 -0.0548  1.6062  0.7945
18757TIP3   OH277761   1.689   0.458   2.040 -0.6302  0.1436 -0.2828
18757TIP3    H177762   1.736   0.375   2.051  0.4840  0.8620  0.6619
18757TIP3    H277763   1.628   0.442   1.968  0.0616 -1.2758 -0.5871
18758TIP3   OH277764   1.841   3.754   2.167 -0.0834  0.3105  0.4501
18758TIP3    H177765   1.764   3.809   2.153 -0.0701 -0.0654 -1.4845
18758TIP3    H277766   1.909   3.794   2.112  0.4010 -0.6820  0.2970
18759TIP3   OH277767   1.700   3.371  13.099 -0.1650 -0.6135 -0.7636
18759TIP3    H177768   1.716   3.465  13.094  1.8612 -0.8765 -0.2600
18759TIP3    H277769   1.612   3.359  13.062  0.2239  1.2641 -2.4813
18760TIP3   OH277770   3.629   3.862   8.332  0.2587 -0.2586 -0.0070
18760TIP3    H177771   3.594   3.780   8.368 -0.1877 -0.4011 -0.7554
18760TIP3    H277772   3.582   3.875   8.250 -2.0376  2.4210  1.5621
18761TIP3   OH277773   0.282   0.335  11.184  0.1890  0.0477 -0.1150
18761TIP3    H177774   0.296   0.429  11.175  0.2006  0.0109 -0.4723
18761TIP3    H277775   0.204   0.317  11.131  1.4077 -0.4938 -1.7869
18762TIP3   OH277776   0.895   3.908   7.054 -0.3645  0.6962 -0.2554
18762TIP3    H177777   0.822   3.931   6.997 -0.4191  1.5423  0.1557
18762TIP3    H277778   0.970   3.899   6.995 -0.5605  0.9386 -0.5407
18763TIP3   OH277779   3.335   0.146  47.027  0.4348  0.0115  0.3566
18763TIP3    H177780   3.352   0.063  47.071 -0.6919 -0.3019  0.2445
18763TIP3    H277781   3.332   0.210  47.098 -2.4987 -0.6584  0.9814
18764TIP3   OH277782   3.145   2.164   7.990 -0.0954  0.1630  0.5198
18764TIP3    H177783   3.104   2.243   7.957 -1.7702 -1.1036 -0.6271
18764TIP3    H277784   3.157   2.180   8.083 -0.6987  1.6329  0.3640
18765TIP3   OH277785   2.802   3.998  47.408 -0.1192 -0.3246  0.6432
18765TIP3    H177786   2.745   3.989  47.485  0.9935 -0.6566  1.4425
18765TIP3    H277787   2.888   4.019  47.443  0.3045  0.0556 -0.5497
18766TIP3   OH277788   1.890   1.421  42.557 -0.3543  0.7241  0.4126
18766TIP3    H177789   1.966   1.376  42.594  2.0856  2.7993 -1.6875
18766TIP3    H277790   1.874   1.494  42.617  0.3640  1.1822  0.0644
18767TIP3   OH277791   1.920   1.965  46.377  0.0084 -0.6961  0.2450
18767TIP3    H177792   1.857   2.036  46.392  1.9143  1.0914  0.2550
18767TIP3    H277793   1.926   1.920  46.461 -1.7820 -1.3956  0.0358
18768TIP3   OH277794   0.373   3.437   0.102 -0.5053  0.0112  0.1054
18768TIP3    H177795   0.447   3.481   0.062 -1.4866  1.0063 -0.6739
18768TIP3    H277796   0.407   3.352   0.130  0.7693  0.2203 -0.7716
18769TIP3   OH277797   1.780   2.382  42.158 -0.3111 -0.8102 -0.0131
18769TIP3    H177798   1.712   2.315  42.167  0.0586 -1.1059  0.7273
18769TIP3    H277799   1.767   2.439  42.235 -1.0825  0.4172 -1.0054
18770TIP3   OH277800   3.682   0.164  42.510  0.1401  0.1177  0.7876
18770TIP3    H177801   3.699   0.087  42.565  0.2289 -0.0072  0.5879
18770TIP3    H277802   3.592   0.189  42.531 -0.1600 -0.5151  0.2821
18771TIP3   OH277803   0.778   2.915  35.891 -0.4840  0.0944 -0.6687
18771TIP3    H177804   0.816   2.890  35.806  3.3400  1.6640  0.3542
18771TIP3    H277805   0.830   2.866  35.955 -2.0294  0.3920  0.8902
18772TIP3   OH277806   3.859   3.389  12.118  0.3892 -0.0909 -0.6151
18772TIP3    H177807   3.784   3.446  12.137  0.3533 -0.4642  0.3969
18772TIP3    H277808   3.835   3.305  12.156  1.3070 -0.2249 -0.3142
18773TIP3   OH277809   1.987   0.500  40.282 -0.5534  0.8247 -0.0874
18773TIP3    H177810   1.947   0.442  40.348 -1.8157  0.7208 -0.9079
18773TIP3    H277811   1.914   0.528  40.227  0.1685  2.4953 -0.2655
18774TIP3   OH277812   1.054   1.221  45.300  0.0770  0.2879  0.2677
18774TIP3    H177813   1.076   1.304  45.342 -0.7650  0.7869 -0.2354
18774TIP3    H277814   0.997   1.246  45.227  1.2693 -0.5734 -0.9968
18775TIP3   OH277815   3.719   1.701  37.086 -0.5139  0.1781 -0.4811
18775TIP3    H177816   3.729   1.777  37.029  3.2690 -0.6985 -1.2858
18775TIP3    H277817   3.746   1.733  37.172  0.1741 -0.0121 -0.6224
18776TIP3   OH277818   1.914   3.040   8.391  0.1161  0.0491  0.4368
18776TIP3    H177819   1.838   2.987   8.367  1.2378 -1.1025 -0.7142
18776TIP3    H277820   1.906   3.119   8.336  0.4675 -0.7042 -0.7433
18777TIP3   OH277821   2.538   2.500  35.429 -0.3559 -0.1616  0.1281
18777TIP3    H177822   2.537   2.593  35.406  0.1490 -0.1848  0.0078
18777TIP3    H277823   2.474   2.493  35.499  0.7096  0.5676  1.2214
18778TIP3   OH277824   3.315   3.751  40.847 -0.1297 -0.3169  1.1920
18778TIP3    H177825   3.386   3.752  40.912 -0.2115 -1.0878  1.3062
18778TIP3    H277826   3.281   3.840  40.847  1.1902  0.2111  0.7457
18779TIP3   OH277827   0.466   2.714   2.953  0.2785  0.2298  0.2336
18779TIP3    H177828   0.459   2.767   3.032 -0.8575  2.4901 -1.2808
18779TIP3    H277829   0.378   2.680   2.939  0.5225 -0.3436  0.0440
18780TIP3   OH277830   3.248   0.625  43.178 -0.5357  0.1156 -0.1007
18780TIP3    H177831   3.284   0.664  43.257 -0.8608 -0.7725  0.5006
18780TIP3    H277832   3.235   0.533  43.200  0.2704 -0.3675 -1.4966
18781TIP3   OH277833   0.664   1.596  47.371  0.2608 -0.3997  0.1019
18781TIP3    H177834   0.598   1.608  47.302  1.8867  1.6322 -1.1808
18781TIP3    H277835   0.716   1.522  47.340  0.2585 -0.2587 -0.2470
18782TIP3   OH277836   0.334   2.602  46.483  0.2613 -0.3677  0.3937
18782TIP3    H177837   0.279   2.552  46.422 -1.9238  0.8384  1.2390
18782TIP3    H277838   0.420   2.604  46.442 -0.4218 -1.9517 -1.2649
18783TIP3   OH277839   2.990   3.466  43.131 -0.4218  0.1532 -0.7579
18783TIP3    H177840   3.079   3.458  43.166 -0.8876  3.3826  1.5743
18783TIP3    H277841   2.998   3.434  43.041  2.7118 -1.0917 -0.1930
18784TIP3   OH277842   2.154   2.630   7.625 -0.1064  0.1053 -0.5111
18784TIP3    H177843   2.099   2.608   7.701  1.2096  0.9613  0.7419
18784TIP3    H277844   2.126   2.717   7.599  0.1016  0.2149 -0.3742
18785TIP3   OH277845   2.183   2.208   4.380  0.5825  0.3288  0.3946
18785TIP3    H177846   2.215   2.132   4.332 -1.6558 -0.9193  0.7452
18785TIP3    H277847   2.257   2.269   4.380  1.4860 -0.6270 -2.3977
18786TIP3   OH277848   3.355   0.511  36.609  0.6672 -0.6662 -0.1411
18786TIP3    H177849   3.440   0.514  36.653  1.6670 -1.3554 -1.9236
18786TIP3    H277850   3.332   0.418  36.607 -1.3248 -0.3606  2.3376
18787TIP3   OH277851   2.026   2.180   4.934 -0.0641 -0.4340  0.3239
18787TIP3    H177852   2.059   2.217   4.853 -1.1683 -1.2260 -0.5184
18787TIP3    H277853   1.948   2.131   4.909 -0.1657 -1.1028  1.7880
18788TIP3   OH277854   1.858   2.244   5.524  0.4653  0.0657 -0.4910
18788TIP3    H177855   1.925   2.229   5.590  0.1448  1.2580  0.1299
18788TIP3    H277856   1.812   2.161   5.516  0.6906 -0.1673  0.5745
18789TIP3   OH277857   3.360   2.571  40.705 -0.2192  0.4536 -0.4289
18789TIP3    H177858   3.375   2.531  40.790  0.5340  1.9393  0.1723
18789TIP3    H277859   3.265   2.562  40.691 -0.0571 -1.7319 -0.4885
18790TIP3   OH277860   2.313   2.889  39.930 -0.0523 -0.3987 -0.3724
18790TIP3    H177861   2.388   2.935  39.892  0.9700 -0.8165  1.0738
18790TIP3    H277862   2.262   2.958  39.972 -0.9869  0.0112 -2.0876
18791TIP3   OH277863   2.932   0.631  35.680  0.1481 -0.0594  0.2247
18791TIP3    H177864   2.917   0.723  35.700 -0.6510 -0.0543 -0.3482
18791TIP3    H277865   2.857   0.586  35.719  0.6982 -0.5165  0.7848
18792TIP3   OH277866   3.337   3.751  38.284 -0.4617  0.2430 -0.0661
18792TIP3    H177867   3.287   3.714  38.357 -0.1972 -0.6874 -0.3516
18792TIP3    H277868   3.296   3.715  38.206 -0.7083  1.1909 -0.3946
18793TIP3   OH277869   1.115   2.622  16.289  0.0148 -0.2020  0.9503
18793TIP3    H177870   1.025   2.648  16.272 -0.1487 -0.5066  1.3425
18793TIP3    H277871   1.140   2.569  16.213 -0.4658 -0.9428  1.2938
18794TIP3   OH277872   3.474   3.356  37.728 -0.1363  0.2181  0.2214
18794TIP3    H177873   3.497   3.263  37.722  2.3570  0.7594  0.2387
18794TIP3    H277874   3.494   3.391  37.641  0.2180  0.9846  0.6057
18795TIP3   OH277875   0.691   1.920  41.138  0.2291  0.1257 -0.2151
18795TIP3    H177876   0.626   1.980  41.174 -1.1192 -1.6795  0.5018
18795TIP3    H277877   0.663   1.833  41.167  1.5315 -0.9801 -2.0371
18796TIP3   OH277878   3.910   1.473  36.834 -0.1581 -0.6016 -0.0340
18796TIP3    H177879   3.843   1.452  36.769 -0.3650  0.2298 -0.0918
18796TIP3    H277880   3.981   1.411  36.817 -1.4881 -2.4971  0.9553
18797TIP3   OH277881   0.122   2.947  35.648 -0.5899  0.2449 -0.0475
18797TIP3    H177882   0.211   2.962  35.678 -0.3285 -1.4772  0.1201
18797TIP3    H277883   0.118   2.990  35.562  0.1348  1.0145  0.2895
18798TIP3   OH277884   3.667   1.028  46.367  0.4619  0.6817  0.2020
18798TIP3    H177885   3.654   0.969  46.441  2.1380 -0.9728 -0.7207
18798TIP3    H277886   3.662   0.972  46.290 -3.6198  2.6968 -1.2874
18799TIP3   OH277887   3.603   3.768   1.251 -0.7571  0.4821  0.5718
18799TIP3    H177888   3.689   3.777   1.211 -1.4741  1.9052 -0.7891
18799TIP3    H277889   3.561   3.697   1.203 -1.0082  1.0614 -0.0802
18800TIP3   OH277890   1.519   2.644  38.338 -0.1615  0.3143 -0.0170
18800TIP3    H177891   1.434   2.686  38.328 -0.3616  0.3998  1.7552
18800TIP3    H277892   1.500   2.550  38.332  0.0228  0.3742 -2.1560
18801TIP3   OH277893   0.445   1.084  43.285 -0.3368 -0.8421  0.5078
18801TIP3    H177894   0.374   1.077  43.348 -0.1296 -0.9788  0.7315
18801TIP3    H277895   0.430   1.013  43.222  0.2211 -1.5900  1.1942
18802TIP3   OH277896   0.564   1.135   7.390 -0.3145 -0.0524  0.4981
18802TIP3    H177897   0.525   1.066   7.335  0.1259 -1.9034  2.3859
18802TIP3    H277898   0.657   1.130   7.371 -0.0746 -1.1526  1.8130
18803TIP3   OH277899   3.830   1.355   4.954  0.1372  0.0683 -0.3315
18803TIP3    H177900   3.893   1.350   5.026  0.0333 -1.6277 -0.3217
18803TIP3    H277901   3.804   1.264   4.939 -1.9020  0.6665 -0.7027
18804TIP3   OH277902   2.697   0.725   0.335 -0.1755  0.0433  0.4936
18804TIP3    H177903   2.678   0.732   0.242 -2.6017  0.1170  0.9417
18804TIP3    H277904   2.690   0.814   0.369  0.5240 -0.0071  0.8123
18805TIP3   OH277905   4.049   2.441  38.217  0.0442  0.2969  0.2145
18805TIP3    H177906   4.008   2.382  38.281  1.7694 -0.8033  0.3843
18805TIP3    H277907   4.035   2.397  38.133 -1.4190  1.2793 -0.0833
18806TIP3   OH277908   0.529   0.105  41.429  0.7349 -0.2507 -0.3612
18806TIP3    H177909   0.616   0.089  41.466  1.6516  0.5678 -2.0739
18806TIP3    H277910   0.539   0.184  41.377 -0.8812 -0.5077 -1.1221
18807TIP3   OH277911   0.157   3.682  37.980  0.4400 -0.3184  0.4310
18807TIP3    H177912   0.164   3.692  38.075  0.4201 -0.7014  0.4735
18807TIP3    H277913   0.066   3.655  37.965  1.1660 -3.2689  0.6041
18808TIP3   OH277914   3.875   3.078  46.982  0.5359 -0.6254  0.2050
18808TIP3    H177915   3.910   3.107  47.066  0.5315  0.2621 -0.0881
18808TIP3    H277916   3.907   2.988  46.972  2.0885 -0.1102  0.3139
18809TIP3   OH277917   0.179   1.675  42.826  0.2138  0.1704 -0.1550
18809TIP3    H177918   0.259   1.622  42.835  1.2587  1.4466 -1.4521
18809TIP3    H277919   0.124   1.648  42.900  1.6301 -1.1025  0.4937
18810TIP3   OH277920   1.103   1.458   0.039  0.0723 -0.0946 -0.2833
18810TIP3    H177921   1.103   1.364   0.060 -1.6572 -0.2881 -1.0080
18810TIP3    H277922   1.115   1.461  -0.056 -1.7692  0.2811 -0.5477
18811TIP3   OH277923   2.941   3.211  13.364  0.1586 -0.1258 -0.0507
18811TIP3    H177924   2.922   3.293  13.410 -0.3831 -0.1551 -0.2180
18811TIP3    H277925   2.956   3.148  13.435 -0.0024 -0.0150  0.0846
18812TIP3   OH277926   1.111   2.852   6.543 -0.4352  0.5121 -0.3277
18812TIP3    H177927   1.196   2.894   6.548  0.1367 -0.6868  0.6718
18812TIP3    H277928   1.061   2.890   6.616 -1.0759  1.8281 -1.4177
18813TIP3   OH277929   2.916   3.468  14.440 -0.3388  0.0611 -0.1310
18813TIP3    H177930   2.858   3.531  14.398 -0.4326  1.4640  1.9469
18813TIP3    H277931   2.953   3.417  14.367 -2.5197  0.5147 -1.6582
18814TIP3   OH277932   1.792   1.875   3.899 -0.3374 -0.1026  0.1330
18814TIP3    H177933   1.738   1.872   3.819  0.7412  2.2360 -0.7940
18814TIP3    H277934   1.877   1.908   3.869 -0.0493  1.3348  2.3080
18815TIP3   OH277935   0.072   1.873   3.371 -0.1897 -0.5758  0.0720
18815TIP3    H177936   0.074   1.969   3.367  0.0263 -0.6232 -1.4267
18815TIP3    H277937  -0.016   1.849   3.344  0.1998 -0.8356 -1.0082
18816TIP3   OH277938   1.051   2.034   7.770 -0.1245  0.2330  0.0947
18816TIP3    H177939   1.129   1.990   7.736 -1.0167 -2.0080  0.7623
18816TIP3    H277940   1.071   2.048   7.863 -0.8485 -1.2007  0.4813
18817TIP3   OH277941   1.621   3.691   8.979 -0.0202  0.6871  0.4585
18817TIP3    H177942   1.642   3.648   9.062 -1.1015  0.2571  0.5279
18817TIP3    H277943   1.638   3.624   8.912  1.8829  1.3731  0.2095
18818TIP3   OH277944   1.188   1.216  16.503  0.7200  0.2902  0.0473
18818TIP3    H177945   1.115   1.193  16.560  1.2304  0.8473  0.9447
18818TIP3    H277946   1.148   1.263  16.430  0.0149 -0.7842 -0.2743
18819TIP3   OH277947   3.806   2.232  11.639 -0.1133  0.3186 -0.2206
18819TIP3    H177948   3.788   2.142  11.612  1.2464 -0.5357  1.5151
18819TIP3    H277949   3.778   2.286  11.564 -1.6248 -1.4636 -1.0021
18820TIP3   OH277950   3.741   0.438   3.513  0.2604 -0.2980  0.0956
18820TIP3    H177951   3.734   0.412   3.421  0.3329  0.3100 -0.0884
18820TIP3    H277952   3.653   0.425   3.547 -0.2383  1.1584 -0.5353
18821TIP3   OH277953   0.623   3.112  47.577 -0.3592  0.0485 -0.3097
18821TIP3    H177954   0.636   3.089  47.485 -1.2825 -1.2762 -0.1504
18821TIP3    H277955   0.528   3.117  47.586 -0.2681  0.3047  0.5371
18822TIP3   OH277956   2.859   2.792  42.761  0.4975 -0.0361  0.4945
18822TIP3    H177957   2.916   2.720  42.736  0.7240  0.0487  0.7578
18822TIP3    H277958   2.799   2.802  42.687  0.8061 -0.1437  0.2246
18823TIP3   OH277959   0.295   1.281  12.479  0.4116  0.1693 -0.5076
18823TIP3    H177960   0.341   1.206  12.443 -2.2457 -1.4227 -0.8327
18823TIP3    H277961   0.223   1.298  12.418  0.0168  2.0018  0.3764
18824TIP3   OH277962   2.628   1.900  34.426 -0.5972  0.0450 -0.5863
18824TIP3    H177963   2.601   1.808  34.420  2.0136 -0.7744 -0.8095
18824TIP3    H277964   2.563   1.947  34.374 -2.0160 -1.6434 -0.4434
18825TIP3   OH277965   2.086   1.845  10.513  0.3009 -0.0496  0.6819
18825TIP3    H177966   2.073   1.782  10.583  0.0541  0.8541  1.4674
18825TIP3    H277967   2.032   1.811  10.441  0.3413 -0.8400  1.0145
18826TIP3   OH277968   0.401   3.197  37.927  0.5328 -0.9065  0.3978
18826TIP3    H177969   0.431   3.106  37.931  2.5396 -0.2741  0.9910
18826TIP3    H277970   0.449   3.235  37.853 -1.3170 -0.6300 -0.7261
18827TIP3   OH277971   2.898   1.324  36.852 -0.1145  0.6056 -0.6871
18827TIP3    H177972   2.841   1.400  36.840  0.1208  0.8053 -0.5671
18827TIP3    H277973   2.849   1.251  36.814 -0.6143  0.7008 -0.2388
18828TIP3   OH277974   1.663   1.813  15.905 -0.2810 -0.2816 -0.4595
18828TIP3    H177975   1.753   1.847  15.900  0.2013 -1.6968 -2.1295
18828TIP3    H277976   1.663   1.760  15.984  1.0318 -1.9986 -1.5487
18829TIP3   OH277977   2.502   2.913  35.645 -0.1820  0.1102  0.0615
18829TIP3    H177978   2.450   2.973  35.698 -0.3803 -0.9791  1.1482
18829TIP3    H277979   2.438   2.851  35.609  0.0993  0.1400 -0.5110
18830TIP3   OH277980   1.394   1.169  14.120 -0.1756 -0.6035 -0.3231
18830TIP3    H177981   1.460   1.121  14.070 -0.1716 -0.2516 -0.6548
18830TIP3    H277982   1.316   1.167  14.066 -0.0552  0.1244 -0.5314
18831TIP3   OH277983   0.082   2.228  45.793  0.0633 -0.3745 -0.6957
18831TIP3    H177984   0.077   2.244  45.888  2.1948 -2.2735 -0.1765
18831TIP3    H277985   0.119   2.308  45.757 -2.5824  1.1593 -0.2930
18832TIP3   OH277986   2.522   0.615  36.824 -0.0798 -0.2710  0.5238
18832TIP3    H177987   2.532   0.639  36.916 -1.7930  0.8488  0.4526
18832TIP3    H277988   2.483   0.692  36.782  0.7201 -0.7230 -1.1841
18833TIP3   OH277989   0.148   2.091   7.445  0.3843  0.3328 -0.4443
18833TIP3    H177990   0.210   2.085   7.518  0.1237 -0.7702 -0.3073
18833TIP3    H277991   0.086   2.158   7.472 -0.0708 -0.4998  0.6308
18834TIP3   OH277992   3.764   3.576  46.935  0.3033 -0.4987  0.1570
18834TIP3    H177993   3.716   3.659  46.939 -0.2102 -0.6071 -2.2636
18834TIP3    H277994   3.699   3.509  46.955  0.2835 -0.4283  0.3273
18835TIP3   OH277995   0.178   3.912  36.985 -0.0550  0.0881  0.4306
18835TIP3    H177996   0.260   3.918  36.937 -0.4718 -0.5681 -0.3899
18835TIP3    H277997   0.110   3.913  36.917 -0.6556 -0.8565  0.9928
18836TIP3   OH277998   2.430   0.339  43.576 -0.2696  0.2977  0.0528
18836TIP3    H177999   2.479   0.290  43.642 -0.1039  1.0186  0.4784
18836TIP3    H278000   2.386   0.272  43.523  0.6252 -0.3275  0.0971
18837TIP3   OH278001   2.231   0.940   5.753  0.0612  0.6501 -0.1087
18837TIP3    H178002   2.180   1.017   5.726  0.5897  1.5089  1.2268
18837TIP3    H278003   2.168   0.884   5.798  0.0922  1.3371  0.8277
18838TIP3   OH278004   0.677   2.805   5.212  0.2726 -0.2402  0.0393
18838TIP3    H178005   0.591   2.774   5.242  0.8801 -0.4842  1.6415
18838TIP3    H278006   0.657   2.874   5.149 -1.0981 -1.9911 -1.5661
18839TIP3   OH278007   0.309   3.870  34.518  0.3152 -0.4746 -0.6609
18839TIP3    H178008   0.260   3.911  34.447 -0.3492 -0.6921 -0.3361
18839TIP3    H278009   0.367   3.808  34.474  1.9887  1.4026 -1.2408
18840TIP3   OH278010   2.028   0.342  12.718 -0.2364 -0.1778 -0.5264
18840TIP3    H178011   2.053   0.374  12.805 -1.8681 -0.9610  0.2601
18840TIP3    H278012   2.102   0.289  12.690  1.0682  1.4934 -0.4079
18841TIP3   OH278013   4.034   3.975  36.862  0.0110 -0.2222 -0.3088
18841TIP3    H178014   4.018   3.959  36.955  0.1812 -0.2731 -0.2887
18841TIP3    H278015   3.950   3.954  36.820 -0.0917 -0.1191 -0.1599
18842TIP3   OH278016   1.928   0.946   5.304 -0.2840 -0.0911  0.6647
18842TIP3    H178017   1.949   0.862   5.264  0.7288  0.1037  0.7450
18842TIP3    H278018   1.999   1.004   5.275 -1.0883  0.7901  0.4297
18843TIP3   OH278019   0.933   3.808  12.292  0.0396  0.6302 -0.3303
18843TIP3    H178020   0.969   3.876  12.349 -0.1539 -0.0142  0.5941
18843TIP3    H278021   0.947   3.726  12.341 -1.5306  0.2210 -0.4848
18844TIP3   OH278022   0.030   0.991  36.462 -0.6499  0.2972  0.4671
18844TIP3    H178023  -0.064   1.013  36.461 -0.8284 -0.0713  2.6930
18844TIP3    H278024   0.032   0.897  36.477  0.0330  0.5348  2.0241
18845TIP3   OH278025   1.311   1.248  31.304 -0.2610 -0.0930 -1.0257
18845TIP3    H178026   1.232   1.206  31.272 -1.7049  1.8137 -0.1200
18845TIP3    H278027   1.319   1.328  31.252  0.0474  0.6194  0.0684
18846TIP3   OH278028   1.478   3.234   0.090  0.5563 -0.7142 -0.1744
18846TIP3    H178029   1.510   3.275   0.009  1.3087 -0.7238  0.1182
18846TIP3    H278030   1.384   3.225   0.075  0.7024 -0.8613 -1.1164
18847TIP3   OH278031   1.571   4.096  46.803 -0.5252  0.1300  0.7885
18847TIP3    H178032   1.578   4.158  46.876 -1.4531 -1.0928  1.9725
18847TIP3    H278033   1.614   4.140  46.730 -1.2315  2.1959  1.5451
18848TIP3   OH278034   3.329   3.136  43.889 -0.7995  0.5852  0.1006
18848TIP3    H178035   3.361   3.227  43.886  0.5244  0.2509  2.1724
18848TIP3    H278036   3.266   3.135  43.960 -0.9798 -0.0860 -0.0648
18849TIP3   OH278037   1.257   1.875  38.374 -0.2174  0.3586 -0.4816
18849TIP3    H178038   1.237   1.801  38.317 -0.2800  0.3040 -0.3875
18849TIP3    H278039   1.351   1.867  38.391 -0.2903  0.1109 -0.1995
18850TIP3   OH278040   0.365   3.853   8.956 -0.3797  0.3444 -0.2075
18850TIP3    H178041   0.316   3.934   8.970 -1.1904 -0.0457 -0.6916
18850TIP3    H278042   0.336   3.795   9.026 -1.2706 -0.1775 -0.9907
18851TIP3   OH278043   1.806   2.597  42.975 -0.2570 -0.2769 -0.4868
18851TIP3    H178044   1.712   2.591  42.956 -0.4493 -0.6417  0.5224
18851TIP3    H278045   1.838   2.507  42.965 -0.4908 -0.6086  1.4573
18852TIP3   OH278046   0.764   3.991  13.044  0.5200  0.0412  0.0841
18852TIP3    H178047   0.837   4.011  13.103 -0.3072 -2.2244  2.0450
18852TIP3    H278048   0.803   3.939  12.974  0.7785 -1.7384  1.4803
18853TIP3   OH278049   3.264   0.858  14.931 -0.4046  0.4429 -0.2606
18853TIP3    H178050   3.203   0.848  14.858  1.2317 -0.7276 -1.5421
18853TIP3    H278051   3.210   0.842  15.009 -1.7293 -0.5927 -1.3347
18854TIP3   OH278052   3.525   1.918  33.587  0.3992  0.7004  0.0269
18854TIP3    H178053   3.453   1.866  33.552  1.3692 -1.0972  0.6298
18854TIP3    H278054   3.499   2.009  33.567 -3.1190  0.3763  2.1529
18855TIP3   OH278055   0.890   3.363  43.927  0.3727  0.5238  0.2992
18855TIP3    H178056   0.985   3.365  43.937  0.2438  0.6707  1.6173
18855TIP3    H278057   0.866   3.452  43.901  0.7269  0.1059 -1.5866
18856TIP3   OH278058   3.808   2.125  47.662 -0.2960 -0.0219 -0.1695
18856TIP3    H178059   3.889   2.076  47.646  0.0682  0.8448 -1.0846
18856TIP3    H278060   3.838   2.212  47.689 -0.9314  0.0736  0.2330
18857TIP3   OH278061   0.402   0.066   4.791 -0.5589  0.5109 -0.1089
18857TIP3    H178062   0.347   0.122   4.737  0.0938  0.7276 -0.5683
18857TIP3    H278063   0.348  -0.012   4.807 -1.7164  1.5282  1.0953
18858TIP3   OH278064   3.422   2.228  47.746 -0.1852 -0.0695  0.1666
18858TIP3    H178065   3.347   2.271  47.705 -0.0978 -0.9211 -0.9363
18858TIP3    H278066   3.396   2.136  47.754  0.7501 -0.3842 -0.2775
18859TIP3   OH278067   1.308   0.321  47.661 -0.6126  0.5189  0.0843
18859TIP3    H178068   1.314   0.417  47.664  0.4090  0.4549  0.6215
18859TIP3    H278069   1.216   0.303  47.640 -1.1632  1.6016  1.4295
18860TIP3   OH278070   0.931   0.690  25.108  0.4226  0.1497  0.0462
18860TIP3    H178071   0.983   0.732  25.039  0.6401  2.0898  1.3334
18860TIP3    H278072   0.996   0.657  25.170  0.2692 -2.3766 -0.9958
18861TIP3   OH278073   3.051   0.536  10.888 -0.4208 -0.0187  0.0823
18861TIP3    H178074   3.145   0.525  10.875 -0.4582  0.3016 -0.4923
18861TIP3    H278075   3.030   0.619  10.846 -0.5234  1.2311  2.3922
18862TIP3   OH278076   3.346   0.509  46.751  0.2759  0.6471 -0.2833
18862TIP3    H178077   3.282   0.503  46.821 -0.5005 -0.1209 -1.0295
18862TIP3    H278078   3.354   0.419  46.718  3.1119  0.3540  0.9716
18863TIP3   OH278079   2.459   3.391  27.448  0.5394 -0.1275 -0.3858
18863TIP3    H178080   2.475   3.419  27.358  1.8825 -1.6782 -0.6806
18863TIP3    H278081   2.545   3.399  27.491 -0.0353  0.3782  0.7058
18864TIP3   OH278082   3.050   1.980  11.226 -0.4934 -0.8388  0.8743
18864TIP3    H178083   3.109   2.041  11.182 -1.4850 -0.5519 -0.1148
18864TIP3    H278084   2.980   2.036  11.261 -0.0189 -1.1333  2.3359
18865TIP3   OH278085   1.969   2.859  20.932 -0.2742  0.3437  0.3530
18865TIP3    H178086   2.041   2.877  20.872  1.3588 -1.8872  1.4611
18865TIP3    H278087   1.961   2.938  20.985  2.4991  0.1307  1.2262
18866TIP3   OH278088   1.452   1.634  20.728 -0.0156 -0.2292  0.1291
18866TIP3    H178089   1.421   1.614  20.640 -2.3853  0.0198  0.8277
18866TIP3    H278090   1.374   1.667  20.774  1.5785  1.5806  1.7439
18867TIP3   OH278091   2.158   2.464   2.245 -0.3655 -0.1342 -0.0780
18867TIP3    H178092   2.076   2.512   2.235 -1.2174 -1.4438  0.3098
18867TIP3    H278093   2.139   2.377   2.210 -0.1699 -1.4961  2.8866
18868TIP3   OH278094   3.503   0.631   1.810  0.4935 -0.1434  0.2580
18868TIP3    H178095   3.503   0.616   1.716  0.0917 -1.0934  0.4012
18868TIP3    H278096   3.514   0.726   1.819 -1.2034  0.2026 -0.7957
18869TIP3   OH278097   0.967   0.578  47.142  0.2884 -0.2735 -0.0591
18869TIP3    H178098   0.923   0.648  47.192 -0.2382 -0.3975 -0.3385
18869TIP3    H278099   0.909   0.503  47.153  1.0487 -0.7833  0.5608
18870TIP3   OH278100   2.536   2.445  33.593 -0.5352 -0.3764 -0.1901
18870TIP3    H178101   2.563   2.491  33.513 -0.2872  1.3984  0.8684
18870TIP3    H278102   2.610   2.387  33.613  0.7142  1.3304  0.3433
18871TIP3   OH278103   4.043   1.854   9.110  0.7698 -0.0902  0.3108
18871TIP3    H178104   3.949   1.854   9.090  0.8961 -0.6976 -0.3140
18871TIP3    H278105   4.060   1.943   9.142 -0.1817 -0.2235  1.2708
18872TIP3   OH278106   4.086   3.459  10.443  0.6973 -0.7334  0.3648
18872TIP3    H178107   4.061   3.459  10.351  2.4110 -0.8428 -0.1524
18872TIP3    H278108   4.016   3.412  10.488 -0.4967 -0.0915 -0.7717
18873TIP3   OH278109   3.076   2.369  11.307  0.3474 -0.0989 -0.2588
18873TIP3    H178110   3.075   2.379  11.402 -0.0992  1.1985 -0.3934
18873TIP3    H278111   3.137   2.296  11.292  0.5121 -0.2428  1.0043
18874TIP3   OH278112   1.516   2.935   1.035 -0.0549 -0.6045  0.2106
18874TIP3    H178113   1.544   2.870   1.100  1.5905 -1.0002 -0.8402
18874TIP3    H278114   1.573   3.011   1.051  0.8382 -0.9585 -1.1792
18875TIP3   OH278115   3.965   3.398   8.818  0.4947 -0.0020  0.4577
18875TIP3    H178116   3.950   3.472   8.759 -1.1167 -0.9413 -0.3845
18875TIP3    H278117   3.932   3.322   8.770  1.6937 -1.2242  1.4715
18876TIP3   OH278118   2.124   0.288  14.324 -0.5635  0.3691 -0.0311
18876TIP3    H178119   2.138   0.258  14.414 -2.7069  1.5159  0.7356
18876TIP3    H278120   2.050   0.236  14.292 -3.2103  3.3858  0.7282
18877TIP3   OH278121   2.432   0.517  41.983 -0.0805 -0.2242 -0.3551
18877TIP3    H178122   2.437   0.583  41.913 -0.5967 -0.4562 -0.6192
18877TIP3    H278123   2.399   0.438  41.939 -1.7285  0.0004  0.3732
18878TIP3   OH278124   0.307   2.377  37.393  0.4669 -0.3221 -0.2484
18878TIP3    H178125   0.329   2.394  37.485 -1.4440  1.9566 -0.1097
18878TIP3    H278126   0.272   2.460  37.362  0.4696 -1.2358 -2.8871
18879TIP3   OH278127   1.861   1.304  39.910  0.5270  0.4058 -0.3281
18879TIP3    H178128   1.776   1.308  39.865 -0.5451  0.5720  1.6074
18879TIP3    H278129   1.839   1.314  40.003  2.3207 -2.8052  0.5744
18880TIP3   OH278130   1.709   3.239  45.398 -0.2038 -0.5540 -0.0442
18880TIP3    H178131   1.784   3.182  45.413 -0.0714 -0.0864  1.3044
18880TIP3    H278132   1.746   3.316  45.355 -0.4553 -1.6074 -2.2858
18881TIP3   OH278133   1.904   1.522  16.023  0.3526 -0.0435  0.8530
18881TIP3    H178134   1.898   1.481  15.937  0.7016 -2.0804  1.7503
18881TIP3    H278135   1.823   1.572  16.031  0.7661  1.0049 -1.0313
18882TIP3   OH278136   2.199   2.500   4.172  0.0630  0.2632 -0.2124
18882TIP3    H178137   2.154   2.474   4.091  0.3087 -0.9014  0.0074
18882TIP3    H278138   2.229   2.590   4.155 -0.3401  0.2204 -1.2151
18883TIP3   OH278139   2.751   0.520  44.094 -0.0980 -0.7846 -0.0409
18883TIP3    H178140   2.735   0.561  44.009  1.3177  2.2391  1.0071
18883TIP3    H278141   2.749   0.426  44.076 -3.0602 -0.3826 -2.7569
18884TIP3   OH278142   3.639   2.803  46.180 -0.0014  0.5473  0.4254
18884TIP3    H178143   3.648   2.845  46.095 -2.1712  1.3440  0.5073
18884TIP3    H278144   3.705   2.845  46.235  1.7053 -0.2768 -0.9232
18885TIP3   OH278145   3.039   1.580  19.242  0.1680 -0.7461  0.0537
18885TIP3    H178146   2.991   1.498  19.248 -0.0006 -0.5479  2.3469
18885TIP3    H278147   3.129   1.557  19.264  0.6922 -0.7100 -1.8695
18886TIP3   OH278148   2.021   3.768  40.722 -0.0042 -0.0765  0.5972
18886TIP3    H178149   1.934   3.769  40.762 -0.1162  0.0053  0.3549
18886TIP3    H278150   2.013   3.828  40.648  0.3142  0.0801  0.6918
18887TIP3   OH278151   3.118   0.543   6.471  0.2284  0.1812  0.1689
18887TIP3    H178152   3.063   0.482   6.519  0.4490  0.3183  0.5993
18887TIP3    H278153   3.158   0.490   6.402  0.7015 -0.2416  0.7583
18888TIP3   OH278154   3.109   0.840   9.603  0.2481  0.1921  0.1885
18888TIP3    H178155   3.155   0.762   9.571 -0.5584 -0.2501  0.0706
18888TIP3    H278156   3.051   0.864   9.530  1.2982  1.5811 -0.2197
18889TIP3   OH278157   1.468   2.268  33.342 -0.1480 -0.1524  0.5224
18889TIP3    H178158   1.537   2.262  33.409 -0.5127  2.1360  1.2213
18889TIP3    H278159   1.397   2.214  33.376  0.9736 -1.9166  0.1733
18890TIP3   OH278160   2.498   0.075  31.781 -0.2155  0.0977  0.0942
18890TIP3    H178161   2.531   0.035  31.861  1.2521 -1.8894 -1.4263
18890TIP3    H278162   2.411   0.106  31.804 -0.9556 -2.8754  1.7631
18891TIP3   OH278163   0.159   0.143  44.773  0.0223  0.0517 -0.4939
18891TIP3    H178164   0.181   0.236  44.764 -0.5369  0.1741 -0.5899
18891TIP3    H278165   0.065   0.142  44.787  0.2980 -0.3511  1.7215
18892TIP3   OH278166   0.313   1.477  13.377 -0.2823 -0.3054 -0.4793
18892TIP3    H178167   0.304   1.382  13.386  0.4679 -0.5654 -2.1617
18892TIP3    H278168   0.403   1.490  13.348 -0.7482  0.8235 -1.4984
18893TIP3   OH278169   2.223   3.482  33.785 -0.2280 -0.1320  0.5435
18893TIP3    H178170   2.250   3.511  33.698 -1.6603  1.4623  0.5843
18893TIP3    H278171   2.132   3.511  33.793 -0.2233 -0.5007  2.4685
18894TIP3   OH278172   2.167   1.506  45.021 -0.1921 -0.1716  0.1808
18894TIP3    H178173   2.151   1.592  45.060  0.8455  0.1423 -0.0462
18894TIP3    H278174   2.183   1.524  44.928 -2.6413 -0.9120 -0.4622
18895TIP3   OH278175   0.687   2.460  34.036  0.0630  0.2993  0.2742
18895TIP3    H178176   0.646   2.414  34.109  2.7919 -1.5124  0.8405
18895TIP3    H278177   0.686   2.552  34.062  0.4411 -0.2351  2.3874
18896TIP3   OH278178   1.157   2.005  43.501 -0.9411 -0.0465 -0.2831
18896TIP3    H178179   1.063   2.026  43.506 -0.9382 -0.2804  1.3149
18896TIP3    H278180   1.186   2.044  43.419 -2.4615 -0.0737 -0.8735
18897TIP3   OH278181   4.020   3.171  12.742  0.4411  0.2034  0.2077
18897TIP3    H178182   4.090   3.219  12.786  0.4477 -1.0573  1.6437
18897TIP3    H278183   4.059   3.145  12.658  0.6091  2.1821 -0.3665
18898TIP3   OH278184   0.545   0.827  37.696 -0.1124  0.0315  0.2784
18898TIP3    H178185   0.573   0.877  37.620 -2.9543 -1.2076 -1.7833
18898TIP3    H278186   0.462   0.866  37.722 -1.7768 -2.6138 -0.5989
18899TIP3   OH278187   0.468   2.199  37.082 -0.1598 -0.1766 -0.0123
18899TIP3    H178188   0.471   2.285  37.039  2.3895 -1.3071 -2.3383
18899TIP3    H278189   0.544   2.200  37.140  0.0068 -0.9332 -0.2174
18900TIP3   OH278190   2.972   0.417  31.959  0.4622 -0.1749 -0.3634
18900TIP3    H178191   3.040   0.424  32.027  0.7902 -1.8659 -0.4851
18900TIP3    H278192   3.015   0.446  31.879  0.8753 -0.6859 -0.3323
18901TIP3   OH278193   3.587   2.406  16.602 -0.7964  0.1258  0.3994
18901TIP3    H178194   3.625   2.493  16.591 -2.3696  0.9782  1.2865
18901TIP3    H278195   3.596   2.388  16.696 -1.0139 -0.4066  0.3229
18902TIP3   OH278196   0.518   0.689   0.008  0.1748 -0.3600  0.3262
18902TIP3    H178197   0.486   0.765  -0.041  1.0695 -0.8336 -1.0314
18902TIP3    H278198   0.506   0.713   0.100 -0.6519  0.9385 -0.0961
18903TIP3   OH278199   0.767   2.857  15.245 -0.6931  0.3232  0.0709
18903TIP3    H178200   0.745   2.786  15.185  2.1209 -0.3290 -0.3268
18903TIP3    H278201   0.717   2.838  15.324 -1.7735 -0.7870 -0.8502
18904TIP3   OH278202   1.387   3.419  38.449 -0.4716  0.7972  0.7990
18904TIP3    H178203   1.320   3.458  38.392 -0.7826  1.5429  1.6431
18904TIP3    H278204   1.466   3.416  38.395 -0.5961  2.0666  0.5096
18905TIP3   OH278205   1.360   3.591  44.082  0.0939  0.7143 -0.2572
18905TIP3    H178206   1.393   3.641  44.008 -1.5923 -0.4990 -1.8989
18905TIP3    H278207   1.321   3.513  44.044 -1.4726  0.3701  1.8483
18906TIP3   OH278208   4.098   1.570   5.651 -0.0769 -0.4565  0.3356
18906TIP3    H178209   4.192   1.555   5.647 -0.0758 -0.3024 -2.6506
18906TIP3    H278210   4.089   1.658   5.687  1.0021 -0.1527 -0.0935
18907TIP3   OH278211   1.989   0.944   7.798  0.0003  0.1545 -0.1859
18907TIP3    H178212   1.982   0.947   7.703 -0.2589 -1.6647 -0.2645
18907TIP3    H278213   1.936   0.868   7.823  0.4578  0.3119  1.3630
18908TIP3   OH278214   1.714   3.561  14.093 -0.0482  0.2156 -0.2352
18908TIP3    H178215   1.784   3.524  14.039 -0.5458 -0.9413 -0.1088
18908TIP3    H278216   1.746   3.551  14.183 -0.3941 -0.3686 -0.1747
18909TIP3   OH278217   0.340   0.283  12.449 -0.3802  0.1558  0.2927
18909TIP3    H178218   0.409   0.260  12.512 -2.2913  0.0964  2.5066
18909TIP3    H278219   0.359   0.374  12.425  0.9359 -0.1321  0.1998
18910TIP3   OH278220   0.492   1.166  12.687 -0.0747 -0.4789  0.7299
18910TIP3    H178221   0.505   1.072  12.678  0.3281 -0.3841  0.2774
18910TIP3    H278222   0.425   1.188  12.623 -0.5724 -0.5374  1.2161
18911TIP3   OH278223   2.237   1.349  36.373  0.2893  0.5454 -0.0479
18911TIP3    H178224   2.268   1.267  36.334 -2.1787 -1.0206  1.0860
18911TIP3    H278225   2.261   1.343  36.465  0.0488  1.1062  0.0586
18912TIP3   OH278226   0.508   1.861  13.380 -0.0354 -0.1999  0.8715
18912TIP3    H178227   0.515   1.896  13.291 -0.5183  2.3083  1.7587
18912TIP3    H278228   0.588   1.888  13.424  0.2931 -1.6024  1.2075
18913TIP3   OH278229   2.079   1.734   9.529  0.0404 -0.0338 -0.5411
18913TIP3    H178230   1.985   1.736   9.547 -0.0948 -1.6647 -0.8645
18913TIP3    H278231   2.119   1.708   9.612 -0.0469 -1.7511 -1.0011
18914TIP3   OH278232   2.135   1.732  38.996 -0.1413  0.0170  0.6848
18914TIP3    H178233   2.136   1.827  39.005 -1.9149 -0.1026  3.0787
18914TIP3    H278234   2.183   1.699  39.071  0.6701 -1.0258 -0.2475
18915TIP3   OH278235   2.642   0.209  33.696  0.1877  0.0517  0.2017
18915TIP3    H178236   2.665   0.235  33.785  0.1162 -1.2419  0.6213
18915TIP3    H278237   2.704   0.139  33.674 -0.6278 -0.5532 -0.2432
18916TIP3   OH278238   3.855   1.272   8.010 -0.4208  0.0162 -0.2791
18916TIP3    H178239   3.864   1.287   7.917 -4.1132 -0.3152 -0.8546
18916TIP3    H278240   3.870   1.178   8.021  3.1622  0.4949  0.1264
18917TIP3   OH278241   0.279   1.127  36.429 -0.0324 -0.3483  0.2651
18917TIP3    H178242   0.274   1.141  36.335 -0.4780  1.2696  0.4937
18917TIP3    H278243   0.202   1.074  36.450 -0.5555  0.2307 -0.1484
18918TIP3   OH278244   2.398   3.012  34.924  0.6347 -0.0320 -0.3966
18918TIP3    H178245   2.422   3.064  34.847  0.7589 -0.0210 -0.3485
18918TIP3    H278246   2.306   2.990  34.910  0.3401  0.9020 -0.0250
18919TIP3   OH278247   1.302   3.753  10.682 -0.5516  0.3691  0.4695
18919TIP3    H178248   1.227   3.696  10.666  0.6213 -1.6927  1.8040
18919TIP3    H278249   1.293   3.824  10.618 -0.8096 -2.5573 -3.0609
18920TIP3   OH278250   3.166   0.465  37.699  0.0313  0.3496  0.2798
18920TIP3    H178251   3.126   0.405  37.762  1.1139 -0.6610  0.0270
18920TIP3    H278252   3.212   0.408  37.637 -0.2201  1.3670 -0.8827
18921TIP3   OH278253   3.361   3.296  12.642 -0.0040 -0.4788  0.3348
18921TIP3    H178254   3.328   3.384  12.622  2.1120  0.2804 -0.0038
18921TIP3    H278255   3.323   3.241  12.574 -1.3334  0.1572  0.5243
18922TIP3   OH278256   2.606   2.754  31.403 -0.8664  0.3509  0.1247
18922TIP3    H178257   2.663   2.829  31.417 -1.5696  0.8587  0.3013
18922TIP3    H278258   2.632   2.719  31.318 -0.3196  0.5963  0.1887
18923TIP3   OH278259   3.282   4.055  33.552 -0.2672  0.2933 -0.5062
18923TIP3    H178260   3.220   3.996  33.509  0.0344 -0.2349 -0.2262
18923TIP3    H278261   3.228   4.109  33.610 -0.3834 -0.6924  0.3257
18924TIP3   OH278262   3.793   0.974  16.634  0.1994 -0.1603  0.4483
18924TIP3    H178263   3.734   0.942  16.565  0.1955  0.5494  0.1080
18924TIP3    H278264   3.734   1.013  16.699  0.1439 -1.6349  1.3029
18925TIP3   OH278265   0.191   2.028  42.570  0.6496 -0.3297  0.3628
18925TIP3    H178266   0.267   1.972  42.581  1.6581  1.3681  3.3678
18925TIP3    H278267   0.126   1.993  42.631 -0.8536 -1.4019 -1.7345
18926TIP3   OH278268   2.882   0.629  41.467  0.3065  0.0894  0.1438
18926TIP3    H178269   2.863   0.612  41.560 -0.6791  0.6194  0.0509
18926TIP3    H278270   2.963   0.680  41.468  0.5425 -0.2898  0.6895
18927TIP3   OH278271   1.552   1.085  11.753  0.4248 -0.7351  0.1157
18927TIP3    H178272   1.600   1.115  11.676 -1.5001  0.6873 -0.6067
18927TIP3    H278273   1.548   1.162  11.810 -1.8061 -0.4811 -0.2950
18928TIP3   OH278274   2.061   1.414  10.638  0.3985 -0.0952  0.0344
18928TIP3    H178275   2.012   1.429  10.557  0.4695  1.0539  0.1915
18928TIP3    H278276   2.061   1.319  10.649 -4.2330 -0.2076  1.4554
18929TIP3   OH278277   3.477   1.721   6.669  0.2484  0.3038  0.0342
18929TIP3    H178278   3.456   1.699   6.760 -0.4394  0.9169  0.0290
18929TIP3    H278279   3.493   1.636   6.627 -0.4644 -0.0551  0.4741
18930TIP3   OH278280   2.668   3.739  11.769 -0.3419  0.0352  0.1735
18930TIP3    H178281   2.633   3.662  11.725  0.8323 -0.5103  0.1662
18930TIP3    H278282   2.651   3.722  11.862  1.6012 -1.1599  0.3574
18931TIP3   OH278283   2.330   1.476   4.264 -0.6904 -1.0808  0.0506
18931TIP3    H178284   2.318   1.384   4.288  1.2578 -1.9445 -1.9476
18931TIP3    H278285   2.420   1.495   4.291 -1.0618  0.2474  0.4076
18932TIP3   OH278286   4.041   2.773  34.453  0.0475 -0.2171 -0.3645
18932TIP3    H178287   3.964   2.718  34.437 -1.4713  1.3085  1.2677
18932TIP3    H278288   4.069   2.749  34.542  1.0406 -0.2420 -0.6739
18933TIP3   OH278289   1.600   1.396  15.333  0.1341  0.5344 -0.6854
18933TIP3    H178290   1.612   1.310  15.293  0.3144  0.6229 -0.8210
18933TIP3    H278291   1.640   1.388  15.419 -0.0719  0.4071 -0.5996
18934TIP3   OH278292   0.680   2.680  16.514 -0.2577 -0.1868  0.4437
18934TIP3    H178293   0.702   2.725  16.595  0.0267  0.0987  0.2128
18934TIP3    H278294   0.725   2.730  16.446 -1.3490  0.2118 -0.0121
18935TIP3   OH278295   2.447   0.769  39.604  0.6832  0.4161  0.5503
18935TIP3    H178296   2.490   0.825  39.539  1.7717 -0.8952  0.0897
18935TIP3    H278297   2.391   0.711  39.553  1.6015 -0.6744  0.7429
18936TIP3   OH278298   2.625   2.026   9.755  1.0661  0.4985  0.2351
18936TIP3    H178299   2.679   1.951   9.729  0.9407 -0.0718  1.5428
18936TIP3    H278300   2.566   1.991   9.821 -0.4331  1.2863 -0.6311
18937TIP3   OH278301   1.373   2.676   6.580 -0.6467 -0.0815  0.4043
18937TIP3    H178302   1.375   2.586   6.611 -0.9428 -0.6484 -1.1301
18937TIP3    H278303   1.427   2.675   6.501 -1.6350  0.8062 -0.3059
18938TIP3   OH278304   0.508   3.451  27.357 -0.5016  0.4020  0.2296
18938TIP3    H178305   0.424   3.405  27.351 -0.3406 -0.0817  1.3809
18938TIP3    H278306   0.567   3.387  27.398  0.3534  0.8361 -0.3129
18939TIP3   OH278307   3.484   2.744  15.047 -0.2386 -0.2223 -0.5364
18939TIP3    H178308   3.453   2.665  15.093  1.8550 -0.8532 -0.1111
18939TIP3    H278309   3.485   2.718  14.955  1.4445 -1.1081 -0.3055
18940TIP3   OH278310   1.717   1.067   3.868  0.4485 -0.2485 -0.0662
18940TIP3    H178311   1.763   1.014   3.934 -1.3448  0.0771  1.5433
18940TIP3    H278312   1.765   1.150   3.868 -0.0976  0.1113  1.6247
18941TIP3   OH278313   1.435   3.646  27.951 -0.6918  0.3224 -0.4024
18941TIP3    H178314   1.458   3.624  28.041 -1.5137  0.0869 -0.2433
18941TIP3    H278315   1.491   3.589  27.898 -2.0108 -1.4249 -0.0023
18942TIP3   OH278316   1.807   3.448  39.885 -0.0502  0.4975  0.1649
18942TIP3    H178317   1.820   3.364  39.928  0.8931  1.2415  1.3971
18942TIP3    H278318   1.793   3.427  39.793 -2.6909 -1.2046  0.8456
18943TIP3   OH278319   1.278   2.510  14.020  0.6591 -0.2443  0.0509
18943TIP3    H178320   1.334   2.587  14.030  2.1187 -1.1407 -0.7276
18943TIP3    H278321   1.195   2.544  13.989  1.0653  1.0701  0.3557
18944TIP3   OH278322   2.939   1.814  43.738 -0.5233 -0.0043  0.0191
18944TIP3    H178323   2.852   1.852  43.752 -0.8010 -0.3544 -0.7407
18944TIP3    H278324   2.996   1.890  43.725 -1.3180  0.1972 -2.9345
18945TIP3   OH278325   3.308   2.306  45.796 -0.0172  0.2344  0.0232
18945TIP3    H178326   3.302   2.386  45.848 -0.0796  1.7440 -2.1641
18945TIP3    H278327   3.260   2.326  45.715  1.1887 -1.4912 -1.1969
18946TIP3   OH278328   3.442   0.036  40.179  0.0268  0.1534  0.4716
18946TIP3    H178329   3.350   0.028  40.202  0.0468 -2.2475 -0.0458
18946TIP3    H278330   3.486   0.053  40.263 -0.8528  1.6985  0.6735
18947TIP3   OH278331   2.239   1.017  45.841  0.0461  0.6623  0.8248
18947TIP3    H178332   2.240   1.093  45.783 -0.1466  0.4296  0.5172
18947TIP3    H278333   2.293   1.043  45.916  1.2024  0.5506  0.0422
18948TIP3   OH278334   2.788   2.045   2.325 -0.4909  0.1512  0.1130
18948TIP3    H178335   2.696   2.020   2.325 -0.2134 -0.9926  1.5553
18948TIP3    H278336   2.830   1.980   2.269 -0.3149 -0.3532  0.8294
18949TIP3   OH278337   2.510   2.728   5.250 -0.0961 -0.2379  0.8903
18949TIP3    H178338   2.556   2.740   5.333  0.4395 -0.3892  0.6221
18949TIP3    H278339   2.478   2.638   5.253 -0.5620 -0.0652  1.1674
18950TIP3   OH278340   3.843   4.070   8.042  0.7977  1.2174 -0.4425
18950TIP3    H178341   3.930   4.039   8.016 -0.3745 -2.9118 -0.2676
18950TIP3    H278342   3.852   4.093   8.135  1.4151 -0.8926  0.0738
18951TIP3   OH278343   0.290   3.702   4.522  0.0216 -0.5970  0.3039
18951TIP3    H178344   0.304   3.792   4.550 -0.3529 -0.3508 -0.2708
18951TIP3    H278345   0.369   3.655   4.549  0.6251  0.0991 -0.2117
18952TIP3   OH278346   0.839   1.649  14.795 -0.2074 -0.3031 -0.3391
18952TIP3    H178347   0.822   1.741  14.775 -1.2029 -0.0625  1.4037
18952TIP3    H278348   0.806   1.602  14.718  1.0716  0.7961 -1.6251
18953TIP3   OH278349   0.635   3.805  40.132  0.1978 -0.3811 -0.4290
18953TIP3    H178350   0.727   3.780  40.122  1.2501  3.2268 -1.4150
18953TIP3    H278351   0.634   3.857  40.213 -1.0636 -0.6978 -0.2335
18954TIP3   OH278352   1.511   1.781  31.725  0.3476  0.1050  0.0572
18954TIP3    H178353   1.438   1.724  31.750  0.7112  0.4770  2.1703
18954TIP3    H278354   1.563   1.728  31.665 -0.0205 -1.3303  0.9398
18955TIP3   OH278355   0.557   2.263  37.345  0.3084  0.8192  0.2093
18955TIP3    H178356   0.465   2.292  37.346  0.1174  0.3402 -1.2519
18955TIP3    H278357   0.558   2.184  37.398 -0.0086  1.1382  0.6961
18956TIP3   OH278358   3.740   1.356  37.396  0.6908  0.2902 -0.0135
18956TIP3    H178359   3.749   1.364  37.301  0.5951  0.1778 -0.0320
18956TIP3    H278360   3.664   1.411  37.417  1.0545  0.7581  0.0736
18957TIP3   OH278361   2.429   3.441  37.852 -0.1447  0.3628  0.1441
18957TIP3    H178362   2.395   3.531  37.856 -2.2380 -0.3874  0.8169
18957TIP3    H278363   2.424   3.418  37.759 -0.1709  0.7500  0.0482
18958TIP3   OH278364   3.983   1.387   5.485 -0.7141  0.0260 -0.1520
18958TIP3    H178365   4.064   1.337   5.496 -1.5453 -1.5265 -0.7697
18958TIP3    H278366   3.983   1.449   5.558  0.0982 -1.2628  0.9926
18959TIP3   OH278367   1.668   0.090   0.978  0.5114 -0.5266  0.5518
18959TIP3    H178368   1.668   0.183   0.954 -0.4327 -0.3595  1.1504
18959TIP3    H278369   1.612   0.085   1.056  1.1634 -1.4881  0.9846
18960TIP3   OH278370   1.810   2.600   2.734  0.2285  0.5434 -0.1112
18960TIP3    H178371   1.745   2.634   2.796 -0.3278  0.3770 -0.5930
18960TIP3    H278372   1.856   2.678   2.703  1.5590  0.5201  1.6168
18961TIP3   OH278373   2.299   1.377   9.976 -0.1819  0.4409  0.0423
18961TIP3    H178374   2.282   1.432   9.899 -0.9274  0.5462  0.2718
18961TIP3    H278375   2.368   1.317   9.948  0.5890  1.4330 -0.2478
18962TIP3   OH278376   2.028   0.464   2.261  0.6088  0.4662 -0.0533
18962TIP3    H178377   2.057   0.507   2.341  0.1703  1.8757 -0.6399
18962TIP3    H278378   2.001   0.377   2.290 -0.7203  1.3607  1.5337
18963TIP3   OH278379   0.782   1.747  17.395 -0.3143 -0.0575 -0.1056
18963TIP3    H178380   0.696   1.767  17.358  0.4080 -0.3958 -2.1230
18963TIP3    H278381   0.816   1.677  17.339  2.0188  1.3245 -0.5524
18964TIP3   OH278382   1.462   3.323   1.929  0.4677  0.0193 -0.1153
18964TIP3    H178383   1.386   3.310   1.986 -1.2493  0.8227 -2.0670
18964TIP3    H278384   1.478   3.238   1.889  1.2491 -0.3818  1.0007
18965TIP3   OH278385   2.726   1.193   4.855  0.3864  0.7539  0.0375
18965TIP3    H178386   2.630   1.193   4.859  0.2162 -0.8910 -2.0449
18965TIP3    H278387   2.754   1.185   4.946 -1.5038  0.1189  0.6128
18966TIP3   OH278388   1.138   1.111  46.748 -0.0249  0.0212 -0.2891
18966TIP3    H178389   1.194   1.110  46.671  0.1864 -0.8236 -0.1315
18966TIP3    H278390   1.130   1.019  46.774 -1.8751  0.0613 -0.5887
18967TIP3   OH278391   3.764   3.481  10.689  0.6333  0.2108 -0.5259
18967TIP3    H178392   3.857   3.489  10.710  0.7995 -1.1870 -0.6592
18967TIP3    H278393   3.735   3.405  10.739  0.0281 -0.5697 -2.0160
18968TIP3   OH278394   2.967   0.123  37.952  0.3105 -0.1794 -0.1448
18968TIP3    H178395   3.017   0.043  37.933  0.6298 -0.0797  0.2629
18968TIP3    H278396   2.923   0.144  37.869  1.6168  0.1939 -0.7781
18969TIP3   OH278397   3.141   3.812   1.280  0.0026  0.2434  0.4894
18969TIP3    H178398   3.224   3.859   1.287  0.1921 -0.1215  0.6885
18969TIP3    H278399   3.103   3.819   1.367 -1.4237  2.6867 -0.2276
18970TIP3   OH278400   2.085   0.218   3.694  0.2850  0.2186 -0.7772
18970TIP3    H178401   2.044   0.226   3.608 -4.3751  0.4236  1.1538
18970TIP3    H278402   2.099   0.309   3.721  1.3819  0.1624 -1.1268
18971TIP3   OH278403   2.729   2.140  37.892  0.8147 -0.0937 -0.5845
18971TIP3    H178404   2.741   2.048  37.915 -0.3489 -0.0792  0.1357
18971TIP3    H278405   2.766   2.189  37.966 -1.3525 -0.0344  0.5282
18972TIP3   OH278406   2.966   2.709  35.137  0.1983 -0.4630 -1.0400
18972TIP3    H178407   2.923   2.659  35.068  0.9062  0.6952 -2.3717
18972TIP3    H278408   3.054   2.724  35.104  0.0970  1.3959 -0.5497
18973TIP3   OH278409   2.391   2.394  34.342  0.0515 -0.7801 -0.2995
18973TIP3    H178410   2.304   2.401  34.301 -0.1074  0.6798  0.2262
18973TIP3    H278411   2.426   2.312  34.309 -1.3929 -1.2340 -0.8067
18974TIP3   OH278412   0.884   3.649   1.771 -0.0006  0.3130  0.1572
18974TIP3    H178413   0.935   3.641   1.690  1.3629  3.2522  0.6105
18974TIP3    H278414   0.794   3.661   1.742 -0.1407 -2.2797 -0.7365
18975TIP3   OH278415   1.862   1.410  12.926  0.2321  0.0546 -0.3106
18975TIP3    H178416   1.788   1.402  12.866  0.8310  0.1851 -1.0747
18975TIP3    H278417   1.940   1.411  12.870  0.7161  2.3190  0.2945
18976TIP3   OH278418   3.464   1.423  38.114 -0.1088  0.0150 -0.0272
18976TIP3    H178419   3.406   1.363  38.162 -0.2305  0.1066 -0.0574
18976TIP3    H278420   3.521   1.365  38.063  1.3400 -0.1537  1.6998
18977TIP3   OH278421   3.561   3.879  11.483 -0.0909 -0.5000  0.0654
18977TIP3    H178422   3.654   3.866  11.469 -0.6773 -2.2130 -3.1969
18977TIP3    H278423   3.542   3.964  11.443  0.2062  0.5354  1.9925
18978TIP3   OH278424   1.444   1.738  35.368 -0.0020  0.2614  0.0374
18978TIP3    H178425   1.459   1.689  35.449 -0.8295  0.0810  0.0863
18978TIP3    H278426   1.522   1.722  35.316 -0.6188 -1.9019 -0.3214
18979TIP3   OH278427   2.847   1.886  45.336 -0.3564  0.0351  0.3406
18979TIP3    H178428   2.897   1.963  45.308 -2.2660  0.7481 -1.3171
18979TIP3    H278429   2.902   1.812  45.310 -0.2422  0.7863 -1.7398
18980TIP3   OH278430   3.090   4.052  41.852 -0.3443  0.4355 -0.1650
18980TIP3    H178431   3.068   4.074  41.942 -1.9148  0.3776 -0.5058
18980TIP3    H278432   3.162   4.111  41.830  0.5429 -0.0360  1.3325
18981TIP3   OH278433   0.164   1.292  10.525 -0.1367 -0.0750  0.0465
18981TIP3    H178434   0.094   1.355  10.513  0.5060  0.9371  1.3533
18981TIP3    H278435   0.242   1.345  10.539  0.3570 -1.1226  1.5333
18982TIP3   OH278436   1.961   2.160  16.158  0.0740  0.1219 -0.2467
18982TIP3    H178437   1.914   2.200  16.230 -0.5784  1.0891 -1.1721
18982TIP3    H278438   1.894   2.140  16.093  0.0151 -4.3405  0.8588
18983TIP3   OH278439   3.852   0.713   8.259 -0.2913  0.0104  0.1703
18983TIP3    H178440   3.781   0.777   8.257 -0.5168 -0.2301  0.5245
18983TIP3    H278441   3.826   0.650   8.325  1.3529  1.2027  2.0781
18984TIP3   OH278442   3.172   2.075  15.177  0.3580  0.3439  0.2029
18984TIP3    H178443   3.101   2.138  15.186 -2.0171 -2.0574 -0.3841
18984TIP3    H278444   3.129   1.990  15.181  3.0647 -1.2513 -1.5547
18985TIP3   OH278445   2.311   3.356  36.935  0.4939 -0.3593 -0.0088
18985TIP3    H178446   2.390   3.379  36.984 -1.0193  0.4124  2.2178
18985TIP3    H278447   2.279   3.439  36.901  0.5248 -0.6460 -0.7580
18986TIP3   OH278448   4.064   3.905  43.274 -0.3537 -0.2394  0.1342
18986TIP3    H178449   4.120   3.831  43.252  0.6609  0.2961  0.8495
18986TIP3    H278450   4.123   3.980  43.281 -0.7906 -0.0116  2.8408
18987TIP3   OH278451   0.470   1.230   0.798 -0.7489 -0.1941  0.9441
18987TIP3    H178452   0.509   1.285   0.866 -1.3588  1.8303 -0.2334
18987TIP3    H278453   0.390   1.196   0.839 -0.0376 -0.7578  1.9092
18988TIP3   OH278454   0.858   1.145   2.227  0.0721  0.0162  0.6525
18988TIP3    H178455   0.858   1.148   2.323 -1.2388 -3.0590  0.8510
18988TIP3    H278456   0.771   1.176   2.202 -1.0074 -2.6714  0.7733
18989TIP3   OH278457   1.076   0.377   7.357  0.3977  0.0715  0.4680
18989TIP3    H178458   0.983   0.402   7.364  0.6856  1.7304 -0.9382
18989TIP3    H278459   1.104   0.413   7.273  2.1722 -0.9669  0.5710
18990TIP3   OH278460   2.507   3.797   9.168  0.4397 -0.2222  0.3669
18990TIP3    H178461   2.493   3.892   9.168 -1.1661 -0.4379  0.2183
18990TIP3    H278462   2.602   3.787   9.160  0.6630  1.3725  0.7134
18991TIP3   OH278463   2.095   1.088  10.394 -0.2761  0.6646 -0.4312
18991TIP3    H178464   2.150   1.010  10.393 -1.0225  0.0473 -3.2764
18991TIP3    H278465   2.042   1.080  10.473 -1.2567 -2.4663 -1.2592
18992TIP3   OH278466   2.742   3.024   7.544 -0.6781 -0.1369 -0.8233
18992TIP3    H178467   2.721   3.104   7.592 -0.7885  0.2439 -1.4972
18992TIP3    H278468   2.827   3.041   7.504  0.0118 -0.9267  0.2447
18993TIP3   OH278469   1.687   3.453  33.021 -0.3994  0.1245 -0.5554
18993TIP3    H178470   1.673   3.446  32.926  3.5713  0.6657 -1.3240
18993TIP3    H278471   1.654   3.540  33.043 -1.1668  0.0813 -1.4364
18994TIP3   OH278472   0.909   3.670   0.765  0.1759 -0.3181 -0.0423
18994TIP3    H178473   0.832   3.683   0.710 -0.6233  0.9622  1.3248
18994TIP3    H278474   0.875   3.668   0.854  1.7019  0.0168  0.5718
18995TIP3   OH278475   1.947   0.119  35.177 -0.1911 -0.1393 -0.4157
18995TIP3    H178476   1.924   0.170  35.255 -0.1154  1.8174 -1.5914
18995TIP3    H278477   1.879   0.141  35.114  1.6693  1.2041 -2.0511
18996TIP3   OH278478   1.418   2.585   5.034 -0.6267 -0.3880  0.0829
18996TIP3    H178479   1.417   2.596   4.939 -0.1661 -0.2234  0.0949
18996TIP3    H278480   1.485   2.517   5.049 -0.5322 -0.2454  0.3027
18997TIP3   OH278481   3.875   0.476   5.326  0.2943 -0.1311 -0.1822
18997TIP3    H178482   3.940   0.524   5.378  0.2119  1.5636 -1.5780
18997TIP3    H278483   3.906   0.385   5.329  0.4258 -0.1051  2.5727
18998TIP3   OH278484   2.156   1.834  46.638 -0.4861  0.3476 -0.2183
18998TIP3    H178485   2.076   1.787  46.615  0.6685 -0.9376 -1.9473
18998TIP3    H278486   2.196   1.854  46.553  1.1046  0.8022  0.6090
18999TIP3   OH278487   2.447   2.398   0.371 -1.0498 -0.6012  0.1522
18999TIP3    H178488   2.434   2.421   0.463 -1.1149 -2.6527  0.6937
18999TIP3    H278489   2.538   2.423   0.353 -0.5649 -1.4824  1.2172
19000TIP3   OH278490   1.039   1.704   4.853 -0.0479 -0.0994  0.3436
19000TIP3    H178491   1.062   1.671   4.940  0.3843 -0.1063  0.2300
19000TIP3    H278492   1.123   1.720   4.810 -0.2417 -1.5637 -0.6385
19001TIP3   OH278493   2.646   3.226  34.429  0.7510 -0.1323  0.3666
19001TIP3    H178494   2.589   3.155  34.402  0.9411 -0.0122 -0.3894
19001TIP3    H278495   2.731   3.185  34.445  0.9763 -0.0237 -0.4981
19002TIP3   OH278496   3.714   1.597   2.652  0.2350 -0.1339  0.0176
19002TIP3    H178497   3.693   1.690   2.663 -0.6677 -0.4900  1.5827
19002TIP3    H278498   3.665   1.570   2.574  1.5648  0.9779 -1.2661
19003TIP3   OH278499   2.888   0.936  39.248 -0.0971  0.0216 -0.2969
19003TIP3    H178500   2.915   0.858  39.199  1.0944  1.2101 -1.6286
19003TIP3    H278501   2.792   0.932  39.247 -0.0744 -0.8606 -1.2978
19004TIP3   OH278502   3.503   3.942   1.916  0.4005  0.3894 -0.0211
19004TIP3    H178503   3.524   3.975   1.828  1.1780  2.2640  0.8084
19004TIP3    H278504   3.553   3.860   1.924  0.6918  0.4415 -1.1545
19005TIP3   OH278505   3.666   3.459  43.666  0.3481 -0.5025 -0.9471
19005TIP3    H178506   3.712   3.437  43.747 -0.5733  1.3180  0.1127
19005TIP3    H278507   3.710   3.537  43.633 -2.3201  1.8497  0.5664
19006TIP3   OH278508   0.532   2.530  44.064  0.1109  0.0879 -0.3457
19006TIP3    H178509   0.528   2.572  44.151 -0.6174  0.0186 -0.3441
19006TIP3    H278510   0.537   2.603  44.003  0.7841  0.1361 -0.2517
19007TIP3   OH278511   1.636   0.199  27.284  0.1805 -0.0320  0.3546
19007TIP3    H178512   1.582   0.124  27.310 -0.8272  0.0943 -1.1862
19007TIP3    H278513   1.574   0.259  27.242  1.3019  0.7763 -0.1941
19008TIP3   OH278514   4.053   2.042  12.308 -0.2502  0.1221 -0.2237
19008TIP3    H178515   4.119   2.092  12.260 -0.3193 -0.1646 -0.6201
19008TIP3    H278516   4.074   1.950  12.291  0.7853 -0.0511  1.7143
19009TIP3   OH278517   2.467   2.462   8.916  0.2694 -0.4202 -0.1099
19009TIP3    H178518   2.514   2.495   8.992 -2.0648  0.5489  1.0224
19009TIP3    H278519   2.399   2.405   8.953 -1.1989  0.4172 -1.3987
19010TIP3   OH278520   2.972   0.564  36.641 -0.0655 -0.0952 -0.6890
19010TIP3    H178521   3.026   0.505  36.589 -0.5851 -0.4313 -0.8617
19010TIP3    H278522   2.912   0.506  36.688 -0.0027  0.2466 -0.1830
19011TIP3   OH278523   1.245   1.283   7.696 -0.2258  0.2821 -0.0559
19011TIP3    H178524   1.229   1.189   7.682 -0.3616  0.1608  0.8163
19011TIP3    H278525   1.328   1.300   7.652  0.0590 -0.3679  0.2133
19012TIP3   OH278526   1.751   0.286  14.368  0.0554  0.5194  0.1054
19012TIP3    H178527   1.815   0.226  14.330 -1.1214 -1.2818  0.8680
19012TIP3    H278528   1.799   0.329  14.440  1.0306  0.8640 -0.7152
19013TIP3   OH278529   2.977   1.935   1.597 -0.2515  0.0240  0.3106
19013TIP3    H178530   3.055   1.950   1.544  1.2228 -2.3252  1.6353
19013TIP3    H278531   2.904   1.940   1.534  1.2038 -0.2893 -1.4871
19014TIP3   OH278532   2.851   0.934  13.205 -0.2653 -0.2635  0.3866
19014TIP3    H178533   2.930   0.891  13.173 -1.8313 -2.2106 -1.1184
19014TIP3    H278534   2.811   0.971  13.127 -0.7184  0.9823  1.1798
19015TIP3   OH278535   2.652   1.534  13.110  0.1177 -0.4350  0.0709
19015TIP3    H178536   2.576   1.541  13.167  0.3321  0.1615  0.2981
19015TIP3    H278537   2.668   1.624  13.081  0.7564 -0.5466  0.0585
19016TIP3   OH278538   2.073   1.906   3.832 -0.2701  0.2108 -0.6220
19016TIP3    H178539   2.151   1.915   3.885 -0.9604  2.9449  0.0859
19016TIP3    H278540   2.087   1.965   3.758 -0.6605 -1.1333 -1.8111
19017TIP3   OH278541   1.577   1.268  13.382 -0.0213 -0.2299  0.6843
19017TIP3    H178542   1.556   1.339  13.321 -0.6036 -1.0284 -0.0741
19017TIP3    H278543   1.549   1.188  13.337  1.3384 -1.0254  1.1848
19018TIP3   OH278544   3.515   3.197  35.785 -0.1673 -0.3231 -0.4585
19018TIP3    H178545   3.464   3.121  35.758 -1.3247  0.5187 -0.7758
19018TIP3    H278546   3.487   3.214  35.876 -0.6002  0.2311 -0.6828
19019TIP3   OH278547   0.053   1.426   9.620  0.3012 -0.0988 -0.4684
19019TIP3    H178548   0.135   1.377   9.615  0.4950  0.2990 -1.3606
19019TIP3    H278549   0.011   1.411   9.536 -0.1856  0.3202 -0.3046
19020TIP3   OH278550   2.788   1.297  46.657  0.7050 -0.5580  0.8258
19020TIP3    H178551   2.694   1.288  46.673  0.5880 -0.4723  0.2312
19020TIP3    H278552   2.820   1.207  46.660  0.7463 -0.5182  1.8137
19021TIP3   OH278553   0.351   3.197  33.125  0.1841 -0.6946 -0.2796
19021TIP3    H178554   0.376   3.288  33.106  1.4968 -0.8038  0.7623
19021TIP3    H278555   0.256   3.200  33.135  0.1481  0.4609 -0.8153
19022TIP3   OH278556   1.626   4.019  26.757  0.0447 -0.0311  0.1495
19022TIP3    H178557   1.703   3.982  26.716  0.4199  0.0495  0.7691
19022TIP3    H278558   1.640   4.008  26.851 -0.5875  0.1945  0.2827
19023TIP3   OH278559   1.091   1.902   4.383 -0.2040  0.2845 -0.5349
19023TIP3    H178560   1.182   1.893   4.354  0.7723  2.1622  1.5658
19023TIP3    H278561   1.057   1.813   4.384  1.7043 -0.5074 -1.1420
19024TIP3   OH278562   1.748   3.016   5.205  0.5916  0.4491 -0.2095
19024TIP3    H178563   1.705   3.083   5.152  1.6983  1.0366 -0.3881
19024TIP3    H278564   1.816   3.063   5.253  0.4399 -0.2990  0.7692
19025TIP3   OH278565   1.894   1.606  14.868  0.4081  0.0175  0.2446
19025TIP3    H178566   1.954   1.674  14.899  0.0685 -0.7764  2.9534
19025TIP3    H278567   1.807   1.639  14.892  0.2443 -1.2900  1.5914
19026TIP3   OH278568   1.296   2.438  44.914 -0.0771 -0.0746  0.0359
19026TIP3    H178569   1.231   2.369  44.897  0.5300 -0.4894 -0.6457
19026TIP3    H278570   1.363   2.394  44.965  0.7790 -0.2611 -1.2010
19027TIP3   OH278571   2.484   2.265  11.919  0.1805  0.1325  0.5717
19027TIP3    H178572   2.458   2.173  11.912 -1.2272  0.3372  2.2853
19027TIP3    H278573   2.554   2.276  11.855 -0.4811 -1.8148 -0.5639
19028TIP3   OH278574   1.798   3.450  28.765  0.2720  0.0469 -0.2778
19028TIP3    H178575   1.735   3.500  28.817 -0.4593 -1.0869 -0.0460
19028TIP3    H278576   1.750   3.373  28.735  1.4934 -0.7626 -0.2402
19029TIP3   OH278577   0.133   0.137   3.252 -0.3802 -0.7489  0.7937
19029TIP3    H178578   0.173   0.058   3.214 -1.9920 -2.4406  2.4340
19029TIP3    H278579   0.040   0.129   3.232 -0.8202 -0.1746  2.4796
19030TIP3   OH278580   3.056   0.595   2.346  0.1980  0.3396  0.6547
19030TIP3    H178581   2.970   0.606   2.389 -0.0713  0.1200  0.1764
19030TIP3    H278582   3.071   0.678   2.301  1.1832  1.1604  2.3836
19031TIP3   OH278583   0.152   0.003   8.630 -0.7003 -0.2687 -0.4249
19031TIP3    H178584   0.123   0.090   8.603 -0.6842 -0.1146  0.0442
19031TIP3    H278585   0.077  -0.033   8.678 -1.1230 -0.9547 -1.5663
19032TIP3   OH278586   3.012   3.755  29.966  0.3494 -0.1819 -0.0114
19032TIP3    H178587   2.981   3.747  29.876  0.0138 -0.2475  0.1081
19032TIP3    H278588   3.091   3.701  29.969 -0.7592 -1.8851  0.2436
19033TIP3   OH278589   3.422   0.895  41.398  0.2710  0.0596 -0.3820
19033TIP3    H178590   3.497   0.854  41.354  0.0497 -0.2337 -0.4947
19033TIP3    H278591   3.461   0.953  41.463  0.5952 -0.4011 -0.1549
19034TIP3   OH278592   3.040   3.891  46.047 -0.2996  0.2872 -0.2453
19034TIP3    H178593   3.089   3.943  46.111 -0.3623 -0.2871  0.2819
19034TIP3    H278594   2.977   3.842  46.100 -0.4815 -0.0573 -0.7731
19035TIP3   OH278595   1.708   0.059   9.747 -0.0842 -0.3005  0.2391
19035TIP3    H178596   1.783   0.017   9.706 -1.2405 -2.2985  0.0356
19035TIP3    H278597   1.671   0.114   9.678  0.7535  0.1384  0.1245
19036TIP3   OH278598   1.219   0.691  45.764 -0.1881  0.6157 -0.4148
19036TIP3    H178599   1.175   0.694  45.680  0.2899  0.2190 -0.6827
19036TIP3    H278600   1.311   0.676  45.743 -0.0273  0.7430  0.1690
19037TIP3   OH278601   1.887   2.135  35.270 -0.2685 -0.0374 -0.1214
19037TIP3    H178602   1.968   2.181  35.292 -1.5513  1.7977  1.0153
19037TIP3    H278603   1.829   2.203  35.235 -1.4433 -1.2461 -0.6549
19038TIP3   OH278604   0.353   2.878   1.199  0.3880 -1.0182 -0.2161
19038TIP3    H178605   0.307   2.879   1.283  1.8432 -1.1958  0.6278
19038TIP3    H278606   0.284   2.880   1.133 -0.8075 -1.3220  0.9867
19039TIP3   OH278607   2.863   3.913  12.339  0.3048 -0.2728  0.1557
19039TIP3    H178608   2.795   3.980  12.341  1.1714  0.6353  0.1568
19039TIP3    H278609   2.881   3.894  12.431  0.8757  0.3612  0.1815
19040TIP3   OH278610   1.649   0.467  39.116  0.5934 -0.2881  0.0856
19040TIP3    H178611   1.581   0.522  39.078  1.6573  1.3925  0.4909
19040TIP3    H278612   1.621   0.378  39.098 -1.4800  0.3621 -0.1305
19041TIP3   OH278613   3.018   2.435  15.477  0.6042  0.5650 -0.4274
19041TIP3    H178614   2.965   2.512  15.500  0.1896 -0.4176  2.3999
19041TIP3    H278615   3.108   2.462  15.493  0.3293 -0.7621  6.1350
19042TIP3   OH278616   2.675   3.283   2.649 -0.3311  0.5607 -0.0754
19042TIP3    H178617   2.733   3.274   2.725 -0.2398 -2.9471 -0.3986
19042TIP3    H278618   2.731   3.264   2.574 -1.1142  0.7976 -0.7277
19043TIP3   OH278619   1.228   3.123  26.907  0.6870 -0.7233  0.3558
19043TIP3    H178620   1.169   3.048  26.902 -0.7168  0.2332  1.6400
19043TIP3    H278621   1.307   3.095  26.862 -0.3015 -2.4826 -0.3728
19044TIP3   OH278622   0.714   1.026   6.975  0.3302 -0.4667  0.0450
19044TIP3    H178623   0.713   1.021   7.070  0.0155 -2.5568 -0.0354
19044TIP3    H278624   0.754   0.944   6.946  0.4112  0.1158 -1.6343
19045TIP3   OH278625   3.380   0.791  12.682  0.5443  0.1925  0.1789
19045TIP3    H178626   3.397   0.807  12.589 -0.4586  1.9714  0.2452
19045TIP3    H278627   3.465   0.774  12.720  1.2720  1.6463 -0.7062
19046TIP3   OH278628   1.722   2.409  10.070 -0.4802 -0.1383 -0.2325
19046TIP3    H178629   1.789   2.413  10.001 -0.8259 -2.7794 -0.8329
19046TIP3    H278630   1.729   2.493  10.115  2.9804 -0.1103 -0.5225
19047TIP3   OH278631   3.279   3.553  40.047  0.1905 -0.3283 -0.1198
19047TIP3    H178632   3.352   3.497  40.019 -2.1719 -3.9980  0.3472
19047TIP3    H278633   3.294   3.568  40.140  0.8013 -0.2562 -0.2269
19048TIP3   OH278634   2.797   3.790   3.198 -0.5518 -0.7203 -0.4018
19048TIP3    H178635   2.717   3.777   3.147 -0.0688  1.1294 -1.7386
19048TIP3    H278636   2.866   3.752   3.145 -0.4733 -2.1660  0.6749
19049TIP3   OH278637   2.658   1.594  33.322  0.4486  0.0589  0.2105
19049TIP3    H178638   2.568   1.567  33.340  0.1955  1.1734  0.6847
19049TIP3    H278639   2.682   1.545  33.243 -1.3643  1.3657 -1.2521
19050TIP3   OH278640   0.954   0.638  26.190 -0.2911  0.0395  0.3207
19050TIP3    H178641   1.001   0.558  26.213 -1.5149 -0.8275 -0.0840
19050TIP3    H278642   0.962   0.644  26.095 -0.3156  0.3370  0.3362
19051TIP3   OH278643   2.741   1.523  11.859 -0.7327  0.4595 -0.3530
19051TIP3    H178644   2.762   1.433  11.835 -0.2256  0.8363 -1.3828
19051TIP3    H278645   2.648   1.521  11.883 -0.9535 -0.1741 -1.2201
19052TIP3   OH278646   2.243   2.069  31.441  0.1468 -0.3283 -0.8805
19052TIP3    H178647   2.176   2.027  31.387 -1.0380 -0.2092  0.4187
19052TIP3    H278648   2.216   2.161  31.445 -0.9253 -0.6657  1.4254
19053TIP3   OH278649   0.641   2.690  32.244  0.1576 -0.5530  0.4014
19053TIP3    H178650   0.714   2.628  32.238  1.0194  0.5060 -0.5858
19053TIP3    H278651   0.563   2.638  32.224  0.7260 -1.5413  0.7054
19054TIP3   OH278652   3.774   2.936  31.814 -0.0066 -0.3303 -0.2634
19054TIP3    H178653   3.813   3.009  31.766  1.0870  0.6273  1.9279
19054TIP3    H278654   3.751   2.872  31.747  1.4055  0.9372 -2.0389
19055TIP3   OH278655   2.534   2.209  39.578 -0.4818  0.2595  0.1141
19055TIP3    H178656   2.582   2.292  39.579  0.3847 -0.2050 -1.0383
19055TIP3    H278657   2.447   2.232  39.544 -0.2956  0.7111 -0.0640
19056TIP3   OH278658   3.512   1.365  13.696  0.2039 -0.0916  0.2233
19056TIP3    H178659   3.484   1.456  13.689 -0.8947 -0.5265 -1.4660
19056TIP3    H278660   3.572   1.364  13.771  2.1205  2.4821 -1.1273
19057TIP3   OH278661   0.276   3.655  39.063 -0.2303 -0.0052  0.6974
19057TIP3    H178662   0.333   3.645  39.139 -0.2881  1.1295  0.9109
19057TIP3    H278663   0.335   3.688  38.994 -0.1020 -1.3650  0.1274
19058TIP3   OH278664   3.330   0.975   6.424 -0.2400 -0.0795 -0.1550
19058TIP3    H178665   3.252   0.919   6.424 -0.8773  0.7850  0.3540
19058TIP3    H278666   3.390   0.931   6.484 -1.5621  0.8314  1.9598
19059TIP3   OH278667   2.766   2.407  13.215  0.0821 -0.0481 -0.1356
19059TIP3    H178668   2.774   2.365  13.301  0.0971  0.0970 -0.0669
19059TIP3    H278669   2.792   2.339  13.153  1.4280  0.2702  0.0547
19060TIP3   OH278670   1.981   3.018   1.659  0.7173  0.4030 -0.3648
19060TIP3    H178671   2.037   2.968   1.718 -0.8265 -0.5527  0.3775
19060TIP3    H278672   1.895   2.976   1.667  0.3137  0.5831 -2.8837
19061TIP3   OH278673   0.310   0.626  24.473  0.0968  0.5917  0.4920
19061TIP3    H178674   0.271   0.617  24.386 -0.5000 -0.5604  0.8593
19061TIP3    H278675   0.240   0.602  24.533  0.4888  1.4391  1.2976
19062TIP3   OH278676   2.337   0.176  31.249  0.0150 -0.1417  0.0344
19062TIP3    H178677   2.318   0.084  31.271  0.9802 -0.6168 -1.0206
19062TIP3    H278678   2.395   0.206  31.319  2.0693 -1.2569 -1.0991
19063TIP3   OH278679   3.542   2.204   7.331 -0.1116  0.6609 -0.5385
19063TIP3    H178680   3.573   2.276   7.276 -0.0738  0.0213 -1.3821
19063TIP3    H278681   3.450   2.225   7.348 -0.1753  0.7723 -1.0067
19064TIP3   OH278682   1.573   2.157  38.244  0.6575  0.1983 -0.6274
19064TIP3    H178683   1.622   2.216  38.187 -0.6388  3.5871  1.4495
19064TIP3    H278684   1.594   2.186  38.332 -3.3850  0.5453  0.4108
19065TIP3   OH278685   2.267   3.007  13.315 -0.1354 -0.1554  0.0743
19065TIP3    H178686   2.227   3.034  13.233 -0.6808  2.3738  1.0602
19065TIP3    H278687   2.215   2.932  13.344  0.3982 -1.4182 -2.0700
19066TIP3   OH278688   2.007   0.948  40.626  0.2218 -0.6240  0.0778
19066TIP3    H178689   1.930   0.968  40.573  1.2896  1.1538 -0.9305
19066TIP3    H278690   2.080   0.951  40.563  1.0899 -2.6516  0.9169
19067TIP3   OH278691   2.887   3.808  36.134  0.0577 -0.2533 -0.2789
19067TIP3    H178692   2.858   3.854  36.056 -2.2114 -0.8451  0.1384
19067TIP3    H278693   2.983   3.818  36.135 -0.0816  1.6649 -1.8823
19068TIP3   OH278694   3.182   0.512  35.548 -0.0794 -0.0659 -0.1128
19068TIP3    H178695   3.109   0.523  35.609 -0.0170  0.4126 -0.1242
19068TIP3    H278696   3.214   0.424  35.567  0.0210  0.1231  0.6379
19069TIP3   OH278697   1.882   4.014  46.808  0.0260 -0.0762  0.3093
19069TIP3    H178698   1.876   4.023  46.903 -0.0958  0.5778  0.2478
19069TIP3    H278699   1.933   4.090  46.781  0.7912 -0.7104 -0.0684
19070TIP3   OH278700   3.800   3.369  13.597 -0.0766 -0.0922  0.0278
19070TIP3    H178701   3.808   3.274  13.603  2.1072  0.0230 -0.3738
19070TIP3    H278702   3.793   3.387  13.503  1.7283  0.2371 -0.0763
19071TIP3   OH278703   0.206   3.038  13.799  0.4291  0.1994 -0.2209
19071TIP3    H178704   0.206   3.072  13.888 -0.2409 -0.7574  0.1655
19071TIP3    H278705   0.151   3.099  13.750  1.0184  0.8803 -0.0582
19072TIP3   OH278706   2.455   1.150   4.891 -0.2513 -0.7551 -0.0562
19072TIP3    H178707   2.390   1.220   4.886 -0.8053 -1.2498  0.1902
19072TIP3    H278708   2.410   1.077   4.934  0.3570 -1.2248 -0.1945
19073TIP3   OH278709   1.902   1.321  15.841  0.4639 -0.3326  0.2078
19073TIP3    H178710   1.808   1.315  15.830  0.2869  1.5249  0.2604
19073TIP3    H278711   1.923   1.257  15.909 -0.5969 -1.4113 -0.4494
19074TIP3   OH278712   3.633   2.336  38.292 -0.4767 -0.2732  0.6665
19074TIP3    H178713   3.587   2.377  38.219 -0.4330 -0.6397  0.4282
19074TIP3    H278714   3.696   2.276  38.250  0.3439  0.3463  0.9809
19075TIP3   OH278715   1.374   2.417   1.962  0.2710  0.1537 -0.1663
19075TIP3    H178716   1.296   2.411   2.018 -0.5865 -2.2584 -1.4851
19075TIP3    H278717   1.447   2.396   2.021 -0.3971 -0.3982  0.4976
19076TIP3   OH278718   3.614   2.493  10.632  0.3975 -0.2160 -0.1024
19076TIP3    H178719   3.568   2.521  10.712 -0.4731 -1.0135 -0.2936
19076TIP3    H278720   3.571   2.410  10.608  2.0278 -1.0705 -0.2386
19077TIP3   OH278721   0.887   0.813   8.361 -0.2444  0.5659  0.1673
19077TIP3    H178722   0.953   0.776   8.302  0.2075 -1.2295  1.7170
19077TIP3    H278723   0.861   0.740   8.416 -2.8594  1.4852  0.2508
19078TIP3   OH278724   1.010   2.978  47.043  0.2625  0.2321 -0.1101
19078TIP3    H178725   0.928   2.988  47.092 -0.5467  0.3495 -1.4224
19078TIP3    H278726   1.072   3.034  47.089 -0.9123  1.6788 -0.1942
19079TIP3   OH278727   1.899   0.223  45.924  0.2808 -0.0178 -0.2164
19079TIP3    H178728   1.839   0.296  45.942 -2.1713 -1.5737 -1.5295
19079TIP3    H278729   1.924   0.191  46.011 -0.0605  1.2297  0.3711
19080TIP3   OH278730   1.422   0.495  15.113 -0.3835  0.2287  0.4393
19080TIP3    H178731   1.516   0.483  15.125 -0.1964 -0.6464 -1.4020
19080TIP3    H278732   1.382   0.423  15.162  0.0022 -0.1120  0.2619
19081TIP3   OH278733   0.602   2.228   7.688 -0.3164 -0.5070 -0.2476
19081TIP3    H178734   0.646   2.205   7.769 -1.5774 -0.8413  0.3779
19081TIP3    H278735   0.632   2.162   7.625  0.0726 -0.7211  0.1559
19082TIP3   OH278736   4.016   3.526  32.976  0.0517 -0.6309  0.2917
19082TIP3    H178737   3.985   3.615  32.959 -0.6858 -1.0731 -0.7444
19082TIP3    H278738   3.950   3.489  33.034  2.0160  0.5190  3.5635
19083TIP3   OH278739   0.033   1.767  16.148 -0.2717  0.5504 -0.3360
19083TIP3    H178740   0.107   1.709  16.165 -0.1564  0.8734  0.3083
19083TIP3    H278741   0.073   1.852  16.131 -0.4589  0.5425 -0.8259
19084TIP3   OH278742   2.106   3.372  35.835 -0.2715  0.3071 -0.3910
19084TIP3    H178743   2.187   3.415  35.805  0.0619  0.0607  0.1333
19084TIP3    H278744   2.061   3.347  35.755  0.8891 -0.8937 -0.7007
19085TIP3   OH278745   2.446   2.160  41.773  0.1191  0.4215 -0.5596
19085TIP3    H178746   2.495   2.211  41.837 -0.8349 -0.0249  0.5633
19085TIP3    H278747   2.453   2.070  41.804 -1.5735  0.3683 -0.2453
19086TIP3   OH278748   2.626   3.293  44.686  0.3183 -0.4549  0.0064
19086TIP3    H178749   2.611   3.201  44.666 -0.2061 -0.5652  0.8748
19086TIP3    H278750   2.571   3.340  44.624  1.5389 -0.6687 -1.2872
19087TIP3   OH278751   1.957   3.693   1.178  0.1320 -0.5740  0.0707
19087TIP3    H178752   2.052   3.686   1.175  0.1603 -0.2725  0.1429
19087TIP3    H278753   1.933   3.661   1.265  0.0944 -1.3805 -0.2342
19088TIP3   OH278754   3.113   0.807   6.462 -0.1829 -0.0814  0.8219
19088TIP3    H178755   3.124   0.712   6.469 -0.7016 -0.2578 -0.4447
19088TIP3    H278756   3.050   0.830   6.529 -0.6996 -0.7696  0.5816
19089TIP3   OH278757   0.343   2.418  16.036  0.0076 -0.0143  0.0894
19089TIP3    H178758   0.292   2.387  16.111  1.6267  1.5548  1.9400
19089TIP3    H278759   0.287   2.483  15.994 -0.3684  0.1528  0.8240
19090TIP3   OH278760   0.902   2.680   7.926  0.1819  0.0695 -0.1389
19090TIP3    H178761   0.941   2.748   7.871  0.9080  0.2269  0.5463
19090TIP3    H278762   0.977   2.631   7.960 -0.1005  0.9519  1.9362
19091TIP3   OH278763   3.407   0.622  32.624  0.3204  0.2947 -1.0757
19091TIP3    H178764   3.332   0.562  32.625 -0.4298  1.0551  2.6540
19091TIP3    H278765   3.480   0.568  32.594 -1.1627 -1.1759 -2.2830
19092TIP3   OH278766   2.749   0.299  39.120 -0.1078  0.0720  0.4977
19092TIP3    H178767   2.683   0.365  39.100 -0.3420 -0.1683  0.4725
19092TIP3    H278768   2.703   0.215  39.112 -0.4995 -0.0339  3.0241
19093TIP3   OH278769   3.748   2.889  16.463  0.3400 -0.5412  0.2918
19093TIP3    H178770   3.808   2.964  16.469  0.8031 -0.6941 -1.8035
19093TIP3    H278771   3.791   2.828  16.403 -2.5064  0.0202 -2.6174
19094TIP3   OH278772   0.126   3.017   1.829  0.2320 -0.4420  0.0585
19094TIP3    H178773   0.187   3.029   1.902  0.9711  0.3619 -0.6534
19094TIP3    H278774   0.039   3.021   1.869  0.6031 -2.7463  1.2730
19095TIP3   OH278775   1.528   1.950  38.645  0.2060 -0.0135 -0.3880
19095TIP3    H178776   1.619   1.919  38.646 -0.1979 -1.2886 -1.2146
19095TIP3    H278777   1.477   1.875  38.676 -0.5461  0.8022  0.3858
19096TIP3   OH278778   1.084   1.052   8.708 -0.5583 -1.0121 -0.2812
19096TIP3    H178779   1.036   1.080   8.630 -2.1479 -0.3405  0.8819
19096TIP3    H278780   1.024   0.991   8.751 -0.7676  0.4907  1.6601
19097TIP3   OH278781   3.035   0.323  44.283 -0.1840  0.0307 -0.2375
19097TIP3    H178782   3.018   0.403  44.233 -0.5357 -0.7550 -1.4279
19097TIP3    H278783   2.986   0.334  44.364  0.7318  1.5146  0.1450
19098TIP3   OH278784   0.831   2.231  14.123 -0.1778  0.2070  0.4810
19098TIP3    H178785   0.831   2.326  14.122  1.3465  0.2202  0.4557
19098TIP3    H278786   0.795   2.208  14.208  0.4407  0.8241  0.9171
19099TIP3   OH278787   0.495   1.441  43.129 -0.1883  0.0847  0.3034
19099TIP3    H178788   0.416   1.394  43.102  0.4793 -1.1012  0.3504
19099TIP3    H278789   0.567   1.394  43.087  0.4039  2.4408 -1.5283
19100TIP3   OH278790   1.745   1.468  35.748 -0.1790 -0.2942 -0.0005
19100TIP3    H178791   1.670   1.415  35.775 -0.0003 -0.0137  1.0752
19100TIP3    H278792   1.813   1.449  35.813  0.5020 -0.1324 -0.6555
19101TIP3   OH278793   2.883   1.661   6.808  0.0915 -0.2362 -0.0959
19101TIP3    H178794   2.792   1.633   6.809  0.5152 -1.8427 -1.2566
19101TIP3    H278795   2.931   1.588   6.848  1.0344 -0.3228 -1.3209
19102TIP3   OH278796   0.571   2.742  39.225 -0.1871  0.2877  0.3466
19102TIP3    H178797   0.623   2.813  39.188 -1.0069 -0.4297 -2.4543
19102TIP3    H278798   0.593   2.666  39.170 -1.1916 -1.0005  1.6612
19103TIP3   OH278799   0.757   3.180   8.401 -0.0405 -0.2715  0.3805
19103TIP3    H178800   0.701   3.244   8.357  0.7715 -0.2432 -0.6445
19103TIP3    H278801   0.717   3.095   8.381 -1.3959 -0.1186  2.1395
19104TIP3   OH278802   1.565   1.482  32.577  0.0424 -0.1614  0.0401
19104TIP3    H178803   1.607   1.495  32.662 -1.7955  1.2359  0.8006
19104TIP3    H278804   1.633   1.505  32.513  0.7520  1.0766  1.1762
19105TIP3   OH278805   2.215   3.391  11.292 -0.8073  0.7359 -0.1876
19105TIP3    H178806   2.302   3.364  11.264 -1.8744 -1.0309 -2.1252
19105TIP3    H278807   2.229   3.440  11.372  1.8383 -0.8719  0.4493
19106TIP3   OH278808   0.066   3.720  37.356  0.3825 -0.1891  0.3873
19106TIP3    H178809   0.120   3.644  37.377  0.5031 -0.7422 -1.7202
19106TIP3    H278810   0.016   3.694  37.278 -0.9422  1.2593  0.6909
19107TIP3   OH278811   2.558   2.383  10.622 -0.4063  0.0299 -0.0790
19107TIP3    H178812   2.567   2.469  10.663 -0.0854 -0.0748  0.0764
19107TIP3    H278813   2.596   2.393  10.535  0.6932 -0.2517  0.3560
19108TIP3   OH278814   2.625   0.642  15.007 -0.2039  0.7409 -0.3468
19108TIP3    H178815   2.533   0.614  15.001 -0.2601  1.0336 -0.8880
19108TIP3    H278816   2.620   0.732  15.040 -0.1764  1.1416 -1.3876
19109TIP3   OH278817   3.261   0.043   7.375  0.4789 -0.2219 -0.6759
19109TIP3    H178818   3.215   0.124   7.398  1.0015 -0.6327  2.1558
19109TIP3    H278819   3.350   0.072   7.355 -0.0549  0.1778 -2.6634
19110TIP3   OH278820   0.176   3.683   3.465  0.0046 -0.1826 -0.1187
19110TIP3    H178821   0.152   3.699   3.373 -1.5955  0.1801  0.3302
19110TIP3    H278822   0.138   3.597   3.485 -2.0258  0.8918  0.9324
19111TIP3   OH278823   0.648   1.496  32.333 -0.5229  0.0368  0.4040
19111TIP3    H178824   0.606   1.572  32.292 -0.7359  0.9643  2.2396
19111TIP3    H278825   0.577   1.433  32.345 -0.7356  0.3034  0.5585
19112TIP3   OH278826   0.465   0.069   1.091  0.1818  0.2508 -0.2620
19112TIP3    H178827   0.442  -0.023   1.105 -1.9772  0.5287 -1.5280
19112TIP3    H278828   0.395   0.118   1.134 -0.5447  1.2013 -2.3740
19113TIP3   OH278829   2.225   0.165  35.209  0.6149  0.3352  0.7363
19113TIP3    H178830   2.214   0.250  35.254  0.9373 -0.1993  1.8647
19113TIP3    H278831   2.135   0.136  35.192  0.5043  1.3754 -0.6094
19114TIP3   OH278832   3.728   2.875  13.075  0.3674  0.0540 -0.3656
19114TIP3    H178833   3.764   2.804  13.127 -0.4941  0.5279  0.9459
19114TIP3    H278834   3.652   2.837  13.032 -0.4369  0.2821  0.7921
19115TIP3   OH278835   3.276   2.599  44.629 -0.0757 -0.7476 -0.1338
19115TIP3    H178836   3.334   2.531  44.665 -0.2616 -1.2921 -0.8273
19115TIP3    H278837   3.335   2.659  44.584  0.3404  0.8174  2.3148
19116TIP3   OH278838   0.581   3.036  35.077  0.6002  0.5175 -0.2825
19116TIP3    H178839   0.669   3.063  35.104  0.9417  0.0086 -0.8641
19116TIP3    H278840   0.581   3.048  34.982  0.6820 -1.2615 -0.5416
19117TIP3   OH278841   3.188   1.074  14.573  0.2753 -0.5284 -0.1391
19117TIP3    H178842   3.278   1.102  14.593  0.2312 -0.6067  0.1642
19117TIP3    H278843   3.139   1.156  14.566 -0.0442 -0.5289  1.6107
19118TIP3   OH278844   0.728   0.308  41.332 -0.6820 -0.2091  0.0001
19118TIP3    H178845   0.774   0.350  41.405  0.4068 -1.0243 -0.1855
19118TIP3    H278846   0.652   0.363  41.317 -0.5837  0.3324  1.3351
19119TIP3   OH278847   2.881   3.037  32.180 -0.3096 -0.4096  0.2714
19119TIP3    H178848   2.860   2.944  32.191 -0.7782 -0.1484  1.8155
19119TIP3    H278849   2.832   3.081  32.250  0.4555  0.9237  0.0002
19120TIP3   OH278850   1.402   1.271  36.785 -0.3845 -0.2025 -0.4056
19120TIP3    H178851   1.387   1.178  36.801  1.0058 -0.4846 -0.5911
19120TIP3    H278852   1.339   1.316  36.841 -0.4374 -1.2589  0.4037
19121TIP3   OH278853   0.806   2.721  13.011 -0.1900 -0.1608  0.1144
19121TIP3    H178854   0.858   2.735  13.090  3.7589  0.1863 -2.2777
19121TIP3    H278855   0.723   2.765  13.029  0.7848  0.5115  3.7508
19122TIP3   OH278856   2.473   3.575  39.710  0.4855  0.6566 -0.0598
19122TIP3    H178857   2.493   3.508  39.775  1.7734  1.3571  0.3195
19122TIP3    H278858   2.556   3.588  39.664  0.1320  1.6493 -0.4366
19123TIP3   OH278859   3.019   0.343   9.199 -0.5269 -0.3562 -0.4827
19123TIP3    H178860   3.081   0.416   9.189 -0.9586 -0.0767 -1.1685
19123TIP3    H278861   3.021   0.323   9.292 -0.1882  0.3461 -0.3285
19124TIP3   OH278862   0.174   2.483  12.379 -0.2689 -0.2789  0.9566
19124TIP3    H178863   0.186   2.556  12.318 -1.3013  0.2856  1.3974
19124TIP3    H278864   0.220   2.511  12.458  0.9148 -0.9335  0.5375
19125TIP3   OH278865   2.093   0.132  33.675  0.2983 -0.5597 -0.1851
19125TIP3    H178866   2.159   0.082  33.723 -1.4705 -2.3881  0.4755
19125TIP3    H278867   2.095   0.096  33.587 -0.6073 -1.5280  0.1568
19126TIP3   OH278868   2.905   3.065   8.184 -0.3324  0.2668 -0.4257
19126TIP3    H178869   2.976   3.104   8.133 -0.3913  2.1361  0.8469
19126TIP3    H278870   2.928   2.972   8.189  1.6515  0.6926 -0.6451
19127TIP3   OH278871   2.862   3.726  36.577  0.1745 -0.1700 -0.0408
19127TIP3    H178872   2.823   3.709  36.491  1.0966 -1.5501 -0.2184
19127TIP3    H278873   2.869   3.821  36.581 -1.6385  0.0350 -0.6816
19128TIP3   OH278874   0.060   2.212  47.357 -0.3231  0.0098  0.1608
19128TIP3    H178875   0.074   2.218  47.263 -0.4579  0.9810  0.1878
19128TIP3    H278876   0.146   2.189  47.393 -0.0211  0.6594 -0.1217
19129TIP3   OH278877   0.414   2.045   1.168 -0.0709  0.2504 -0.0033
19129TIP3    H178878   0.320   2.060   1.161  0.0811  0.8456 -1.0106
19129TIP3    H278879   0.451   2.089   1.092  1.0675  0.3707  0.5932
19130TIP3   OH278880   2.482   3.727  30.300 -0.6237  0.1513 -0.2843
19130TIP3    H178881   2.480   3.701  30.208 -0.4515  1.2685 -0.6171
19130TIP3    H278882   2.468   3.822  30.299 -0.9931  0.1273  0.8701
19131TIP3   OH278883   3.961   0.287  34.947  0.5187 -0.0776 -0.4361
19131TIP3    H178884   3.957   0.382  34.933 -0.3488 -0.2337 -1.3693
19131TIP3    H278885   4.035   0.259  34.892  0.7348  0.0452 -0.2114
19132TIP3   OH278886   0.889   3.894  45.962 -0.6040 -0.1057 -0.1564
19132TIP3    H178887   0.836   3.845  46.025  2.3487 -2.5570  0.7017
19132TIP3    H278888   0.892   3.837  45.885  1.2005 -0.3488  0.0580
19133TIP3   OH278889   3.294   0.793   7.389  0.3105 -0.4865  0.5674
19133TIP3    H178890   3.216   0.756   7.431  1.2075 -0.9494  1.9146
19133TIP3    H278891   3.355   0.807   7.462  1.8278 -1.0005 -0.5607
19134TIP3   OH278892   3.634   0.020  44.088 -0.5981  0.3806 -0.2262
19134TIP3    H178893   3.694   0.020  44.013  0.2913 -0.2442  0.4637
19134TIP3    H278894   3.687  -0.014  44.160 -2.0051 -0.8778  0.2377
19135TIP3   OH278895   1.940   0.085  11.989 -1.1833 -0.2224 -0.1835
19135TIP3    H178896   1.909   0.015  11.931 -0.6823  0.4950 -1.3656
19135TIP3    H278897   1.861   0.132  12.015 -1.2558  1.0878 -2.5013
19136TIP3   OH278898   1.398   3.676  45.171 -0.4410 -0.9425 -0.1739
19136TIP3    H178899   1.439   3.710  45.092  0.0179 -2.1168 -0.4654
19136TIP3    H278900   1.323   3.626  45.141 -0.4807 -1.0902  0.1604
19137TIP3   OH278901   0.873   3.729  12.622 -0.2750 -0.3777  0.6740
19137TIP3    H178902   0.835   3.656  12.574 -0.6951 -0.6145  1.3505
19137TIP3    H278903   0.966   3.726  12.601 -0.6627  0.4773 -1.3575
19138TIP3   OH278904   0.100   3.822  32.905 -0.0442 -0.0775  0.1178
19138TIP3    H178905   0.060   3.760  32.845  1.2390  0.3707 -1.2601
19138TIP3    H278906   0.181   3.849  32.862 -0.0035  1.7019  1.1833
19139TIP3   OH278907   0.894   0.065  39.359 -0.3166 -0.4060  0.6660
19139TIP3    H178908   0.909   0.119  39.436 -1.1065 -0.2766  0.7345
19139TIP3    H278909   0.860   0.126  39.293  2.3954 -0.0461 -0.5518
19140TIP3   OH278910   2.865   4.036  40.493 -0.1496 -0.1333  0.4424
19140TIP3    H178911   2.855   4.078  40.407  1.6340  0.2372  0.3799
19140TIP3    H278912   2.902   4.104  40.549 -0.9510 -0.4843  1.4336
19141TIP3   OH278913   2.946   0.077  46.513  0.3206 -0.1025  0.2980
19141TIP3    H178914   2.902   0.093  46.429 -1.1007 -1.4865  0.7161
19141TIP3    H278915   3.022   0.135  46.512 -0.1277  0.5317 -1.5776
19142TIP3   OH278916   3.748   2.506  12.868 -0.3096  0.6596 -0.6945
19142TIP3    H178917   3.779   2.590  12.834  0.1628 -0.0493 -2.0700
19142TIP3    H278918   3.730   2.453  12.790 -0.4187 -0.5898  0.1470
19143TIP3   OH278919   4.056   1.897   8.119 -0.1087 -0.6256 -0.2210
19143TIP3    H178920   4.037   1.834   8.189 -0.2814  1.9023  2.1783
19143TIP3    H278921   4.140   1.936   8.144 -0.5482  0.8732 -0.9819
19144TIP3   OH278922   2.137   1.938  35.144  0.5049 -0.3804 -0.2345
19144TIP3    H178923   2.210   1.876  35.149  1.9653  1.0779 -1.9689
19144TIP3    H278924   2.178   2.023  35.160 -1.1228  0.3414  0.2439
19145TIP3   OH278925   1.852   3.474  15.361 -0.1857  0.0612 -0.0248
19145TIP3    H178926   1.780   3.512  15.311  0.8039 -0.8954 -2.2709
19145TIP3    H278927   1.900   3.421  15.299  0.6850 -1.8575  2.1365
19146TIP3   OH278928   2.262   1.306  36.645  0.2772  0.0149  0.1437
19146TIP3    H178929   2.261   1.213  36.666  0.0837 -0.2235 -0.8753
19146TIP3    H278930   2.191   1.343  36.696 -1.2653 -0.8399 -1.2758
19147TIP3   OH278931   3.734   2.048  14.223  0.3977 -0.1916 -0.1328
19147TIP3    H178932   3.800   2.019  14.160  0.1842  0.0494 -0.4732
19147TIP3    H278933   3.659   2.073  14.169  0.3080  0.2745  0.2010
19148TIP3   OH278934   2.924   2.967   3.586  0.0371 -0.1737 -0.1074
19148TIP3    H178935   2.900   3.047   3.632 -0.2468  0.5651 -1.4844
19148TIP3    H278936   3.008   2.987   3.544 -0.6164 -0.1289 -1.4696
19149TIP3   OH278937   0.468   1.348  16.211  0.0805 -0.1114  0.2942
19149TIP3    H178938   0.493   1.350  16.119  1.6212 -1.3522  0.6348
19149TIP3    H278939   0.485   1.436  16.243 -0.6958  0.3977 -0.6343
19150TIP3   OH278940   3.915   3.166  44.744 -0.1696  0.2445  0.3453
19150TIP3    H178941   3.896   3.128  44.658  1.0482  0.5053 -0.0518
19150TIP3    H278942   3.933   3.258  44.726 -2.8632  1.0383  1.2701
19151TIP3   OH278943   2.663   3.730  38.077  0.0844 -0.0910 -0.0340
19151TIP3    H178944   2.747   3.753  38.116  0.6264 -1.6345 -0.1984
19151TIP3    H278945   2.599   3.786  38.122  1.1204  0.7254  0.4732
19152TIP3   OH278946   2.877   2.556  31.525 -0.2176 -0.0216 -0.2330
19152TIP3    H178947   2.955   2.609  31.537 -1.0090  0.8684  1.2300
19152TIP3    H278948   2.870   2.543  31.430  0.2719  2.0816 -0.5880
19153TIP3   OH278949   3.902   1.115   1.263  0.0170  0.5254 -0.2036
19153TIP3    H178950   3.843   1.111   1.338 -0.0804 -1.0342 -0.3236
19153TIP3    H278951   3.990   1.109   1.302 -0.0755 -2.5587 -0.2521
19154TIP3   OH278952   2.442   2.867   5.519 -0.0336 -0.3002 -0.2365
19154TIP3    H178953   2.363   2.914   5.494 -0.4115 -2.1935 -3.0809
19154TIP3    H278954   2.514   2.929   5.504 -0.7205  0.3359 -0.9518
19155TIP3   OH278955   2.190   1.978  16.870 -0.1285  0.4324 -0.7230
19155TIP3    H178956   2.281   2.003  16.882 -0.1792  0.1384  0.4055
19155TIP3    H278957   2.141   2.032  16.932 -0.5388 -0.4921 -0.2171
19156TIP3   OH278958   2.293   2.085   1.619  0.2198 -0.0565 -0.1201
19156TIP3    H178959   2.235   2.084   1.543 -0.6095  0.0870  0.4938
19156TIP3    H278960   2.243   2.039   1.687  2.1148 -2.9593 -0.4852
19157TIP3   OH278961   1.259   1.046  40.469 -0.0801  0.3680  0.3966
19157TIP3    H178962   1.340   1.025  40.422 -0.4848  0.2131 -0.2605
19157TIP3    H278963   1.261   1.141  40.480 -0.0772  0.4350 -0.1392
19158TIP3   OH278964   0.547   2.146  37.706 -0.0771  0.4051 -0.1576
19158TIP3    H178965   0.623   2.187  37.747 -1.4435  2.4998  0.4197
19158TIP3    H278966   0.516   2.083  37.772 -2.3550  3.8393  2.4026
19159TIP3   OH278967   1.472   1.816   2.289  0.1557  0.2815 -0.1667
19159TIP3    H178968   1.483   1.728   2.326  1.7795  1.2055  1.7383
19159TIP3    H278969   1.443   1.800   2.200 -1.2985 -2.1567  0.6286
19160TIP3   OH278970   0.280   3.441  35.768 -0.8322 -0.5864 -0.0744
19160TIP3    H178971   0.315   3.442  35.678 -1.3830  0.4671 -0.2861
19160TIP3    H278972   0.345   3.488  35.820 -1.9217  1.5283 -0.4990
19161TIP3   OH278973   3.860   0.038  12.828  0.3738 -0.1778  0.4865
19161TIP3    H178974   3.797   0.102  12.860  2.2125  2.5036 -0.8955
19161TIP3    H278975   3.929   0.036  12.894  0.9032  0.1934 -0.0488
19162TIP3   OH278976   3.303   0.321   1.547 -0.1269 -0.1344  0.0829
19162TIP3    H178977   3.238   0.390   1.534 -0.5227 -0.1788  1.6225
19162TIP3    H278978   3.322   0.323   1.640  0.2164 -1.7952  0.0860
19163TIP3   OH278979   3.288   2.910   6.202 -0.2926  0.3282  0.4839
19163TIP3    H178980   3.302   3.003   6.221  0.3477  0.6953 -1.5239
19163TIP3    H278981   3.354   2.888   6.137 -1.0753 -1.2795  0.1713
19164TIP3   OH278982   2.623   1.839   3.255 -0.3775 -0.0142  0.3598
19164TIP3    H178983   2.668   1.923   3.246  0.6745 -0.4624  1.1038
19164TIP3    H278984   2.594   1.817   3.166 -0.3937  0.9798  0.1097
19165TIP3   OH278985   2.044   2.704   6.922 -0.1806 -0.5418  0.3824
19165TIP3    H178986   2.018   2.612   6.924  1.3889 -1.0497 -0.7297
19165TIP3    H278987   1.961   2.752   6.926 -1.0548 -1.9946  0.6029
19166TIP3   OH278988   0.606   0.051  45.879 -0.3447  0.0001 -0.5560
19166TIP3    H178989   0.542   0.121  45.890  0.0107  0.0199  2.1513
19166TIP3    H278990   0.554  -0.030  45.875 -0.6390  0.2159 -1.1482
19167TIP3   OH278991   1.173   3.993  25.441  0.4377 -0.2620 -0.1417
19167TIP3    H178992   1.142   3.903  25.433 -0.3486  0.0118 -0.2289
19167TIP3    H278993   1.130   4.040  25.369 -3.5856  1.3710  2.9523
19168TIP3   OH278994   4.008   0.007  40.318 -0.3462  0.0328 -0.2087
19168TIP3    H178995   3.958  -0.074  40.314 -1.5436  0.7801 -1.2764
19168TIP3    H278996   3.956   0.070  40.267  1.2410  1.0899 -0.6144
19169TIP3   OH278997   3.845   2.567  45.827  0.0054 -0.1284 -0.1927
19169TIP3    H178998   3.769   2.557  45.884  2.0324 -0.0187  2.7138
19169TIP3    H278999   3.830   2.504  45.757 -1.6868 -1.7630  1.5053
19170TIP3   OH279000   2.459   0.686  45.697 -0.5435  0.7211  0.3297
19170TIP3    H179001   2.527   0.754  45.703 -1.1448  1.3599  0.0960
19170TIP3    H279002   2.395   0.722  45.635 -2.0928  1.0313  2.0276
19171TIP3   OH279003   3.370   1.652  12.059  0.1002  0.2418 -0.0499
19171TIP3    H179004   3.414   1.570  12.037  0.5673  0.4705  0.0134
19171TIP3    H279005   3.284   1.646  12.018 -0.7110 -1.2155  1.7542
19172TIP3   OH279006   3.080   3.520  29.692  0.1231 -0.5851 -0.0634
19172TIP3    H179007   3.104   3.536  29.783 -1.0390 -3.6013  0.9076
19172TIP3    H279008   3.023   3.593  29.669  1.8610  1.1887  0.9728
19173TIP3   OH279009   3.484   2.519  34.873  0.1939 -0.0007  0.8843
19173TIP3    H179010   3.517   2.579  34.806  1.2547 -0.8651  0.5951
19173TIP3    H279011   3.416   2.469  34.829 -0.5943  0.8757  1.0850
19174TIP3   OH279012   0.928   3.844  35.860 -0.5595  0.1480 -0.3153
19174TIP3    H179013   0.960   3.834  35.771  0.4491  0.9439 -0.0621
19174TIP3    H279014   0.983   3.784  35.912 -1.2400 -0.4232 -0.2450
19175TIP3   OH279015   1.282   0.255  14.225  0.3767  0.1296  0.3743
19175TIP3    H179016   1.243   0.325  14.171 -0.7974 -2.2362 -2.1132
19175TIP3    H279017   1.375   0.257  14.203  0.8279  2.2056  2.0496
19176TIP3   OH279018   3.996   0.711   9.435 -0.2862 -0.0213 -0.0589
19176TIP3    H179019   4.035   0.794   9.406 -0.2532  0.3222  0.9152
19176TIP3    H279020   4.061   0.674   9.495  0.4493 -1.6009 -1.7549
19177TIP3   OH279021   3.294   1.400  14.873  0.7352  0.2565 -0.0009
19177TIP3    H179022   3.209   1.407  14.829 -0.0869 -0.8543  1.3177
19177TIP3    H279023   3.307   1.305  14.883  0.0877  0.4163  3.5172
19178TIP3   OH279024   0.632   2.800  46.896  0.0298 -0.1903 -0.1193
19178TIP3    H179025   0.636   2.860  46.821  2.2396  0.6715  0.6084
19178TIP3    H279026   0.701   2.736  46.879  0.6540  0.0909  1.2148
19179TIP3   OH279027   2.902   3.772  42.065  0.3826 -0.4985  0.1927
19179TIP3    H179028   2.990   3.811  42.068  0.3389 -0.4379  0.6251
19179TIP3    H279029   2.904   3.702  42.129 -0.5512  0.8756  1.8098
19180TIP3   OH279030   3.049   0.603  31.061 -0.0506  0.1244 -0.2303
19180TIP3    H179031   3.061   0.649  30.978  0.5085  1.7399  0.7033
19180TIP3    H279032   3.012   0.668  31.120  0.0175 -0.8512  0.9330
19181TIP3   OH279033   1.607   1.416   9.300 -0.5225  0.5262  0.6669
19181TIP3    H179034   1.588   1.388   9.389 -1.3531  0.0357  0.3440
19181TIP3    H279035   1.587   1.340   9.246 -1.2537  1.2145 -0.0615
19182TIP3   OH279036   0.234   2.798   4.346 -0.1424 -0.2919 -0.1354
19182TIP3    H179037   0.200   2.886   4.328  0.4475  0.0059  0.1715
19182TIP3    H279038   0.310   2.813   4.402 -0.5955 -1.0516  0.7121
19183TIP3   OH279039   3.682   3.201  14.179 -0.6752 -0.7488  0.3562
19183TIP3    H179040   3.614   3.198  14.111  0.0748  1.2557 -0.5527
19183TIP3    H279041   3.633   3.193  14.261 -2.5493  3.7672 -0.0459
19184TIP3   OH279042   0.299   3.421  30.289  0.3139 -0.4404 -0.5057
19184TIP3    H179043   0.304   3.501  30.237  2.3069 -0.6591 -0.7232
19184TIP3    H279044   0.311   3.449  30.379  2.4058 -0.5872 -0.7020
19185TIP3   OH279045   1.273   4.052  14.988  0.2190  0.0839 -0.2109
19185TIP3    H179046   1.262   4.121  15.052  1.2737 -1.7103  2.0474
19185TIP3    H279047   1.366   4.053  14.966  0.3586 -0.9502  0.2770
19186TIP3   OH279048   3.857   1.462  41.877  0.0484  1.0545 -0.0239
19186TIP3    H179049   3.809   1.394  41.830  0.2822  0.4416  0.6016
19186TIP3    H279050   3.881   1.525  41.810 -0.4513  0.6826 -0.5657
19187TIP3   OH279051   1.913   3.513  41.471  0.1746 -0.7487 -0.7362
19187TIP3    H179052   1.994   3.520  41.522  0.6475 -0.5100 -1.5058
19187TIP3    H279053   1.935   3.549  41.385 -1.1183  0.5522 -0.5634
19188TIP3   OH279054   2.831   3.375   5.748 -0.1286 -0.0972  0.1737
19188TIP3    H179055   2.841   3.436   5.821 -0.5663  0.7621 -0.4616
19188TIP3    H279056   2.737   3.364   5.739 -0.1955  1.2483 -1.3823
19189TIP3   OH279057   3.832   1.681  17.131 -0.4219  0.1556 -0.5636
19189TIP3    H179058   3.765   1.748  17.143 -0.3146  0.0835  0.5683
19189TIP3    H279059   3.910   1.716  17.174 -0.8102 -1.3243  1.5469
19190TIP3   OH279060   3.062   1.162  40.883 -0.3554 -1.0455  0.0729
19190TIP3    H179061   3.156   1.176  40.870 -0.5884 -0.1016 -0.7155
19190TIP3    H279062   3.053   1.148  40.977  0.5645 -1.0323  0.1761
19191TIP3   OH279063   3.220   0.458  45.140  0.1716  0.3031 -0.1563
19191TIP3    H179064   3.127   0.435  45.135  0.4649 -0.8120 -1.1778
19191TIP3    H279065   3.222   0.545  45.180 -1.2527  0.0261  0.5705
19192TIP3   OH279066   0.071   2.236   5.427 -0.1137 -0.5058 -0.0398
19192TIP3    H179067   0.055   2.179   5.351 -2.6268  1.1479 -0.9017
19192TIP3    H279068   0.131   2.302   5.394 -0.0692 -0.5975 -0.1451
19193TIP3   OH279069   2.459   3.450  37.344  0.1970 -0.3170  0.4673
19193TIP3    H179070   2.512   3.459  37.264  2.0742 -1.5585  1.4816
19193TIP3    H279071   2.491   3.520  37.401  0.3757 -0.7425  0.8914
19194TIP3   OH279072   0.645   3.950  35.927 -0.2368  0.1820  0.2135
19194TIP3    H179073   0.736   3.925  35.937 -0.0625  0.2359 -1.1147
19194TIP3    H279074   0.644   4.044  35.946 -0.3545 -0.1363  2.0053
19195TIP3   OH279075   0.480   0.945   8.698  0.0937 -0.4753 -0.2951
19195TIP3    H179076   0.494   1.031   8.737  1.1930 -0.4404 -0.7339
19195TIP3    H279077   0.567   0.916   8.671 -0.3186 -1.5406 -0.5460
19196TIP3   OH279078   2.654   3.670  30.802  0.2275 -0.4231 -0.3846
19196TIP3    H179079   2.641   3.711  30.717  0.1535 -1.1550 -0.7399
19196TIP3    H279080   2.666   3.577  30.782 -0.7292 -0.7569  0.4669
19197TIP3   OH279081   2.104   2.794  45.537 -0.2793 -0.0100 -0.2078
19197TIP3    H179082   2.162   2.731  45.580  0.5029  0.4458 -0.5647
19197TIP3    H279083   2.026   2.743  45.514  0.8424 -1.1913 -1.6165
19198TIP3   OH279084   1.987   0.756   7.127  0.3122 -0.0295 -0.0542
19198TIP3    H179085   1.907   0.807   7.119 -0.1445 -0.0590  3.0524
19198TIP3    H279086   1.985   0.695   7.053 -0.9054  2.0035 -1.8132
19199TIP3   OH279087   3.189   1.464  41.670  0.0951 -0.2055 -0.1527
19199TIP3    H179088   3.191   1.413  41.589 -2.4390  1.2312 -1.2394
19199TIP3    H279089   3.220   1.551  41.645 -0.6760  0.2451  0.3994
19200TIP3   OH279090   1.477   3.726  47.598 -0.0498  0.2528 -0.0543
19200TIP3    H179091   1.385   3.714  47.623  0.1407 -0.0315  0.5104
19200TIP3    H279092   1.525   3.663  47.651  0.1738 -2.0326 -2.7250
19201TIP3   OH279093   1.091   0.677   2.894  0.2656  0.2322 -0.2339
19201TIP3    H179094   1.047   0.629   2.823  2.0160  0.6277 -1.6657
19201TIP3    H279095   1.109   0.610   2.960 -1.4727 -0.1318 -0.0745
19202TIP3   OH279096   2.396   1.546  36.252  0.0278 -0.3413 -0.5903
19202TIP3    H179097   2.456   1.577  36.318 -0.3331  2.1119 -1.3198
19202TIP3    H279098   2.321   1.512  36.301  0.5840 -0.3378  0.2677
19203TIP3   OH279099   3.989   3.188  45.212 -0.0252  0.0478  0.1997
19203TIP3    H179100   3.963   3.198  45.303 -1.2214 -0.1072 -0.0990
19203TIP3    H279101   3.980   3.094  45.195  1.6314 -0.1525  0.3108
19204TIP3   OH279102   0.385   3.619   9.253 -0.0449 -0.4953  0.2772
19204TIP3    H179103   0.343   3.699   9.286 -0.6454  0.3529 -2.3113
19204TIP3    H279104   0.476   3.627   9.282  0.2034  1.7650 -0.8702
19205TIP3   OH279105   1.266   3.752   2.658 -0.6390 -0.0316  0.5443
19205TIP3    H179106   1.247   3.767   2.565  1.0479 -0.5097  0.0974
19205TIP3    H279107   1.281   3.839   2.694 -0.1194  0.0718  0.0870
19206TIP3   OH279108   0.258   0.148  26.554 -0.2376  0.1599 -0.4486
19206TIP3    H179109   0.238   0.113  26.467  1.0641  1.5035 -1.3295
19206TIP3    H279110   0.189   0.113  26.610 -0.4729 -1.6650 -1.7802
19207TIP3   OH279111   0.917   1.745   6.594 -0.0041  0.6547  0.1636
19207TIP3    H179112   0.956   1.737   6.682 -0.4112  1.8248  0.4622
19207TIP3    H279113   0.892   1.837   6.587 -1.4902  0.2307 -0.5352
19208TIP3   OH279114   0.119   1.336  39.258  0.7500 -0.5796 -0.0245
19208TIP3    H179115   0.098   1.249  39.225 -1.3755  0.0007 -0.3367
19208TIP3    H279116   0.043   1.390  39.235  0.2886  0.5029  3.4455
19209TIP3   OH279117   1.127   0.891  33.307 -0.1800 -0.0034  0.2234
19209TIP3    H179118   1.216   0.862  33.324  0.3975  0.6634 -1.5022
19209TIP3    H279119   1.098   0.837  33.234 -1.1044 -0.0113  0.5817
19210TIP3   OH279120   0.764   0.988   3.856 -0.1610 -0.4491  0.7181
19210TIP3    H179121   0.803   0.902   3.839 -0.7750 -0.2235 -2.3157
19210TIP3    H279122   0.676   0.982   3.819  0.2481  1.8942 -0.8488
19211TIP3   OH279123   2.900   0.091  46.227 -0.0291  0.1786 -0.1002
19211TIP3    H179124   2.850   0.118  46.149 -0.2414 -0.1648 -0.0824
19211TIP3    H279125   2.991   0.111  46.205  0.3385 -2.7530 -1.6856
19212TIP3   OH279126   2.109   0.804  13.826  0.1631  0.2373  0.4010
19212TIP3    H179127   2.145   0.722  13.859  0.0614  0.5156  1.2099
19212TIP3    H279128   2.043   0.777  13.762  0.5276 -0.2952  0.2456
19213TIP3   OH279129   2.924   0.387  43.114 -0.1158 -0.1019 -0.3868
19213TIP3    H179130   2.914   0.458  43.177  1.1785 -1.0270  0.9207
19213TIP3    H279131   2.835   0.354  43.102 -0.3246 -0.3534  1.5398
19214TIP3   OH279132   1.720   3.401  30.783  0.0154 -0.7929  0.7636
19214TIP3    H179133   1.713   3.306  30.794 -0.7214 -0.9083 -0.5814
19214TIP3    H279134   1.699   3.416  30.691  3.2549  0.3662  0.0899
19215TIP3   OH279135   3.966   2.027  10.511 -0.4846  0.2328  0.0128
19215TIP3    H179136   3.970   1.934  10.534  1.9636  0.1373 -0.5063
19215TIP3    H279137   3.874   2.050  10.519 -0.9497 -1.8688  1.5882
19216TIP3   OH279138   3.981   2.089  10.138  0.2173  0.5887  0.1292
19216TIP3    H179139   3.902   2.136  10.167 -0.2358 -0.1382  0.0973
19216TIP3    H279140   4.048   2.114  10.202 -0.3978  0.1360  0.9808
19217TIP3   OH279141   1.532   3.883  14.678  0.5983  0.0182 -0.8663
19217TIP3    H179142   1.438   3.863  14.675  0.5652  0.0096 -0.0679
19217TIP3    H279143   1.536   3.973  14.711  0.9097 -0.5563  0.7439
19218TIP3   OH279144   2.684   1.014  42.239  0.0709  0.1522  0.1362
19218TIP3    H179145   2.649   1.009  42.328  0.2428  0.1729  0.2056
19218TIP3    H279146   2.778   0.996  42.249  0.0130 -0.2799 -0.1001
19219TIP3   OH279147   3.218   0.003  42.492 -0.3552 -0.5926 -0.1193
19219TIP3    H179148   3.301  -0.001  42.444  0.9529 -4.6887  1.9553
19219TIP3    H279149   3.233   0.068  42.561  0.7161 -0.4493 -0.4603
19220TIP3   OH279150   1.194   1.074  14.617 -0.2983  0.0688  0.1873
19220TIP3    H179151   1.154   1.138  14.676  1.4232  0.4838  1.0004
19220TIP3    H279152   1.124   1.014  14.594 -1.3271  0.6558  1.6429
19221TIP3   OH279153   3.477   2.073  41.840 -0.2472 -0.1453  0.3427
19221TIP3    H179154   3.399   2.050  41.790 -1.1102 -0.8037  1.9148
19221TIP3    H279155   3.539   2.106  41.775 -1.6468 -0.0870 -1.0052
19222TIP3   OH279156   1.289   0.767   7.795 -0.1970 -0.5897  0.0763
19222TIP3    H179157   1.345   0.690   7.788  0.2961 -0.5871  3.0234
19222TIP3    H279158   1.203   0.733   7.817  0.0995 -0.3426  1.7360
19223TIP3   OH279159   3.539   2.081  47.056  0.1219 -0.2626 -0.5953
19223TIP3    H179160   3.633   2.065  47.071  0.4157  2.3543  0.8196
19223TIP3    H279161   3.498   2.061  47.140 -0.0427  2.0020 -0.0824
19224TIP3   OH279162   3.017   0.446   3.390 -0.4570  0.1341 -0.5857
19224TIP3    H179163   3.099   0.494   3.401 -0.1600 -0.6494  0.8154
19224TIP3    H279164   2.977   0.484   3.312 -0.1028  2.4772  0.2931
19225TIP3   OH279165   0.190   1.381  11.289 -0.6982  0.0295  0.0840
19225TIP3    H179166   0.269   1.327  11.280 -0.5923  0.1885  0.0608
19225TIP3    H279167   0.169   1.378  11.382  0.1169  1.0951  0.3154
19226TIP3   OH279168   2.376   2.781   1.744 -0.3051 -0.2750  0.1275
19226TIP3    H179169   2.391   2.838   1.819  2.7598 -0.3404 -0.3039
19226TIP3    H279170   2.391   2.837   1.668 -0.3529 -0.9163 -0.3617
19227TIP3   OH279171   3.591   3.806  40.889  0.4993 -0.3753  0.1114
19227TIP3    H179172   3.558   3.889  40.854  1.2268 -0.2856 -0.3707
19227TIP3    H279173   3.674   3.829  40.930  1.8665 -1.2154 -2.0281
19228TIP3   OH279174   2.302   2.040  17.804  0.2928  0.0737 -0.0621
19228TIP3    H179175   2.292   2.088  17.722  1.1948  0.2166 -0.0991
19228TIP3    H279176   2.247   2.087  17.867  0.3751  0.5515 -0.3437
19229TIP3   OH279177   3.146   0.502  39.468 -0.4177  0.2530 -0.1801
19229TIP3    H179178   3.123   0.412  39.490  0.5072  0.1262  0.3160
19229TIP3    H279179   3.098   0.555  39.532  1.3737 -0.0619  1.5355
19230TIP3   OH279180   0.512   3.619  36.600 -0.2285 -0.0594 -0.3057
19230TIP3    H179181   0.569   3.677  36.651  2.0435 -0.6375 -1.9980
19230TIP3    H279182   0.432   3.670  36.586  1.0832  2.0889 -0.4455
19231TIP3   OH279183   2.179   0.597   5.738  0.0704  0.7582 -0.4045
19231TIP3    H179184   2.129   0.676   5.757 -1.4578  0.1096 -1.4848
19231TIP3    H279185   2.162   0.539   5.812  0.3584  1.0609 -0.1021
19232TIP3   OH279186   2.481   1.340  12.997  0.2303 -0.0504  0.7171
19232TIP3    H179187   2.556   1.390  13.029 -0.5557  1.0721  0.8825
19232TIP3    H279188   2.478   1.262  13.053  1.6507 -0.4501  0.2637
19233TIP3   OH279189   2.319   1.468  10.517 -0.3451  0.5523 -0.4240
19233TIP3    H179190   2.239   1.456  10.568 -0.3086  0.2967 -0.4262
19233TIP3    H279191   2.348   1.379  10.496  0.6174  0.5840  0.6440
19234TIP3   OH279192   2.228   0.806  34.946 -0.0918  0.5927 -0.2896
19234TIP3    H179193   2.184   0.834  35.026  0.9999  0.7756  0.2593
19234TIP3    H279194   2.225   0.883  34.889  0.5789  1.0003  0.2108
19235TIP3   OH279195   0.570   3.858  38.011  0.6385 -0.0297 -0.3044
19235TIP3    H179196   0.567   3.803  37.932  1.4255  0.2742 -0.5642
19235TIP3    H279197   0.488   3.908  38.009 -0.1501 -1.2603  0.0048
19236TIP3   OH279198   2.325   2.860   0.611  0.4984  0.0377 -0.1551
19236TIP3    H179199   2.293   2.776   0.578 -0.4489  0.5490 -0.5493
19236TIP3    H279200   2.285   2.868   0.698  1.6748 -0.5291  0.4802
19237TIP3   OH279201   2.856   1.122  32.340 -0.1470  0.4009  0.1930
19237TIP3    H179202   2.918   1.127  32.267 -0.5097  2.0294 -0.0518
19237TIP3    H279203   2.833   1.030  32.346  2.2817 -0.2706  0.2883
19238TIP3   OH279204   4.066   1.670  39.084  0.3880 -0.5697  0.1214
19238TIP3    H179205   4.022   1.754  39.097  0.9646 -0.4320  1.2652
19238TIP3    H279206   4.156   1.692  39.063 -0.0008 -0.8595 -2.0889
19239TIP3   OH279207   0.433   2.506   9.569  0.1635 -0.2118  0.1595
19239TIP3    H179208   0.351   2.457   9.569  0.1860 -0.2667 -0.8649
19239TIP3    H279209   0.446   2.531   9.661 -0.6569 -0.7626  0.4361
19240TIP3   OH279210   0.628   3.235   4.781 -0.2486 -0.1097 -0.6161
19240TIP3    H179211   0.564   3.251   4.712  1.3027 -1.0987 -2.3606
19240TIP3    H279212   0.657   3.145   4.767  0.2788 -0.2673  1.2210
19241TIP3   OH279213   3.638   0.950  44.761  0.7882  0.2391  0.5043
19241TIP3    H179214   3.619   0.858  44.778 -1.4190  0.6333  0.3573
19241TIP3    H279215   3.715   0.948  44.703 -1.3978 -1.7248 -2.6639
19242TIP3   OH279216   2.484   2.144  18.199 -0.2592 -0.5516 -0.0063
19242TIP3    H179217   2.528   2.113  18.279 -0.7397 -0.5625  0.2542
19242TIP3    H279218   2.410   2.196  18.231 -0.6205 -0.7940 -0.4473
19243TIP3   OH279219   1.715   1.955  47.697 -0.2349  0.4544 -1.0370
19243TIP3    H179220   1.799   1.927  47.734  0.2640  2.4761 -0.5434
19243TIP3    H279221   1.661   1.978  47.772 -0.2137  1.8653 -1.4240
19244TIP3   OH279222   0.778   1.693  35.540  0.5242  0.6970  0.1909
19244TIP3    H179223   0.812   1.607  35.563 -0.7518 -0.0471 -0.5186
19244TIP3    H279224   0.823   1.716  35.459 -1.5094 -0.9314 -1.5451
19245TIP3   OH279225   3.342   0.160  11.270 -0.2125  0.4022  0.4972
19245TIP3    H179226   3.340   0.240  11.323  0.2387  1.2555 -0.7304
19245TIP3    H279227   3.279   0.102  11.312  1.1828  0.4522  2.8590
19246TIP3   OH279228   3.646   1.367   5.216  0.1712 -0.3454  0.2914
19246TIP3    H179229   3.618   1.458   5.217 -0.8052 -0.6214 -0.1668
19246TIP3    H279230   3.620   1.335   5.129  0.9341 -0.9254  0.2700
19247TIP3   OH279231   2.332   3.928  35.703  0.0298  0.1823 -0.0490
19247TIP3    H179232   2.315   3.989  35.775 -0.5538 -0.1728  0.1236
19247TIP3    H279233   2.297   3.971  35.626  0.9061  0.6885 -0.1832
19248TIP3   OH279234   0.605   3.662  32.284  0.0775 -0.3482 -0.3128
19248TIP3    H179235   0.552   3.590  32.318  0.8457 -0.6028  0.3910
19248TIP3    H279236   0.617   3.642  32.192 -2.0623  0.3620 -0.8081
19249TIP3   OH279237   0.404   2.342  39.475 -0.4213 -0.1405  0.0090
19249TIP3    H179238   0.394   2.361  39.381 -1.3394 -0.0649  0.1102
19249TIP3    H279239   0.410   2.247  39.479 -0.3912 -0.1453 -0.1262
19250TIP3   OH279240   0.590   2.959  40.058  0.0647  0.0095  0.0765
19250TIP3    H179241   0.652   2.887  40.069  1.2253  0.7978 -1.0191
19250TIP3    H279242   0.557   2.950  39.969 -0.8664  0.0160  0.4138
19251TIP3   OH279243   2.140   1.892  11.337 -0.5229  0.0842 -0.7821
19251TIP3    H179244   2.044   1.894  11.336 -0.5848  0.8861  1.3661
19251TIP3    H279245   2.164   1.952  11.407  1.4704 -2.0276  0.4597
19252TIP3   OH279246   3.857   0.356  43.399  0.5712 -0.2576  0.0183
19252TIP3    H179247   3.888   0.406  43.323  0.6852  0.5635  0.5860
19252TIP3    H279248   3.764   0.343  43.383  0.2164  1.4212  0.5289
19253TIP3   OH279249   0.335   0.652   4.758  0.2470  0.2670  0.0982
19253TIP3    H179250   0.390   0.729   4.766  3.1454 -1.5292 -0.8665
19253TIP3    H279251   0.326   0.619   4.848  0.2623  0.9020  0.3351
19254TIP3   OH279252   2.116   1.312   2.057 -0.0161 -0.8503  0.3262
19254TIP3    H179253   2.117   1.318   2.153  0.0665  0.0003  0.2821
19254TIP3    H279254   2.024   1.293   2.036 -0.7318  1.9177  0.4647
19255TIP3   OH279255   0.032   0.055  12.239  0.2154 -0.5765 -0.3240
19255TIP3    H179256   0.116   0.022  12.272  0.0183  0.5384  1.4739
19255TIP3    H279257   0.003  -0.011  12.177  1.3560 -2.1138  0.7029
19256TIP3   OH279258   3.878   2.935  15.926  0.3289 -0.7158 -0.6492
19256TIP3    H179259   3.953   2.915  15.870 -0.0788 -1.0023 -1.1070
19256TIP3    H279260   3.820   2.986  15.870 -0.0636 -0.9716 -0.4773
19257TIP3   OH279261   1.207   0.260  42.122  0.1471  0.3325 -0.1572
19257TIP3    H179262   1.194   0.188  42.061 -0.4418 -0.3096  0.7008
19257TIP3    H279263   1.138   0.323  42.100  1.1835  1.0489 -1.4640
19258TIP3   OH279264   0.970   3.630   9.464 -0.1390 -0.4877  0.5657
19258TIP3    H179265   1.012   3.575   9.398  1.3313 -0.1505  1.1619
19258TIP3    H279266   0.969   3.576   9.543 -1.9280 -0.9088  0.2893
19259TIP3   OH279267   1.892   2.817  37.586  0.0036  0.1561  0.2190
19259TIP3    H179268   1.986   2.803  37.599 -0.1487 -0.6680  0.5271
19259TIP3    H279269   1.852   2.794  37.670 -0.2520  3.3115  1.0718
19260TIP3   OH279270   1.538   3.845   0.153  0.9709 -0.1181 -0.3189
19260TIP3    H179271   1.536   3.760   0.109 -0.3344  0.0526 -0.6393
19260TIP3    H279272   1.481   3.901   0.100  3.3567  1.5687 -1.2690
19261TIP3   OH279273   2.616   3.856  31.678 -0.3465 -0.2287  0.0292
19261TIP3    H179274   2.634   3.790  31.612  1.6980 -2.0935  2.2827
19261TIP3    H279275   2.641   3.939  31.636  3.8560 -1.6186 -0.6568
19262TIP3   OH279276   2.229   2.251  18.788  0.2203 -0.0056 -0.2522
19262TIP3    H179277   2.322   2.260  18.765  0.7917 -1.2140  1.3581
19262TIP3    H279278   2.204   2.165  18.754  0.0137 -0.1482  0.2464
19263TIP3   OH279279   0.446   1.237  11.275  0.3976  0.0821 -0.0272
19263TIP3    H179280   0.518   1.267  11.220  1.4364 -0.5732  0.9350
19263TIP3    H279281   0.408   1.163  11.228 -0.9873  1.6224 -1.5055
19264TIP3   OH279282   2.029   1.649  46.344 -0.6084  0.5118  0.2950
19264TIP3    H179283   1.991   1.674  46.428  0.6420 -0.0893  1.0776
19264TIP3    H279284   2.004   1.558  46.331  0.9090 -0.0515  1.0680
19265TIP3   OH279285   3.998   2.738   7.161 -0.6871  0.5544 -0.5287
19265TIP3    H179286   4.040   2.798   7.100  1.6762  0.3257  0.7673
19265TIP3    H279287   3.967   2.794   7.232  0.4648  0.3947  0.1160
19266TIP3   OH279288   4.046   0.095  39.843 -0.7940 -0.3843 -0.6282
19266TIP3    H179289   3.999   0.178  39.836  0.5859  0.4040 -0.7709
19266TIP3    H279290   4.136   0.116  39.820 -0.0093 -1.5379  1.1613
19267TIP3   OH279291   0.237   2.864  36.000 -0.6856 -0.3494 -0.2766
19267TIP3    H179292   0.299   2.859  35.927 -1.1750  0.0743 -0.7298
19267TIP3    H279293   0.292   2.886  36.075 -0.1840 -0.7165 -0.5239
19268TIP3   OH279294   1.834   2.882   5.693 -0.0415 -0.7081  0.2365
19268TIP3    H179295   1.799   2.840   5.615  0.5373 -0.1757 -0.3102
19268TIP3    H279296   1.766   2.945   5.718  0.3018 -0.0097 -0.5526
19269TIP3   OH279297   1.074   2.674   9.316  0.0913 -0.1278  0.5002
19269TIP3    H179298   1.027   2.709   9.240  1.0883 -1.8920 -1.0119
19269TIP3    H279299   1.087   2.582   9.295  2.7781 -0.0775  1.5836
19270TIP3   OH279300   1.737   2.478   4.363 -0.5005  0.2039 -0.3045
19270TIP3    H179301   1.813   2.420   4.361  0.2659  1.1694 -0.1141
19270TIP3    H279302   1.746   2.532   4.284  0.0135  1.5307  0.6249
19271TIP3   OH279303   2.601   1.132  43.468 -0.3221 -0.0430  0.2943
19271TIP3    H179304   2.543   1.085  43.408  0.4168 -0.2172 -0.2968
19271TIP3    H279305   2.687   1.093  43.453 -0.0926  0.0187  1.3597
19272TIP3   OH279306   3.111   2.354  16.992 -0.1105  0.2221  0.5594
19272TIP3    H179307   3.113   2.380  16.900  0.4005  1.1556  0.8294
19272TIP3    H279308   3.020   2.330  17.007 -0.2387  0.2297 -0.1426
19273TIP3   OH279309   2.125   1.131   5.210 -0.1031 -0.3361  0.3904
19273TIP3    H179310   2.106   1.201   5.148  2.7406 -0.7533 -1.1312
19273TIP3    H279311   2.110   1.170   5.296 -1.0584  1.2876 -0.4682
19274TIP3   OH279312   3.362   1.957  35.150 -0.1699 -0.1471 -0.3707
19274TIP3    H179313   3.380   1.863  35.161  0.5431  0.1382  1.3502
19274TIP3    H279314   3.433   2.000  35.199 -1.3739  1.2458  0.1992
19275TIP3   OH279315   3.699   2.870  37.119  0.5246  0.3951  0.5279
19275TIP3    H179316   3.655   2.941  37.073 -0.2481 -0.0055  0.6296
19275TIP3    H279317   3.633   2.838  37.181  0.8798 -0.3819  0.5103
19276TIP3   OH279318   0.728   2.990  10.166 -0.2126 -0.3623 -0.2479
19276TIP3    H179319   0.711   3.071  10.216  1.2303 -0.5501  0.6040
19276TIP3    H279320   0.648   2.976  10.117 -0.6473  1.3913 -0.1323
19277TIP3   OH279321   1.326   3.018  42.834 -0.4781 -0.0310 -0.1659
19277TIP3    H179322   1.302   3.063  42.915 -0.0566 -0.5056  0.2286
19277TIP3    H279323   1.330   2.925  42.858  1.8843  0.0086 -0.1595
19278TIP3   OH279324   3.108   0.123  33.312 -0.3923 -0.6371  0.0283
19278TIP3    H179325   3.170   0.196  33.324 -0.2923 -1.1626  4.5403
19278TIP3    H279326   3.155   0.061  33.257  2.4665 -0.2275  1.7994
19279TIP3   OH279327   2.724   1.683  47.014 -0.0030 -0.5418 -0.3232
19279TIP3    H179328   2.746   1.623  46.943 -1.7853 -0.5567 -0.9243
19279TIP3    H279329   2.736   1.770  46.976 -1.0666 -0.5493 -0.7155
19280TIP3   OH279330   1.134   0.118  14.682 -0.0099  0.1936 -0.4938
19280TIP3    H179331   1.217   0.159  14.660  0.9405 -1.1634  0.3854
19280TIP3    H279332   1.137   0.106  14.777 -1.5484  0.7852 -0.3324
19281TIP3   OH279333   2.667   3.188  44.333 -0.4095 -0.4352  0.6322
19281TIP3    H179334   2.670   3.228  44.246  1.4118 -0.3091  0.7191
19281TIP3    H279335   2.591   3.229  44.376 -2.9899 -2.3849 -1.7323
19282TIP3   OH279336   2.281   4.098  33.844 -0.4104 -0.0341 -0.0355
19282TIP3    H179337   2.239   4.015  33.822  1.1324 -0.4130 -1.8042
19282TIP3    H279338   2.352   4.073  33.903 -1.0499  0.2862  0.8913
19283TIP3   OH279339   3.277   2.778   7.628  0.3223  0.0420  0.5602
19283TIP3    H179340   3.274   2.743   7.717 -0.7914  0.4295  0.6793
19283TIP3    H279341   3.322   2.862   7.637  0.2171  0.0778  0.7531
19284TIP3   OH279342   3.976   3.614  31.679  0.1864 -0.0557 -0.0035
19284TIP3    H179343   3.955   3.521  31.689 -1.4492  0.2111 -0.7081
19284TIP3    H279344   3.944   3.637  31.592  2.1138  0.7959 -0.5501
19285TIP3   OH279345   3.901   0.735  36.352  0.1093 -0.0564 -0.4059
19285TIP3    H179346   3.840   0.769  36.286 -0.9397  0.0092  0.5684
19285TIP3    H279347   3.863   0.652  36.380  0.0274  0.3497  0.7689
19286TIP3   OH279348   0.253   1.002  43.638  0.2291 -0.0699  0.2964
19286TIP3    H179349   0.289   0.928  43.686  1.3367  0.1298 -0.1941
19286TIP3    H279350   0.183   1.036  43.695 -0.9736 -2.0395  0.1072
19287TIP3   OH279351   2.013   0.994  47.595  0.3010 -0.1126  0.2315
19287TIP3    H179352   2.076   0.927  47.567 -0.3447 -0.5404 -0.2373
19287TIP3    H279353   1.940   0.944  47.632  1.1330  0.4480  2.7701
19288TIP3   OH279354   3.568   3.094  10.284 -0.2423  0.0192 -0.0837
19288TIP3    H179355   3.500   3.091  10.350  1.0626 -0.3668  1.2954
19288TIP3    H279356   3.608   3.180  10.294 -0.6374  0.3205 -1.0144
19289TIP3   OH279357   0.104   2.303  12.663 -0.4156  0.3348  0.4955
19289TIP3    H179358   0.189   2.294  12.707 -0.9569  3.3875  2.4397
19289TIP3    H279359   0.124   2.350  12.582  0.1603 -2.6015 -1.2304
19290TIP3   OH279360   3.696   0.514   9.330 -0.4163 -0.1562 -0.0266
19290TIP3    H179361   3.735   0.601   9.329 -0.7432  0.0043 -1.3081
19290TIP3    H279362   3.603   0.529   9.343 -0.5457 -0.2590 -0.7600
19291TIP3   OH279363   1.601   1.149   9.134 -0.4612  0.1792  0.2845
19291TIP3    H179364   1.608   1.090   9.208  0.4381  1.8407  1.5889
19291TIP3    H279365   1.691   1.176   9.115 -0.9258  2.0919  0.5760
19292TIP3   OH279366   1.547   0.228  38.984 -0.0835  0.1827  0.2521
19292TIP3    H179367   1.589   0.173  38.918 -0.6411  1.1202 -0.9326
19292TIP3    H279368   1.463   0.252  38.944  0.6185  2.8315  0.1881
19293TIP3   OH279369   3.575   0.903   3.189  0.0365  0.3134  0.2965
19293TIP3    H179370   3.662   0.875   3.161  0.5113  0.3965  1.6079
19293TIP3    H279371   3.519   0.889   3.113  1.2511  0.5255 -0.6612
19294TIP3   OH279372   1.840   1.079  36.353  0.1451 -0.6248  0.0136
19294TIP3    H179373   1.851   1.129  36.433 -0.1995 -0.0833 -0.2653
19294TIP3    H279374   1.807   1.143  36.290 -0.7294 -1.2988 -0.2287
19295TIP3   OH279375   3.936   3.167   2.737 -0.0648  0.2067  0.4747
19295TIP3    H179376   3.999   3.239   2.736 -0.0121  0.2095  1.8232
19295TIP3    H279377   3.987   3.089   2.718 -0.1255  0.5071 -1.0220
19296TIP3   OH279378   0.033   0.962  16.158 -0.0896  0.1352  0.3137
19296TIP3    H179379   0.074   1.003  16.082  0.9911  2.4486  2.0402
19296TIP3    H279380  -0.055   0.938  16.128  0.0201  1.7336 -1.4450
19297TIP3   OH279381   3.930   3.895   2.113 -0.2129  0.2482 -0.7072
19297TIP3    H179382   3.853   3.951   2.107  0.1288  0.7875 -0.1274
19297TIP3    H279383   4.005   3.955   2.110  0.1795 -0.2327 -0.8323
19298TIP3   OH279384   0.766   1.253   6.792 -0.1034  0.0788  0.0067
19298TIP3    H179385   0.723   1.187   6.846 -0.1660  0.0029 -0.1354
19298TIP3    H279386   0.838   1.206   6.749  1.3838  0.6363  1.7544
19299TIP3   OH279387   3.839   2.626  44.320  0.2375 -0.2882 -0.2896
19299TIP3    H179388   3.805   2.638  44.409  3.4444  0.9249  0.8962
19299TIP3    H279389   3.762   2.640  44.263 -1.6902 -0.0757  2.2072
19300TIP3   OH279390   0.776   1.337  12.768 -0.3413 -0.4812  0.3088
19300TIP3    H179391   0.858   1.291  12.786 -0.8707 -1.9614 -0.8855
19300TIP3    H279392   0.733   1.344  12.853 -1.4831 -4.7131  0.3025
19301TIP3   OH279393   2.459   3.212   7.538 -0.3033  0.2298 -0.5104
19301TIP3    H179394   2.510   3.177   7.611 -1.3516 -0.7711 -0.2210
19301TIP3    H279395   2.419   3.292   7.573 -2.1510 -1.1187  0.6141
19302TIP3   OH279396   0.485   3.504  14.010 -0.1745 -0.1393  0.0767
19302TIP3    H179397   0.556   3.443  13.988 -0.9725 -1.2949  0.5861
19302TIP3    H279398   0.503   3.582  13.957  0.8651 -0.8230 -0.6213
19303TIP3   OH279399   2.321   3.499  12.496  0.3205  0.0142 -0.5822
19303TIP3    H179400   2.254   3.516  12.429 -0.8014  0.7927  0.6938
19303TIP3    H279401   2.329   3.403  12.498 -0.9808 -0.1199 -0.5708
19304TIP3   OH279402   3.221   3.714  12.703  0.0461  0.3143  0.5486
19304TIP3    H179403   3.302   3.716  12.753 -0.1578  1.2358  0.8465
19304TIP3    H279404   3.201   3.805  12.684 -0.9347  0.1015  0.4937
19305TIP3   OH279405   1.715   1.443  40.489 -0.4942 -0.1550 -0.0887
19305TIP3    H179406   1.682   1.355  40.472  0.6259 -0.5765 -0.1962
19305TIP3    H279407   1.692   1.493  40.410 -3.1521  0.3007  0.8941
19306TIP3   OH279408   2.802   3.580  41.664 -0.2964  0.1115  0.2114
19306TIP3    H179409   2.870   3.572  41.731  0.6512  0.8441 -0.6350
19306TIP3    H279410   2.723   3.545  41.706  0.1626  0.9423  1.8762
19307TIP3   OH279411   2.604   1.677  43.727 -0.3114 -0.5873  0.4897
19307TIP3    H179412   2.550   1.644  43.656  1.7237 -0.4836 -1.2119
19307TIP3    H279413   2.666   1.737  43.684  1.9943 -1.6861  2.0743
19308TIP3   OH279414   3.247   0.418  44.622  0.6197 -0.2773 -0.1751
19308TIP3    H179415   3.208   0.419  44.534  0.0941  3.7793 -0.1225
19308TIP3    H279416   3.323   0.476  44.615  0.5901  0.1185  2.0123
19309TIP3   OH279417   3.268   2.951   1.246 -0.1107 -0.0230 -0.3176
19309TIP3    H179418   3.330   2.913   1.184  2.0194 -0.1314  1.7406
19309TIP3    H279419   3.279   3.046   1.236 -0.2382 -0.0326 -0.5482
19310TIP3   OH279420   2.240   2.198  35.153  0.0430  0.2666  0.4055
19310TIP3    H179421   2.169   2.257  35.176  0.6608  1.6490 -1.0415
19310TIP3    H279422   2.320   2.249  35.170  0.6365 -0.5955  0.2792
19311TIP3   OH279423   2.671   2.748  43.561 -0.4807 -0.1161 -0.5730
19311TIP3    H179424   2.620   2.767  43.482 -1.5587  0.6933  0.2912
19311TIP3    H279425   2.645   2.659  43.585 -1.4664  0.2633 -0.1809
19312TIP3   OH279426   3.183   0.719  36.121 -0.5223  0.0294 -0.2139
19312TIP3    H179427   3.157   0.627  36.130  1.0070 -0.2836  1.8455
19312TIP3    H279428   3.266   0.716  36.075 -1.0589  0.5281 -1.2588
19313TIP3   OH279429   0.207   1.759  11.676 -0.7085 -0.0877 -0.0259
19313TIP3    H179430   0.212   1.846  11.637  0.7510 -0.0671  0.1272
19313TIP3    H279431   0.294   1.746  11.714 -1.3087 -1.1012  1.0594
19314TIP3   OH279432   3.610   3.773  46.506 -0.2194 -0.3493  0.2626
19314TIP3    H179433   3.595   3.680  46.526  0.0305 -0.0707  1.9386
19314TIP3    H279434   3.522   3.810  46.500 -0.3502 -0.2549  2.0777
19315TIP3   OH279435   0.893   2.499  14.321 -0.3645 -0.0230  0.1979
19315TIP3    H179436   0.978   2.526  14.286 -0.3382 -0.1287  0.1790
19315TIP3    H279437   0.911   2.473  14.412 -0.4687  0.4392  0.3521
19316TIP3   OH279438   0.027   1.642  41.768  0.3755  0.1104  0.8622
19316TIP3    H179439   0.085   1.570  41.742 -1.4558 -1.2729  0.4272
19316TIP3    H279440   0.003   1.621  41.858  1.4046  1.2935  1.4352
19317TIP3   OH279441   3.957   0.180  10.010  0.3896 -0.1138 -0.4438
19317TIP3    H179442   3.932   0.094  10.043 -1.1414  0.6127  0.3719
19317TIP3    H279443   3.888   0.204   9.949 -0.2893  1.3510  0.8243
19318TIP3   OH279444   1.627   2.976  36.761 -0.0511  0.2238  0.1254
19318TIP3    H179445   1.676   2.964  36.842 -0.1636  2.8239  0.6493
19318TIP3    H279446   1.671   3.048  36.716 -1.7904  0.8578 -0.6616
19319TIP3   OH279447   2.590   2.209  36.426  0.2834 -0.0617 -0.4220
19319TIP3    H179448   2.495   2.198  36.435  0.2422  1.5969  2.3118
19319TIP3    H279449   2.601   2.289  36.376  0.1823  0.5615  0.5306
19320TIP3   OH279450   2.707   1.049   3.931 -0.0789 -0.0165  0.5114
19320TIP3    H179451   2.762   0.997   3.872  1.7855 -1.1946  3.0883
19320TIP3    H279452   2.746   1.136   3.930  0.1854 -0.1361  0.3267
19321TIP3   OH279453   1.880   1.516  21.336 -0.1433  0.3969  0.5237
19321TIP3    H179454   1.872   1.539  21.244  0.0222  2.8745  1.0644
19321TIP3    H279455   1.974   1.513  21.352 -0.0161 -3.1250  0.0158
19322TIP3   OH279456   2.547   3.492  12.682 -0.2094 -0.2354  0.7158
19322TIP3    H179457   2.462   3.506  12.640  0.0390 -0.9662 -0.0856
19322TIP3    H279458   2.531   3.424  12.747 -0.2859 -0.2412  0.6903
19323TIP3   OH279459   2.784   0.704  37.133  0.2075 -0.3478  0.3336
19323TIP3    H179460   2.844   0.667  37.068  1.6747  1.4722  0.5644
19323TIP3    H279461   2.727   0.631  37.156  0.3119 -1.3512 -2.1852
19324TIP3   OH279462   0.896   1.729  41.730  0.2793 -0.2363  0.2260
19324TIP3    H179463   0.962   1.750  41.664  0.9457  0.3271  1.0482
19324TIP3    H279464   0.897   1.804  41.790 -2.2100  0.5497 -0.5471
19325TIP3   OH279465   1.632   4.072  15.452 -0.1290  0.3619  0.2954
19325TIP3    H179466   1.604   4.032  15.535  0.3838  1.2596  0.9273
19325TIP3    H279467   1.712   4.024  15.429 -0.1532  0.2532  0.4356
19326TIP3   OH279468   3.531   0.509  24.989  0.5020  0.4137 -0.9768
19326TIP3    H179469   3.545   0.415  25.000  0.7337  0.4629 -0.8580
19326TIP3    H279470   3.454   0.514  24.932 -0.3641  0.1556  0.1216
19327TIP3   OH279471   1.772   2.159  40.940 -0.1492  0.1476 -0.0680
19327TIP3    H179472   1.779   2.086  41.001  0.9505 -1.0268 -1.5324
19327TIP3    H279473   1.855   2.206  40.950 -0.3613  0.5185 -0.0022
19328TIP3   OH279474   1.304   3.395   5.518 -0.3014  0.1869  0.2236
19328TIP3    H179475   1.269   3.456   5.453 -1.5502 -0.9745 -0.2458
19328TIP3    H279476   1.397   3.416   5.523 -0.7629  2.4171  0.4334
19329TIP3   OH279477   1.423   0.380  35.346 -0.0820  0.3026  0.0281
19329TIP3    H179478   1.415   0.383  35.250  0.2407  1.6344  0.0174
19329TIP3    H279479   1.502   0.328  35.362 -0.8098 -0.9737 -0.3630
19330TIP3   OH279480   3.780   0.117   2.890 -0.3766 -0.9261  0.2082
19330TIP3    H179481   3.720   0.057   2.846 -1.2693 -1.8383  2.4856
19330TIP3    H279482   3.844   0.059   2.933 -0.6462 -0.2458  1.5932
19331TIP3   OH279483   3.940   2.473  20.710  0.3094 -0.0567 -0.4349
19331TIP3    H179484   3.962   2.516  20.793 -0.4091 -1.1892  0.3720
19331TIP3    H279485   3.983   2.526  20.643 -0.6374  1.9566  0.4962
19332TIP3   OH279486   3.908   3.165  42.592 -0.8488  0.7747 -0.4609
19332TIP3    H179487   3.828   3.119  42.569 -0.1370 -1.9313  1.8550
19332TIP3    H279488   3.880   3.234  42.652 -1.5121 -0.3737  0.6132
19333TIP3   OH279489   2.776   2.771  34.733  0.6275  0.0253  0.3670
19333TIP3    H179490   2.745   2.848  34.685  1.0973 -0.1974 -0.3142
19333TIP3    H279491   2.734   2.777  34.818  0.2806  0.7808  0.1512
19334TIP3   OH279492   3.704   2.590  15.168  0.0164 -0.0637 -0.7310
19334TIP3    H179493   3.642   2.624  15.103 -0.6747 -0.5346 -0.3212
19334TIP3    H279494   3.789   2.623  15.138 -0.6811  2.7767  0.1190
19335TIP3   OH279495   0.697   2.817  47.172 -0.2110  0.2469  0.2526
19335TIP3    H179496   0.674   2.824  47.079 -1.4758 -0.2633  0.5094
19335TIP3    H279497   0.765   2.750  47.175  1.1979  1.6078 -0.5053
19336TIP3   OH279498   3.005   0.496  38.190  0.2679  0.2176  1.1390
19336TIP3    H179499   2.959   0.579  38.204 -0.0338  0.2199  0.2315
19336TIP3    H279500   3.096   0.521  38.177 -0.0809  0.6142 -0.8902
19337TIP3   OH279501   1.609   2.400  11.621 -0.0019 -0.0620 -0.2619
19337TIP3    H179502   1.613   2.386  11.526  0.5026 -0.8618 -0.1336
19337TIP3    H279503   1.533   2.349  11.650  1.2728 -1.8456  0.0771
19338TIP3   OH279504   3.693   0.563  33.136 -0.6760 -0.2418 -0.2480
19338TIP3    H179505   3.693   0.607  33.051  2.5742  1.5447  0.5006
19338TIP3    H279506   3.601   0.540  33.151 -1.4387 -0.2644 -3.9878
19339TIP3   OH279507   3.138   2.969  10.185 -0.1230  0.1452  0.1547
19339TIP3    H179508   3.149   2.875  10.171  1.3261  0.4277 -0.8689
19339TIP3    H279509   3.077   2.996  10.116 -0.0779  0.0425  0.0736
19340TIP3   OH279510   1.029   1.045   5.194 -0.4105  0.4752  0.0372
19340TIP3    H179511   1.038   0.973   5.256  0.8443 -0.0660 -0.7387
19340TIP3    H279512   1.094   1.110   5.222 -1.5205  1.3137  0.7222
19341TIP3   OH279513   3.022   3.533  45.215  0.2247  0.0368 -0.7868
19341TIP3    H179514   3.011   3.618  45.257 -1.0570 -1.2969  1.8620
19341TIP3    H279515   2.941   3.520  45.165 -0.8488 -0.6988  1.0484
19342TIP3   OH279516   3.076   1.546  32.076 -0.1466  0.4186  0.2327
19342TIP3    H179517   3.152   1.488  32.065  0.1011  0.4777  1.4510
19342TIP3    H279518   3.002   1.486  32.089 -0.4085  0.3529 -1.3720
19343TIP3   OH279519   3.612   1.334  39.713 -0.1617 -0.4015 -0.7150
19343TIP3    H179520   3.650   1.421  39.724  0.9408 -1.1887  3.3889
19343TIP3    H279521   3.666   1.292  39.647  4.0208 -0.1696  2.1632
19344TIP3   OH279522   0.698   2.444  46.683 -0.0362  0.0735  0.4798
19344TIP3    H179523   0.726   2.357  46.710 -2.1027 -1.2692 -1.3855
19344TIP3    H279524   0.603   2.437  46.671 -0.3191  2.6670  0.5479
19345TIP3   OH279525   0.582   0.038  32.634  0.1835  0.6424 -1.0117
19345TIP3    H179526   0.672   0.007  32.625  0.3307  0.5810  0.5092
19345TIP3    H279527   0.565   0.084  32.551  1.5617  0.5531 -1.3739
19346TIP3   OH279528   3.163   0.002  33.005  0.2282  0.0278  0.0647
19346TIP3    H179529   3.220  -0.058  33.053  0.6531  0.3406 -0.0402
19346TIP3    H279530   3.190   0.089  33.034 -0.7236  0.1534  0.5830
19347TIP3   OH279531   2.544   3.724  36.573 -0.2119  0.1006  0.2901
19347TIP3    H179532   2.619   3.744  36.518 -0.8128  0.9939 -0.2258
19347TIP3    H279533   2.583   3.700  36.658  0.6412  1.1053  0.2077
19348TIP3   OH279534   3.446   1.860   2.398  0.0532  0.6031  0.0878
19348TIP3    H179535   3.370   1.839   2.454 -1.1596  1.3848 -1.2177
19348TIP3    H279536   3.490   1.776   2.386 -2.1878 -0.4677 -1.3672
19349TIP3   OH279537   0.815   1.245   9.097 -0.5425  0.4304 -0.1603
19349TIP3    H179538   0.726   1.218   9.075 -0.6718 -1.2642  2.0130
19349TIP3    H279539   0.804   1.330   9.139 -1.0535  0.5561 -0.5415
19350TIP3   OH279540   3.153   3.473  10.940  0.2671  1.3294  0.1024
19350TIP3    H179541   3.066   3.473  10.981 -0.0066  1.0374 -0.4664
19350TIP3    H279542   3.211   3.437  11.007 -0.2938  0.2060  0.0098
19351TIP3   OH279543   0.108   2.626  10.340  0.1218 -0.3696  0.0454
19351TIP3    H179544   0.201   2.646  10.331  0.2734 -0.5391  1.0928
19351TIP3    H279545   0.065   2.684  10.277  0.9475 -0.4453 -0.6010
19352TIP3   OH279546   1.490   4.100  33.421 -0.5144  0.1745  0.2260
19352TIP3    H179547   1.521   4.039  33.487  0.1839 -1.2603 -1.3470
19352TIP3    H279548   1.397   4.081  33.412 -0.2612 -0.8903 -0.4103
19353TIP3   OH279549   2.940   4.048  38.863 -0.2712 -0.1868  0.1353
19353TIP3    H179550   3.003   4.099  38.812 -0.8444  0.9979  0.5871
19353TIP3    H279551   2.859   4.100  38.861 -0.8008 -0.9597  0.8112
19354TIP3   OH279552   2.185   3.188  39.421  0.0893 -0.0209  0.4891
19354TIP3    H179553   2.199   3.111  39.367 -1.4104 -0.0677  0.1258
19354TIP3    H279554   2.181   3.261  39.359  0.1891  0.1709  0.7079
19355TIP3   OH279555   3.716   3.646  47.293  0.1521 -0.3222  0.1004
19355TIP3    H179556   3.809   3.629  47.308 -0.2381 -0.8058  2.3300
19355TIP3    H279557   3.701   3.734  47.329 -0.1532 -0.0316 -0.7205
19356TIP3   OH279558   1.368   1.462  36.441 -0.2737  0.2110  0.1728
19356TIP3    H179559   1.412   1.456  36.357  0.9332  0.5305  0.7608
19356TIP3    H279560   1.326   1.377  36.453 -2.2280  0.8438 -1.6627
19357TIP3   OH279561   0.463   3.120  40.777 -0.4163  0.6772 -0.2954
19357TIP3    H179562   0.514   3.080  40.847 -2.2727  0.3567  0.9460
19357TIP3    H279563   0.528   3.165  40.723  1.2690 -0.6106  0.5669
19358TIP3   OH279564   3.065   1.129   1.079 -0.1645 -0.3101  0.1684
19358TIP3    H179565   3.102   1.158   0.996 -1.1392  1.3108  0.2598
19358TIP3    H279566   3.075   1.205   1.137 -0.4239 -1.0638  1.2163
19359TIP3   OH279567   1.801   1.617  18.582 -0.2452 -0.0831 -0.3475
19359TIP3    H179568   1.849   1.618  18.499  0.2060 -1.9273 -0.1525
19359TIP3    H279569   1.734   1.550  18.570 -1.7323  1.2813 -0.0140
19360TIP3   OH279570   0.273   1.633  20.569 -0.0763 -0.0413 -0.1917
19360TIP3    H179571   0.209   1.565  20.586  0.5561 -0.9701 -1.4066
19360TIP3    H279572   0.348   1.588  20.530  0.4398  1.3117 -0.8582
19361TIP3   OH279573   2.633   2.257   3.580  0.6454 -0.5340 -0.4350
19361TIP3    H179574   2.681   2.200   3.639  1.2800  0.2192 -0.1996
19361TIP3    H279575   2.639   2.344   3.621 -1.0330 -0.4336 -0.3249
19362TIP3   OH279576   3.780   2.073  47.194  0.3991  0.5164 -0.6527
19362TIP3    H179577   3.782   2.018  47.272  0.3812  1.3182 -0.0836
19362TIP3    H279578   3.859   2.047  47.145  1.3477  1.2138  0.4700
19363TIP3   OH279579   2.364   2.328  11.223  0.6778 -0.4069  0.3584
19363TIP3    H179580   2.363   2.359  11.133 -0.5459 -1.5244 -0.0568
19363TIP3    H279581   2.278   2.287  11.235  1.1949 -1.1700  1.7095
19364TIP3   OH279582   3.286   3.692  36.601  0.5118  0.2479  0.0020
19364TIP3    H179583   3.238   3.609  36.598  0.9761 -0.0488  0.6139
19364TIP3    H279584   3.269   3.726  36.688  0.3411  0.7883 -0.2427
19365TIP3   OH279585   0.145   0.750  14.124  0.0671  0.0325  0.0106
19365TIP3    H179586   0.051   0.733  14.130  0.2599 -0.8390  0.8698
19365TIP3    H279587   0.174   0.759  14.215  0.6067  1.5671 -0.2959
19366TIP3   OH279588   0.710   3.169  13.479 -0.7696  0.6299 -0.6573
19366TIP3    H179589   0.793   3.175  13.431  0.5088 -1.0855  1.1632
19366TIP3    H279590   0.644   3.157  13.410  0.9774 -1.8867 -2.0856
19367TIP3   OH279591   1.833   0.085   8.749 -0.0921  0.2060  0.0596
19367TIP3    H179592   1.846   0.022   8.820  0.1865  0.0282 -0.1461
19367TIP3    H279593   1.918   0.127   8.738  0.4763 -1.2549 -1.5752
19368TIP3   OH279594   2.061   0.025   6.462 -0.1890  0.0617 -0.2594
19368TIP3    H179595   2.095   0.031   6.373  0.1150  0.0001 -0.1507
19368TIP3    H279596   2.134   0.055   6.517 -0.1487 -0.5217  0.0075
19369TIP3   OH279597   2.658   0.510  42.523  0.5731  0.1415 -0.2591
19369TIP3    H179598   2.590   0.458  42.565  0.1352 -0.2371 -1.3941
19369TIP3    H279599   2.610   0.567  42.462  1.2843 -0.5210 -1.4751
19370TIP3   OH279600   2.751   2.681   0.536 -0.1890  0.7007 -0.6840
19370TIP3    H179601   2.744   2.661   0.442  0.0454  1.2578 -0.8224
19370TIP3    H279602   2.712   2.767   0.546 -1.6460  0.0035  0.0008
19371TIP3   OH279603   2.802   1.039  36.783 -0.5759 -0.0901  0.8079
19371TIP3    H179604   2.801   1.017  36.876 -0.1707  1.8555  1.3158
19371TIP3    H279605   2.864   0.977  36.744  0.2150 -0.1355  2.0790
19372TIP3   OH279606   1.239   2.877  11.206 -0.2009 -0.3284  0.2291
19372TIP3    H179607   1.229   2.783  11.188 -0.3725 -0.6214  1.6698
19372TIP3    H279608   1.155   2.915  11.182 -0.0343 -0.4953 -0.6317
19373TIP3   OH279609   0.746   3.318  13.032 -0.3272  0.5850  0.3260
19373TIP3    H179610   0.707   3.379  13.094 -0.5885  1.3347 -0.5469
19373TIP3    H279611   0.673   3.289  12.976 -0.3514 -1.1158  1.1637
19374TIP3   OH279612   1.050   2.331  11.242 -0.1196  0.2613  0.7302
19374TIP3    H179613   1.134   2.288  11.229 -0.3678 -0.2379  0.7363
19374TIP3    H279614   1.069   2.425  11.238  0.5429  0.1590  1.4252
19375TIP3   OH279615   2.323   0.576  39.486  0.6208  0.3392 -0.3864
19375TIP3    H179616   2.352   0.503  39.541  0.8813 -0.2241 -1.2431
19375TIP3    H279617   2.227   0.569  39.485  0.5901  0.5860  0.2898
19376TIP3   OH279618   2.998   1.096  42.706  1.0948  0.5505  0.0216
19376TIP3    H179619   2.919   1.053  42.740  1.4261  0.3568  0.5611
19376TIP3    H279620   3.067   1.067  42.765  1.1223  2.9108  1.2297
19377TIP3   OH279621   0.330   3.043   6.988 -0.0202  0.2231  0.5907
19377TIP3    H179622   0.379   2.962   6.996  0.7141  0.6959  1.0178
19377TIP3    H279623   0.351   3.092   7.068 -0.2217  0.9582  0.2041
19378TIP3   OH279624   3.060   1.345  14.726 -0.4350 -0.0469 -0.0224
19378TIP3    H179625   3.029   1.318  14.640 -1.7954  0.3438  0.3252
19378TIP3    H279626   2.992   1.404  14.759  0.8134  1.0535  0.6707
19379TIP3   OH279627   4.001   3.416  31.106  0.1793  0.2888 -0.2084
19379TIP3    H179628   4.084   3.461  31.088  3.7849 -4.4763  2.1661
19379TIP3    H279629   3.983   3.434  31.198 -0.2705 -0.2691 -0.1789
19380TIP3   OH279630   2.795   3.939   0.422 -0.1439  0.2685 -0.0464
19380TIP3    H179631   2.717   3.963   0.372  0.0956 -0.2033 -0.6593
19380TIP3    H279632   2.800   3.844   0.415 -0.1146  0.1922  0.9027
19381TIP3   OH279633   2.012   1.059   0.433  0.3840 -0.1781 -0.2309
19381TIP3    H179634   2.010   0.966   0.456 -0.1009  0.2453  1.6021
19381TIP3    H279635   2.103   1.076   0.411  0.0646 -1.6065 -3.1635
19382TIP3   OH279636   1.175   0.234  40.768 -0.5386 -0.5815 -0.2977
19382TIP3    H179637   1.163   0.194  40.854 -0.3848  0.2925  0.1429
19382TIP3    H279638   1.106   0.301  40.762  0.6956  0.7696  0.0164
19383TIP3   OH279639   1.967   3.190  12.910  0.3484  0.8293 -0.7466
19383TIP3    H179640   1.929   3.227  12.990 -0.1741 -0.3126 -0.4435
19383TIP3    H279641   1.899   3.202  12.843  0.4275  0.9759 -0.8008
19384TIP3   OH279642   0.858   3.799  46.778  0.5062  0.1467 -0.5209
19384TIP3    H179643   0.906   3.872  46.739  1.5003 -0.7495 -1.0297
19384TIP3    H279644   0.837   3.829  46.867 -0.2543  1.5361 -1.1462
19385TIP3   OH279645   1.928   3.884  34.670 -0.0965 -0.1806  0.2973
19385TIP3    H179646   1.948   3.934  34.750 -0.7097  0.8561 -0.1654
19385TIP3    H279647   1.855   3.828  34.694 -0.4692  0.3393  0.4019
19386TIP3   OH279648   1.491   2.271  19.674  0.0886  0.6097  0.1816
19386TIP3    H179649   1.460   2.357  19.705  1.9084  1.7337 -0.8908
19386TIP3    H279650   1.574   2.291  19.631  0.0862 -1.5879 -0.9492
19387TIP3   OH279651   1.686   4.108  10.702 -0.5923 -0.2180  0.4733
19387TIP3    H179652   1.638   4.051  10.642 -1.6063 -0.8565  1.8268
19387TIP3    H279653   1.770   4.064  10.714 -1.2731 -1.3585  1.3179
19388TIP3   OH279654   2.602   0.661  36.462  0.5276 -0.3872 -0.3552
19388TIP3    H179655   2.667   0.732  36.463  1.3050 -1.0617  1.3530
19388TIP3    H279656   2.654   0.581  36.456 -0.2496 -0.8809 -0.6131
19389TIP3   OH279657   1.932   3.465  27.819  0.0175  0.2095 -0.0581
19389TIP3    H179658   1.903   3.426  27.736 -1.1541  2.1042 -0.6072
19389TIP3    H279659   1.883   3.417  27.886 -0.7597  0.1375 -0.6520
19390TIP3   OH279660   3.564   1.519  45.104  0.1251 -0.0550 -0.2314
19390TIP3    H179661   3.545   1.609  45.132  1.5759  0.1777  0.0923
19390TIP3    H279662   3.615   1.481  45.176 -0.2138 -1.0417 -0.4949
19391TIP3   OH279663   1.214   2.333  39.917  0.1477  0.5566 -0.3276
19391TIP3    H179664   1.258   2.254  39.947  0.1077  0.2220 -1.1191
19391TIP3    H279665   1.122   2.320  39.943  0.0989  0.2377 -0.6485
19392TIP3   OH279666   1.562   0.375   4.666 -0.3495  0.2465 -0.7289
19392TIP3    H179667   1.640   0.429   4.655  0.0201  0.0440  0.7133
19392TIP3    H279668   1.519   0.412   4.744 -0.7419 -0.7619 -0.4586
19393TIP3   OH279669   3.110   0.276   5.844  0.0739 -0.2287  1.0204
19393TIP3    H179670   3.131   0.360   5.805  0.2289 -0.1965  1.1689
19393TIP3    H279671   3.094   0.296   5.937  1.8322 -0.6002  1.4418
19394TIP3   OH279672   0.266   0.395   1.505  0.3091 -0.1544  0.3756
19394TIP3    H179673   0.263   0.386   1.600  2.8163  1.6471  0.7500
19394TIP3    H279674   0.176   0.385   1.476 -0.8000  0.9629  3.1428
19395TIP3   OH279675   2.993   3.958  34.459 -0.5563 -0.0219 -0.2118
19395TIP3    H179676   3.014   4.032  34.517 -1.6748  0.7101 -0.7136
19395TIP3    H279677   2.957   3.999  34.381  2.7571 -0.8394 -2.3793
19396TIP3   OH279678   3.053   3.056  34.709  0.4074 -0.6765  0.0834
19396TIP3    H179679   2.965   3.047  34.744  0.6149  0.9113  1.1423
19396TIP3    H279680   3.105   2.993  34.759 -0.3217 -2.6039 -1.4793
19397TIP3   OH279681   1.794   3.174  45.723 -0.3209  0.3211 -0.2361
19397TIP3    H179682   1.821   3.161  45.814  1.2865  0.9501 -0.5989
19397TIP3    H279683   1.852   3.243  45.690 -1.6069  0.8823 -1.4277
19398TIP3   OH279684   1.850   0.803  14.444 -0.5179  0.0559 -0.2509
19398TIP3    H179685   1.811   0.864  14.507 -0.5262 -1.0835  0.8857
19398TIP3    H279686   1.871   0.726  14.496  1.9534  0.0811 -1.1141
19399TIP3   OH279687   1.993   1.498  36.316 -0.4762 -0.2924  0.0778
19399TIP3    H179688   2.018   1.542  36.235 -0.6339  0.8847  0.6544
19399TIP3    H279689   2.063   1.435  36.331 -0.8881 -1.1664 -1.4303
19400TIP3   OH279690   3.790   1.674  32.776 -0.1049  0.5626  0.6694
19400TIP3    H179691   3.704   1.638  32.798  0.0742 -0.7632 -0.6012
19400TIP3    H279692   3.850   1.633  32.838 -0.4221  1.7872  1.8071
19401TIP3   OH279693   2.749   2.493  44.338  0.0336 -0.5861  0.0029
19401TIP3    H179694   2.780   2.582  44.324  0.2029 -0.4666  1.0418
19401TIP3    H279695   2.738   2.486  44.433 -0.2427 -1.5846 -0.0909
19402TIP3   OH279696   1.216   3.760  33.926 -0.1452  0.4965  0.7215
19402TIP3    H179697   1.242   3.844  33.888  0.3942  0.2687  0.5748
19402TIP3    H279698   1.217   3.774  34.021  1.0306  0.3544  0.7401
19403TIP3   OH279699   2.616   0.911  38.241 -0.0397  0.0626 -0.3341
19403TIP3    H179700   2.709   0.919  38.222  0.1312  0.7249  0.7120
19403TIP3    H279701   2.598   0.817  38.235  0.5795 -0.0203 -0.9969
19404TIP3   OH279702   0.925   3.428  44.687 -0.1310  0.4746 -0.0711
19404TIP3    H179703   1.012   3.427  44.646 -0.5802  0.1244 -1.0308
19404TIP3    H279704   0.866   3.395  44.620 -0.8875 -0.1546  0.8811
19405TIP3   OH279705   2.938   3.493   5.990  0.1143 -0.1641  0.3238
19405TIP3    H179706   2.976   3.564   6.041  0.7721 -0.1872 -0.1195
19405TIP3    H279707   3.008   3.465   5.932 -0.7751  0.2068 -0.9700
19406TIP3   OH279708   0.064   0.921  42.293  0.0987 -0.5806  0.1740
19406TIP3    H179709   0.016   0.996  42.329 -0.0928 -0.0294 -1.1795
19406TIP3    H279710   0.144   0.917  42.344 -0.2400  0.0694  0.7687
19407TIP3   OH279711   1.336   3.250  34.158  0.1740 -0.2731 -0.5320
19407TIP3    H179712   1.306   3.189  34.091 -1.5899  0.1431 -0.1597
19407TIP3    H279713   1.358   3.193  34.232  1.5237 -0.6787 -1.2126
19408TIP3   OH279714   2.010   3.977  37.628 -0.4281 -0.2903 -0.2797
19408TIP3    H179715   2.062   3.915  37.680  0.4052  1.2444  0.8226
19408TIP3    H279716   1.922   3.970  37.663  0.3994  1.8530  2.6552
19409TIP3   OH279717   2.792   3.504   1.968 -0.3550 -0.2887  0.5026
19409TIP3    H179718   2.784   3.543   1.881 -0.4295 -0.6386  0.3549
19409TIP3    H279719   2.767   3.575   2.028  0.9081  0.3535  0.3089
19410TIP3   OH279720   1.173   0.565   0.306  0.3026  0.4249  0.2904
19410TIP3    H179721   1.106   0.528   0.248 -0.0409  0.3100  0.7544
19410TIP3    H279722   1.166   0.515   0.387  1.3008  0.0769  0.1718
19411TIP3   OH279723   3.038   0.286   3.614 -0.2122 -0.3836  0.1113
19411TIP3    H179724   3.022   0.321   3.702  4.3017  0.8024  0.7301
19411TIP3    H279725   3.012   0.356   3.555 -1.5232 -0.4329  0.6129
19412TIP3   OH279726   3.162   3.807   3.651  0.3783  0.0419  0.0177
19412TIP3    H179727   3.086   3.778   3.599  1.0204 -0.6161 -0.5676
19412TIP3    H279728   3.126   3.824   3.738 -0.7895  1.4518 -0.6841
19413TIP3   OH279729   1.742   0.229  12.509  0.3297 -0.0590 -0.1072
19413TIP3    H179730   1.684   0.269  12.445  0.7276 -1.0961 -1.1362
19413TIP3    H279731   1.749   0.295  12.579 -2.2720 -0.0054  0.1947
19414TIP3   OH279732   3.677   3.499   0.383 -0.4113 -0.0593  0.2470
19414TIP3    H179733   3.735   3.575   0.385 -0.0956 -0.3168  1.4419
19414TIP3    H279734   3.717   3.436   0.443 -1.6843 -0.4142  0.7590
19415TIP3   OH279735   1.374   4.096   3.453  0.2677 -0.5471  0.0507
19415TIP3    H179736   1.375   4.001   3.468  2.3171 -0.5530  0.0724
19415TIP3    H279737   1.409   4.106   3.365 -1.4561  0.1414 -0.6030
19416TIP3   OH279738   0.231   2.911  11.353  0.1501  0.0605 -0.4177
19416TIP3    H179739   0.294   2.862  11.300 -0.3913 -0.3762 -0.6736
19416TIP3    H279740   0.151   2.859  11.348 -0.2123  0.5763 -0.0437
19417TIP3   OH279741   0.649   3.308   9.617 -0.3141 -0.0195  0.2597
19417TIP3    H179742   0.614   3.277   9.533  0.3987 -2.2771  0.7230
19417TIP3    H279743   0.676   3.228   9.663  0.5457  1.2511  2.0994
19418TIP3   OH279744   3.283   3.633   2.310  0.0679 -0.1072 -1.0637
19418TIP3    H179745   3.274   3.623   2.215  1.4582  0.7144 -1.3201
19418TIP3    H279746   3.309   3.725   2.321  0.5976 -0.3801  0.0527
19419TIP3   OH279747   1.756   1.737   9.118 -0.0418 -0.1504  0.3628
19419TIP3    H179748   1.825   1.690   9.070 -0.4120 -0.2707 -0.0580
19419TIP3    H279749   1.779   1.725   9.210 -0.6896 -2.0525  0.3253
19420TIP3   OH279750   3.820   0.245  38.259 -0.3960 -0.3641  0.0388
19420TIP3    H179751   3.830   0.166  38.312  0.2648 -1.3167 -1.4309
19420TIP3    H279752   3.909   0.280  38.251  0.0971 -1.9909 -2.9413
19421TIP3   OH279753   3.557   2.888   8.239  0.6074  0.5220  0.1617
19421TIP3    H179754   3.515   2.956   8.186  1.1031  0.6004 -0.1380
19421TIP3    H279755   3.638   2.928   8.269  0.0442  0.7075  1.5195
19422TIP3   OH279756   1.547   0.748   9.014 -0.1634 -0.2498 -0.1229
19422TIP3    H179757   1.538   0.653   9.020 -0.7553 -0.1550  0.7722
19422TIP3    H279758   1.466   0.782   9.054 -0.3285  0.6276 -1.1484
19423TIP3   OH279759   1.648   0.681   0.961 -0.4178 -0.1744  0.2752
19423TIP3    H179760   1.586   0.651   1.028 -2.2302  0.9002 -0.8430
19423TIP3    H279761   1.606   0.659   0.878  0.9135  0.2124 -0.5321
19424TIP3   OH279762   2.873   2.233  33.385  0.0540 -0.0534 -0.0358
19424TIP3    H179763   2.885   2.254  33.477 -0.2838 -0.7263  0.1604
19424TIP3    H279764   2.876   2.318  33.341  0.6047  0.2381  0.5431
19425TIP3   OH279765   1.112   3.910  28.028 -0.1540  0.0116 -0.5597
19425TIP3    H179766   1.053   3.983  28.007 -0.6123 -0.2329 -0.1384
19425TIP3    H279767   1.054   3.840  28.055  0.2432 -0.7149 -1.5213
19426TIP3   OH279768   0.882   3.711   4.867 -0.1444  0.5217  0.5144
19426TIP3    H179769   0.977   3.697   4.864 -0.1771  0.4410 -0.3884
19426TIP3    H279770   0.853   3.701   4.776 -0.9219  1.2248  0.6731
19427TIP3   OH279771   3.951   0.975  42.883 -0.2236  0.3902  0.4574
19427TIP3    H179772   3.956   0.975  42.788 -3.5957 -1.5366  0.1041
19427TIP3    H279773   4.010   0.905  42.911 -0.7703 -0.4687 -0.4606
19428TIP3   OH279774   2.039   3.421  10.540  0.6564 -0.9421  0.3040
19428TIP3    H179775   1.948   3.449  10.530  0.1542 -2.4147  0.5221
19428TIP3    H279776   2.091   3.492  10.502 -0.6610 -0.8618 -1.4411
19429TIP3   OH279777   0.479   3.295   4.564  0.0665 -0.0672  0.0128
19429TIP3    H179778   0.463   3.276   4.472  1.3514  0.3934 -0.3218
19429TIP3    H279779   0.406   3.253   4.610 -0.6322 -0.2352 -1.2062
19430TIP3   OH279780   0.986   2.805  35.716  0.3609 -0.4666  0.2097
19430TIP3    H179781   1.053   2.874  35.723  0.1952 -0.4048  1.5572
19430TIP3    H279782   1.036   2.725  35.700  0.4278  0.2539 -4.8030
19431TIP3   OH279783   3.710   0.399   2.842  0.2175  0.4830  0.1741
19431TIP3    H179784   3.679   0.309   2.856  0.9321  0.0764 -0.7136
19431TIP3    H279785   3.635   0.454   2.860 -0.0740 -0.2560  1.3290
19432TIP3   OH279786   2.326   0.569   3.673 -0.7649 -0.2429  0.0658
19432TIP3    H179787   2.402   0.596   3.621 -0.9714 -2.1566 -1.3117
19432TIP3    H279788   2.266   0.644   3.667 -0.1465  0.1840 -1.2009
19433TIP3   OH279789   0.369   0.731  12.981 -0.1444 -0.6674  0.2515
19433TIP3    H179790   0.399   0.786  12.908 -0.3582 -1.5029 -0.4923
19433TIP3    H279791   0.304   0.786  13.026 -0.1598 -0.2067 -0.3080
19434TIP3   OH279792   1.508   2.821  37.183  0.1563 -0.2642  0.1492
19434TIP3    H179793   1.596   2.808  37.218  1.5034  0.2629 -2.7554
19434TIP3    H279794   1.477   2.902  37.225  0.9569 -0.5159  1.2824
19435TIP3   OH279795   2.309   3.421  14.754 -0.2584  0.4367 -0.1699
19435TIP3    H179796   2.345   3.465  14.677  1.8250 -0.8632  0.0108
19435TIP3    H279797   2.255   3.351  14.718  1.2756 -0.6152 -0.4986
19436TIP3   OH279798   3.676   1.156   2.448  0.5007 -0.0978  0.0815
19436TIP3    H179799   3.640   1.209   2.377 -1.0263  0.5981  1.3213
19436TIP3    H279800   3.601   1.108   2.483  0.7353  1.2524  2.6366
19437TIP3   OH279801   0.447   1.306  47.464  0.4545  0.3858  0.3293
19437TIP3    H179802   0.363   1.296  47.420  0.7533  0.4141 -0.2557
19437TIP3    H279803   0.510   1.320  47.393  0.9440  0.4187  0.7649
19438TIP3   OH279804   0.509   2.058  33.864 -0.0213 -0.1770  0.4826
19438TIP3    H179805   0.470   2.122  33.805 -1.4061 -1.2997  0.1164
19438TIP3    H279806   0.527   1.982  33.809  1.7950 -0.0774  0.8646
19439TIP3   OH279807   1.984   1.410   0.292  0.1929 -0.0193 -0.0150
19439TIP3    H179808   1.923   1.357   0.342 -1.2326  1.1368 -0.4585
19439TIP3    H279809   2.009   1.481   0.352  1.3759 -0.6486  0.2705
19440TIP3   OH279810   2.387   0.119  38.828 -0.3703 -0.7559  0.0951
19440TIP3    H179811   2.401   0.054  38.758  0.4734  0.1799 -0.6316
19440TIP3    H279812   2.372   0.066  38.907 -0.1757 -1.8328 -0.5676
19441TIP3   OH279813   0.062   1.946   3.746 -0.4797  0.4677  0.0232
19441TIP3    H179814   0.132   1.913   3.803  0.2721  2.9119  0.6475
19441TIP3    H279815   0.082   2.039   3.735 -1.8916  0.5655 -2.4280
19442TIP3   OH279816   1.793   1.956   6.427  0.4858 -0.5370 -0.5751
19442TIP3    H179817   1.816   2.049   6.427 -0.7721 -0.2075 -1.2624
19442TIP3    H279818   1.820   1.925   6.341  0.0161 -0.5835 -0.7030
19443TIP3   OH279819   2.227   2.773  45.931  1.3312  0.5746 -0.3830
19443TIP3    H179820   2.143   2.799  45.891  0.3845  1.0399  1.7585
19443TIP3    H279821   2.288   2.840  45.902  1.2071 -0.1830 -2.6001
19444TIP3   OH279822   3.620   0.551  45.863 -0.0558  0.0873 -0.1678
19444TIP3    H179823   3.709   0.518  45.877  0.5707  1.5618 -0.5429
19444TIP3    H279824   3.632   0.641  45.834 -1.6991  0.5041  0.3468
19445TIP3   OH279825   1.739   1.482  34.791  0.0202 -0.5360 -0.0473
19445TIP3    H179826   1.705   1.496  34.880 -0.2975  1.4299 -0.4318
19445TIP3    H279827   1.780   1.395  34.794 -3.3317 -2.2402  0.9676
19446TIP3   OH279828   1.254   0.452  34.365 -0.2455 -0.1872  0.1370
19446TIP3    H179829   1.215   0.476  34.280  0.0578 -0.6513 -0.1360
19446TIP3    H279830   1.220   0.365  34.384 -1.6480  0.5598  1.3190
19447TIP3   OH279831   4.078   1.145  13.329 -0.3390 -0.4874  0.3610
19447TIP3    H179832   4.093   1.240  13.328 -1.6949 -0.2575  0.9159
19447TIP3    H279833   4.120   1.114  13.248 -1.6031  0.8787 -0.8885
19448TIP3   OH279834   3.822   1.440  40.089  0.1963 -0.2457  0.6047
19448TIP3    H179835   3.911   1.462  40.117  0.9881 -3.1911  0.6274
19448TIP3    H279836   3.832   1.401  40.002 -1.4244  1.7309 -0.5720
19449TIP3   OH279837   1.577   3.763   5.279  0.5106  0.0595  0.3222
19449TIP3    H179838   1.485   3.745   5.298 -0.0157 -0.5835 -2.4496
19449TIP3    H279839   1.618   3.770   5.365 -2.3025  1.4804  1.6982
19450TIP3   OH279840   0.395   1.915  18.340 -0.3874 -0.0646  0.5859
19450TIP3    H179841   0.381   1.836  18.392  0.8933 -0.9705 -0.3996
19450TIP3    H279842   0.424   1.981  18.404 -0.6120 -0.6277  1.2866
19451TIP3   OH279843   1.913   1.886  15.930 -0.1387 -0.1177 -0.4831
19451TIP3    H179844   1.969   1.857  15.858  1.6165  1.0615  0.3498
19451TIP3    H279845   1.923   1.981  15.932 -0.1498 -0.1258  1.2956
19452TIP3   OH279846   2.347   4.023  31.352 -0.2152  0.5134  0.1822
19452TIP3    H179847   2.353   3.928  31.336 -0.6250  0.5889 -0.4544
19452TIP3    H279848   2.316   4.030  31.442  1.2129  0.0615  0.7518
19453TIP3   OH279849   0.915   1.162  40.319  0.1207 -0.3388  0.4849
19453TIP3    H179850   0.945   1.171  40.409  1.9348  0.5405 -0.1341
19453TIP3    H279851   0.860   1.239  40.304 -0.1914 -0.4908  0.8322
19454TIP3   OH279852   3.604   3.408  47.121  0.1450 -0.1699 -0.0745
19454TIP3    H179853   3.636   3.485  47.168  1.7706 -1.1795  0.5611
19454TIP3    H279854   3.568   3.351  47.189  1.3331 -1.0792 -0.1702
19455TIP3   OH279855   3.435   3.935   7.759 -0.2721  0.7805  0.1018
19455TIP3    H179856   3.471   3.895   7.680 -1.5929 -0.2287 -0.0243
19455TIP3    H279857   3.494   4.008   7.778  0.3536  0.7393 -1.5235
19456TIP3   OH279858   2.454   3.755   1.315  0.1629  0.1190 -0.1012
19456TIP3    H179859   2.479   3.830   1.263 -0.3599 -1.5160 -2.9121
19456TIP3    H279860   2.370   3.726   1.278 -1.4251  0.0995  3.1110
19457TIP3   OH279861   3.887   3.854  34.966 -0.3464  0.4262  0.6087
19457TIP3    H179862   3.885   3.950  34.968 -1.3210  0.4123  1.1650
19457TIP3    H279863   3.964   3.831  35.018  1.5462  0.9109 -1.8018
19458TIP3   OH279864   4.041   1.797  17.251  0.0619  0.1774  0.2024
19458TIP3    H179865   4.109   1.731  17.261  1.8396  1.4931 -2.2764
19458TIP3    H279866   4.086   1.880  17.262 -1.7905  1.0933  1.4501
19459TIP3   OH279867   1.764   3.910  30.195  0.3731 -0.3085 -0.3893
19459TIP3    H179868   1.789   3.999  30.220 -1.3431 -0.1158  0.8491
19459TIP3    H279869   1.691   3.888  30.254  0.8078 -2.5762 -0.5787
19460TIP3   OH279870   0.485   1.705  47.157 -0.2955 -0.0993  0.3566
19460TIP3    H179871   0.467   1.779  47.214  1.6908  1.0686 -0.4419
19460TIP3    H279872   0.461   1.736  47.069 -1.1227 -1.0549  0.2243
19461TIP3   OH279873   0.042   3.649   6.087 -0.0622 -0.1443 -0.5064
19461TIP3    H179874   0.104   3.716   6.059  0.4086 -0.3920 -0.0717
19461TIP3    H279875   0.034   3.590   6.011  0.4729 -0.2818 -0.4579
19462TIP3   OH279876   0.747   1.409  39.006  0.6551 -0.1018 -0.4596
19462TIP3    H179877   0.696   1.446  38.934  3.1855  2.9388 -0.9672
19462TIP3    H279878   0.689   1.415  39.082 -0.7096  0.5263 -1.5026
19463TIP3   OH279879   3.276   3.309  43.103  0.1031  0.5560  0.4310
19463TIP3    H179880   3.250   3.239  43.164 -0.7431 -0.4686 -1.0246
19463TIP3    H279881   3.217   3.297  43.028  1.0179  1.8607 -0.5261
19464TIP3   OH279882   2.605   0.565  41.504  0.2293 -0.5779  0.1166
19464TIP3    H179883   2.686   0.609  41.478  0.7715 -1.1723  0.7480
19464TIP3    H279884   2.543   0.585  41.434  0.8396  0.1144 -0.2387
19465TIP3   OH279885   1.534   2.860   5.050 -0.0497 -0.3765 -0.2506
19465TIP3    H179886   1.511   2.896   5.135 -1.4595  0.3433 -0.9029
19465TIP3    H279887   1.497   2.772   5.050 -1.0325  0.0307 -0.5272
19466TIP3   OH279888   0.548   0.004  44.679 -0.3123 -0.3441 -0.0688
19466TIP3    H179889   0.511  -0.085  44.672 -0.1407 -0.3574 -0.7942
19466TIP3    H279890   0.529   0.045  44.595  0.0054  0.1626  0.1034
19467TIP3   OH279891   2.936   0.493  41.725 -0.7132 -0.5429  0.5574
19467TIP3    H179892   2.884   0.490  41.805 -0.4383  0.6002  0.7978
19467TIP3    H279893   2.932   0.404  41.691 -2.3867 -0.6151  0.8419
19468TIP3   OH279894   2.679   0.958   1.564  0.1936  0.6831 -0.4066
19468TIP3    H179895   2.643   1.029   1.617  0.2588 -0.1211  0.7540
19468TIP3    H279896   2.670   0.988   1.474  0.6245  2.3568  0.0734
19469TIP3   OH279897   3.900   3.522  14.214 -0.2775  0.8514  0.1668
19469TIP3    H179898   3.886   3.451  14.277 -0.9539  2.0204  1.3892
19469TIP3    H279899   3.885   3.483  14.129  0.4041 -0.7254  0.7386
19470TIP3   OH279900   3.282   3.026  31.917  0.1098 -0.2977  0.2110
19470TIP3    H179901   3.301   3.083  31.842 -0.0303  0.5569  0.8049
19470TIP3    H279902   3.207   3.068  31.959  0.9240 -0.1100  1.5033
19471TIP3   OH279903   3.009   3.619   9.550  0.4017  0.0530 -0.1638
19471TIP3    H179904   2.948   3.550   9.576 -0.2878  0.8201  0.2877
19471TIP3    H279905   3.022   3.605   9.456 -0.8404  0.1560 -0.3731
19472TIP3   OH279906   2.114   2.525  11.884 -0.3660 -0.0825  0.2681
19472TIP3    H179907   2.205   2.550  11.901 -1.1008  1.7339  2.0539
19472TIP3    H279908   2.098   2.553  11.794  1.4029 -2.4970 -0.9167
19473TIP3   OH279909   1.969   3.805  42.775  0.1743  0.4331  0.3918
19473TIP3    H179910   1.955   3.759  42.858 -1.1365 -0.0150 -0.0610
19473TIP3    H279911   2.029   3.749  42.726  0.8082  0.6093  0.9378
19474TIP3   OH279912   3.647   3.677   4.010  0.1046  0.1444 -0.2633
19474TIP3    H179913   3.567   3.625   3.995  0.5125 -0.5224 -0.1489
19474TIP3    H279914   3.617   3.752   4.062 -0.4111 -0.2171 -0.0265
19475TIP3   OH279915   2.879   0.585  15.073  0.5211  0.5917  0.0863
19475TIP3    H179916   2.904   0.616  14.986 -1.2450 -0.6167 -0.8994
19475TIP3    H279917   2.786   0.607  15.081  0.7192  0.9420  1.8042
19476TIP3   OH279918   1.544   1.997   6.199  0.3913 -0.0426 -0.2210
19476TIP3    H179919   1.458   1.954   6.205  0.2466 -0.0762 -2.0642
19476TIP3    H279920   1.523   2.089   6.186  0.6355  0.0090 -0.2417
19477TIP3   OH279921   4.023   4.084  44.901  0.2729  0.7494  0.3522
19477TIP3    H179922   3.939   4.071  44.945 -0.3096  0.4814 -0.7955
19477TIP3    H279923   4.079   4.125  44.967 -0.5229  0.2506  1.3721
19478TIP3   OH279924   3.112   3.646   2.560  0.0794 -0.0907 -0.5364
19478TIP3    H179925   3.198   3.642   2.602 -0.0071 -0.9655 -0.4235
19478TIP3    H279926   3.126   3.614   2.471 -0.0420  0.2217 -0.6699
19479TIP3   OH279927   1.396   0.993  12.022  0.3072 -0.2523 -0.6814
19479TIP3    H179928   1.317   1.043  12.045  1.5265  1.1589  0.7552
19479TIP3    H279929   1.415   0.942  12.101  0.6676 -0.8198 -1.1290
19480TIP3   OH279930   2.287   1.538  38.207 -0.2152  0.0770  0.2737
19480TIP3    H179931   2.247   1.460  38.167  0.3956  1.1705 -2.7313
19480TIP3    H279932   2.381   1.519  38.208 -0.1887  0.2203  0.9048
19481TIP3   OH279933   3.986   1.391   2.237 -0.8983  0.1022 -0.0905
19481TIP3    H179934   4.076   1.378   2.268  0.5602  2.2783 -2.9272
19481TIP3    H279935   3.942   1.434   2.309  1.0116  0.9617  0.6353
19482TIP3   OH279936   1.965   1.181  35.759 -0.9775  0.4568  0.0813
19482TIP3    H179937   1.966   1.257  35.817 -0.1774  2.8388 -2.7981
19482TIP3    H279938   2.038   1.197  35.698  0.4101 -3.5840  0.3904
19483TIP3   OH279939   2.004   2.785  16.245  0.1708 -0.7378 -0.2498
19483TIP3    H179940   2.080   2.741  16.209  0.3439 -0.3961 -0.3090
19483TIP3    H279941   1.957   2.819  16.169  0.1608 -0.6238 -0.1936
19484TIP3   OH279942   2.720   0.061  42.610  0.0305 -0.0479 -0.0605
19484TIP3    H179943   2.761  -0.025  42.624 -0.0106 -0.0219  0.2276
19484TIP3    H279944   2.723   0.074  42.515 -0.9149 -0.8387 -0.2203
19485TIP3   OH279945   3.529   2.095  33.286 -0.1474  0.1423 -0.5411
19485TIP3    H179946   3.480   2.126  33.363 -1.4614  0.0618 -1.3190
19485TIP3    H279947   3.472   2.114  33.212  0.7122 -0.6111 -1.4242
19486TIP3   OH279948   0.415   1.681  43.810  0.3067 -0.0031 -0.5750
19486TIP3    H179949   0.417   1.594  43.771 -1.4354 -0.0874 -0.5719
19486TIP3    H279950   0.325   1.690  43.843  0.7777  1.3623  0.4115
19487TIP3   OH279951   0.791   1.739  36.004 -0.0180 -0.1909 -0.4281
19487TIP3    H179952   0.866   1.712  35.952 -0.4752 -0.8422 -0.7688
19487TIP3    H279953   0.725   1.671  35.989 -1.2463  1.1388 -1.3968
19488TIP3   OH279954   0.728   0.623  46.859 -0.3166 -0.3562  0.0517
19488TIP3    H179955   0.759   0.553  46.916 -0.3452 -0.8575 -0.5466
19488TIP3    H279956   0.715   0.698  46.918  0.7087 -0.5424  0.5259
19489TIP3   OH279957   0.299   3.040   3.496 -0.2966  0.0431  0.5088
19489TIP3    H179958   0.376   3.071   3.543  1.3280 -2.0439 -0.6445
19489TIP3    H279959   0.256   2.981   3.557  0.5876 -0.9480  0.1950
19490TIP3   OH279960   0.728   1.292  11.170  0.3806 -0.1278  0.1122
19490TIP3    H179961   0.780   1.343  11.232  0.0999 -0.2721  0.4704
19490TIP3    H279962   0.766   1.203  11.174 -0.3151 -0.4013  0.8798
19491TIP3   OH279963   2.669   2.382  43.823 -0.1773  0.3602  0.2332
19491TIP3    H179964   2.602   2.313  43.819  1.8424 -1.6556 -2.4149
19491TIP3    H279965   2.665   2.425  43.738  2.2213 -0.2309 -0.2503
19492TIP3   OH279966   1.995   4.071  35.910 -0.1326 -0.2561 -0.5486
19492TIP3    H179967   1.954   4.062  35.996  0.6214 -1.1351 -0.2694
19492TIP3    H279968   2.089   4.060  35.926  0.1781  1.1164 -1.2639
19493TIP3   OH279969   3.780   1.941  13.939  0.3575 -0.5567 -0.1801
19493TIP3    H179970   3.693   1.902  13.941  0.1417 -0.0578  0.6742
19493TIP3    H279971   3.837   1.871  13.905 -0.5162 -0.5547 -1.7332
19494TIP3   OH279972   1.732   1.453  37.896  0.4021 -0.6060 -0.2020
19494TIP3    H179973   1.731   1.414  37.983 -1.3080  0.6540  0.3895
19494TIP3    H279974   1.766   1.541  37.909  0.3087 -0.4729 -0.8302
19495TIP3   OH279975   2.292   1.967   6.324 -0.2337 -0.5994 -0.3713
19495TIP3    H179976   2.289   2.001   6.414 -1.2626  0.1499 -0.6639
19495TIP3    H279977   2.376   1.999   6.290 -0.5850  0.5781 -0.2033
19496TIP3   OH279978   2.193   3.073  26.947 -0.1824 -0.6934 -0.1143
19496TIP3    H179979   2.233   3.041  26.866 -0.4016 -0.7737 -0.1891
19496TIP3    H279980   2.102   3.088  26.925 -0.2711 -0.8373  0.1512
19497TIP3   OH279981   2.859   3.618   3.882 -0.4710  0.3350 -0.9338
19497TIP3    H179982   2.779   3.634   3.933  0.3625  0.4170  0.4076
19497TIP3    H279983   2.873   3.524   3.889  0.8562  0.6168  0.9534
19498TIP3   OH279984   3.728   3.607  41.197 -0.2687 -0.3142 -0.1011
19498TIP3    H179985   3.764   3.580  41.113 -0.9601 -0.1935 -0.4448
19498TIP3    H279986   3.734   3.528  41.252  0.4580 -0.3088 -0.1622
19499TIP3   OH279987   0.083   3.206  33.128 -0.2597  0.2219 -0.8498
19499TIP3    H179988  -0.007   3.226  33.104 -1.4456 -2.6163  0.6925
19499TIP3    H279989   0.087   3.110  33.126  1.9374  0.1453  1.6452
19500TIP3   OH279990   1.098   2.861  45.697 -0.0589  0.1771  0.0682
19500TIP3    H179991   1.066   2.847  45.608  1.1887  1.0871 -0.5615
19500TIP3    H279992   1.123   2.953  45.699 -1.9350  0.7234  2.0086
19501TIP3   OH279993   2.779   0.010   7.372 -0.3525 -0.5061  0.1506
19501TIP3    H179994   2.834  -0.031   7.439  1.9834  1.6805 -0.2778
19501TIP3    H279995   2.723   0.070   7.420  0.8837  0.6023  0.2605
19502TIP3   OH279996   1.707   0.723  31.635  0.0242 -0.5808 -0.3982
19502TIP3    H179997   1.720   0.714  31.541  0.1301  0.1796 -0.4624
19502TIP3    H279998   1.648   0.652  31.658  0.2516 -0.9682 -0.9830
19503TIP3   OH279999   2.746   1.479  40.711 -0.2082 -0.0299 -0.1298
19503TIP3    H180000   2.719   1.503  40.800  0.8098  1.1841 -0.1262
19503TIP3    H280001   2.825   1.428  40.723 -1.4146 -2.0353 -0.2438
19504TIP3   OH280002   3.358   2.451  15.144 -0.0618  0.1082 -0.1475
19504TIP3    H180003   3.297   2.433  15.072 -1.5703  0.1601  1.0681
19504TIP3    H280004   3.352   2.374  15.200 -0.4150  0.8904  0.9246
19505TIP3   OH280005   3.758   1.275  45.160  0.2738  0.3098  0.2182
19505TIP3    H180006   3.829   1.273  45.096  1.1604 -1.5686  1.1757
19505TIP3    H280007   3.803   1.270  45.245 -0.8917  2.2150  1.0068
19506TIP3   OH280008   0.098   1.176  10.793  0.6018  0.6005 -0.3396
19506TIP3    H180009   0.121   1.265  10.820 -1.4701  0.7803  1.0624
19506TIP3    H280010   0.125   1.170  10.702  2.0223  2.1953 -0.0598
19507TIP3   OH280011   0.678   3.526  27.746 -0.3561  0.9621 -0.0907
19507TIP3    H180012   0.587   3.534  27.719 -0.1615  0.5196 -0.9324
19507TIP3    H280013   0.727   3.519  27.663  0.1894 -1.3866  0.3581
19508TIP3   OH280014   3.002   2.403  31.793 -0.0237  0.0995 -0.3440
19508TIP3    H180015   3.029   2.322  31.837  1.6120  1.3653  1.1021
19508TIP3    H280016   3.059   2.408  31.716  0.7023  0.4390  0.2021
19509TIP3   OH280017   2.030   3.338  15.219  0.1822 -0.1367 -0.2433
19509TIP3    H180018   2.103   3.358  15.161 -0.1885 -0.1176 -0.7144
19509TIP3    H280019   1.974   3.279  15.167  0.2947 -0.8474  0.4182
19510TIP3   OH280020   3.698   0.074  34.048 -0.3776 -0.5023  0.3890
19510TIP3    H180021   3.698   0.058  34.142  1.2375 -0.4392  0.4325
19510TIP3    H280022   3.758   0.008  34.013 -0.9896 -0.5486 -0.5953
19511TIP3   OH280023   2.043   1.062  40.888 -0.2943  0.1037 -0.3155
19511TIP3    H180024   2.018   0.987  40.834  2.6238 -0.9652 -0.3572
19511TIP3    H280025   1.962   1.111  40.900 -1.9921 -2.1844 -1.6366
19512TIP3   OH280026   1.810   2.053  37.877 -0.5782 -0.0942  0.1824
19512TIP3    H180027   1.894   2.029  37.918  1.3669  1.9392 -2.2947
19512TIP3    H280028   1.784   2.133  37.923 -1.4782 -0.9767  1.2672
19513TIP3   OH280029   1.935   0.054  31.706  0.5107 -0.0445  0.6794
19513TIP3    H180030   1.843   0.072  31.724  0.1592 -1.0281 -0.0306
19513TIP3    H280031   1.948   0.082  31.615  0.5684 -1.0586  0.3619
19514TIP3   OH280032   2.818   3.276  12.214 -0.0500 -0.1457  0.0840
19514TIP3    H180033   2.743   3.249  12.162  0.4691 -0.0110 -0.7524
19514TIP3    H280034   2.890   3.282  12.151  0.8004 -0.8254  0.9585
19515TIP3   OH280035   3.759   0.941   6.949 -0.5011  0.7317  0.1774
19515TIP3    H180036   3.785   0.959   6.858 -0.2842 -0.6362 -0.0579
19515TIP3    H280037   3.794   0.854   6.967 -0.3021  1.0884  1.6799
19516TIP3   OH280038   2.367   0.553  10.475 -0.1241 -0.3335  0.0421
19516TIP3    H180039   2.286   0.569  10.426 -0.8804 -0.1580  1.3123
19516TIP3    H280040   2.340   0.552  10.567  1.2923 -0.4640  0.4811
19517TIP3   OH280041   0.524   2.473  44.965  0.1322 -0.5950 -0.4068
19517TIP3    H180042   0.592   2.492  45.030 -0.0671  0.3069 -0.4431
19517TIP3    H280043   0.571   2.467  44.882 -0.0655  2.9955 -0.9413
19518TIP3   OH280044   2.302   0.068  12.118 -0.3992 -0.4694  0.1691
19518TIP3    H180045   2.219   0.038  12.155 -0.2489 -1.5554 -0.3497
19518TIP3    H280046   2.356   0.091  12.194 -1.2111  0.3907  0.5041
19519TIP3   OH280047   1.116   2.907  44.950 -0.3514  0.1009 -0.2767
19519TIP3    H180048   1.135   2.889  44.858 -0.2133  0.0345 -0.2350
19519TIP3    H280049   1.050   2.977  44.948  0.4504  0.8768 -0.4185
19520TIP3   OH280050   1.866   2.014  34.779  0.2020 -0.4151 -0.1667
19520TIP3    H180051   1.777   2.050  34.773  0.3229  0.0128  0.5547
19520TIP3    H280052   1.855   1.921  34.760 -0.1972 -0.1196 -1.5005
19521TIP3   OH280053   2.246   1.386  18.064 -0.2011 -0.6797 -0.1817
19521TIP3    H180054   2.312   1.329  18.024  1.3666  0.7608  0.2289
19521TIP3    H280055   2.183   1.403  17.993  0.2452 -1.5206 -0.7954
19522TIP3   OH280056   3.539   1.286  43.570 -0.3406  0.0291 -0.0747
19522TIP3    H180057   3.476   1.358  43.579  0.2112  0.4624  0.3760
19522TIP3    H280058   3.528   1.235  43.651 -1.3480 -0.9211 -0.7625
19523TIP3   OH280059   3.945   1.499   2.844 -0.0708  0.2407  0.2440
19523TIP3    H180060   4.027   1.523   2.886 -0.2830 -1.8828  2.0460
19523TIP3    H280061   3.970   1.477   2.754  1.1012  0.8403  0.3980
19524TIP3   OH280062   3.089   2.746   4.940 -0.2231  0.1421  0.1429
19524TIP3    H180063   2.994   2.745   4.934 -0.2413  1.5092  0.0153
19524TIP3    H280064   3.108   2.727   5.032 -0.7609  2.8964  0.9069
19525TIP3   OH280065   3.761   2.222  16.474 -0.1667  0.3179  0.0947
19525TIP3    H180066   3.691   2.273  16.514  0.5209  1.0788  0.3455
19525TIP3    H280067   3.755   2.242  16.380 -0.8166 -0.2838  0.0042
19526TIP3   OH280068   1.304   2.049  39.455 -0.3614  0.5613  1.1870
19526TIP3    H180069   1.378   2.106  39.434 -1.0898  0.7753 -1.0416
19526TIP3    H280070   1.256   2.098  39.522  0.1417  1.6468  0.7931
19527TIP3   OH280071   0.020   1.096  32.681  0.0522  0.2971 -0.4465
19527TIP3    H180072  -0.009   1.071  32.769 -1.2563 -0.5846 -1.0985
19527TIP3    H280073   0.003   1.190  32.675 -0.8487  0.1602 -0.1142
19528TIP3   OH280074   2.025   2.029  43.266  0.0070 -0.7479 -0.1009
19528TIP3    H180075   2.026   1.956  43.204 -0.3806 -3.1683  2.5439
19528TIP3    H280076   1.935   2.061  43.266 -0.0068 -0.7808 -0.6809
19529TIP3   OH280077   3.100   3.448   0.380 -0.3570 -0.2710 -0.2090
19529TIP3    H180078   3.160   3.493   0.320  0.7160 -1.1778  0.1472
19529TIP3    H280079   3.155   3.421   0.453 -1.0518 -1.7463 -0.1950
19530TIP3   OH280080   0.162   1.265  32.981 -0.2349 -0.5494  0.1620
19530TIP3    H180081   0.175   1.173  33.001  0.2791 -0.4876  0.1310
19530TIP3    H280082   0.166   1.309  33.066  0.6512 -0.4322  0.0673
19531TIP3   OH280083   1.713   1.309  40.160 -0.2854 -0.4361  0.1610
19531TIP3    H180084   1.631   1.349  40.130  1.0382  1.6749 -0.8909
19531TIP3    H280085   1.695   1.282  40.250 -2.5256 -1.3067 -0.4948
19532TIP3   OH280086   1.455   1.142   5.940 -0.2482  0.3164 -0.9679
19532TIP3    H180087   1.442   1.170   5.850 -1.7924 -0.2053 -0.9534
19532TIP3    H280088   1.366   1.138   5.976 -0.1781 -3.7470 -0.7555
19533TIP3   OH280089   1.939   2.923  44.298 -0.6656 -0.4061 -0.1077
19533TIP3    H180090   1.922   3.014  44.323  1.6197  0.8716 -2.5927
19533TIP3    H280091   1.903   2.916  44.210 -0.2939 -1.7204 -0.1642
19534TIP3   OH280092   3.180   3.648   8.949  0.2642 -0.0002 -0.1349
19534TIP3    H180093   3.113   3.649   8.881  0.8038  2.1177 -0.7186
19534TIP3    H280094   3.250   3.594   8.914 -0.8320 -1.7244  0.2199
19535TIP3   OH280095   0.582   1.118   6.022 -0.2452 -0.2876 -0.1271
19535TIP3    H180096   0.601   1.078   6.107  0.7391 -0.5564 -0.4619
19535TIP3    H280097   0.539   1.048   5.973 -0.2484 -0.3293 -0.0655
19536TIP3   OH280098   0.301   1.948   5.092  0.2978 -0.2059  0.4728
19536TIP3    H180099   0.308   2.001   5.172  0.3115 -1.7693  1.5557
19536TIP3    H280100   0.371   1.981   5.036 -0.0524  1.2863  0.8618
19537TIP3   OH280101   1.344   1.342  36.055  0.2373 -0.0515 -0.4358
19537TIP3    H180102   1.387   1.267  36.096  1.1442 -0.6415 -2.3843
19537TIP3    H280103   1.283   1.305  35.992 -0.4913  0.8394 -0.2827
19538TIP3   OH280104   2.621   3.012  14.787  0.2031 -0.6032 -0.0051
19538TIP3    H180105   2.603   2.937  14.844  0.1281  0.8260  1.9477
19538TIP3    H280106   2.717   3.012  14.777  0.0843 -2.1381 -1.8076
19539TIP3   OH280107   2.375   1.454   1.188  0.3943  0.3167  0.4672
19539TIP3    H180108   2.412   1.510   1.120  1.3559 -1.0558 -0.2029
19539TIP3    H280109   2.300   1.411   1.146 -1.0744  1.9217  1.3407
19540TIP3   OH280110   0.701   3.344   6.717  0.4749 -0.2310 -0.2135
19540TIP3    H180111   0.637   3.340   6.788 -0.3871 -0.6933 -0.9836
19540TIP3    H280112   0.698   3.435   6.687  0.7618 -0.0619  0.2733
19541TIP3   OH280113   1.065   1.714  39.698  0.0021 -0.3215  0.2512
19541TIP3    H180114   1.108   1.781  39.644 -3.1280  1.1925 -0.6345
19541TIP3    H280115   1.071   1.748  39.788 -1.2619  1.0935 -0.1524
19542TIP3   OH280116   3.150   2.664  37.138 -0.4722 -0.5367 -0.1536
19542TIP3    H180117   3.093   2.631  37.068 -0.7435  1.3856 -0.8781
19542TIP3    H280118   3.232   2.686  37.093  0.0760 -1.1676  0.5064
19543TIP3   OH280119   3.449   3.305   8.167 -0.6307  0.1695 -0.3955
19543TIP3    H180120   3.491   3.222   8.145 -0.1794 -0.3858  2.2710
19543TIP3    H280121   3.400   3.287   8.247 -0.5172  2.4669  0.2609
19544TIP3   OH280122   2.598   0.323  24.754  0.5699  0.4396  0.5525
19544TIP3    H180123   2.635   0.240  24.783 -1.8976 -1.5234 -1.5266
19544TIP3    H280124   2.507   0.320  24.783 -0.0980  1.4857 -1.2727
19545TIP3   OH280125   1.407   2.750  32.762  0.0338  0.1571 -0.1552
19545TIP3    H180126   1.359   2.792  32.691  0.4902  1.9646  0.5529
19545TIP3    H280127   1.348   2.754  32.837 -0.1935 -1.1470 -0.2521
19546TIP3   OH280128   1.111   2.324  45.133  0.1588 -0.1652 -0.4410
19546TIP3    H180129   1.112   2.245  45.186  0.2036  0.1753  0.0756
19546TIP3    H280130   1.108   2.293  45.042  1.3378 -0.7596 -0.2853
19547TIP3   OH280131   0.787   2.002  33.996 -0.4796 -0.2061  1.0208
19547TIP3    H180132   0.756   1.953  33.921 -2.3317  0.8132  1.0662
19547TIP3    H280133   0.727   2.076  34.003  0.2495  0.2645  2.9063
19548TIP3   OH280134   0.768   2.183  18.673 -0.2395  0.0518 -0.1623
19548TIP3    H180135   0.707   2.114  18.650 -2.2379  1.0949  1.6551
19548TIP3    H280136   0.741   2.258  18.620 -0.8849  0.6625  1.0066
19549TIP3   OH280137   1.218   0.963  34.656 -0.2459  0.0971  0.0751
19549TIP3    H180138   1.209   0.938  34.748 -0.7403 -2.6978 -0.6324
19549TIP3    H280139   1.270   1.043  34.658  1.2156 -0.7772  2.7283
19550TIP3   OH280140   3.559   0.898  40.321 -0.4701 -0.2745 -0.0868
19550TIP3    H180141   3.563   0.931  40.411 -3.2521  0.1928 -0.0348
19550TIP3    H280142   3.532   0.974  40.269  1.0144 -0.5615 -1.3551
19551TIP3   OH280143   2.665   1.083   5.612 -0.7370 -0.3185  0.1347
19551TIP3    H180144   2.589   1.028   5.589  0.2003 -1.1447 -1.1103
19551TIP3    H280145   2.699   1.113   5.528  0.4915 -0.2042  0.6548
19552TIP3   OH280146   0.089   3.155  42.531  0.6571 -0.1185  0.5372
19552TIP3    H180147  -0.005   3.175  42.538  0.4655 -1.0473  0.7491
19552TIP3    H280148   0.096   3.103  42.451  1.2556  1.3446 -0.4159
19553TIP3   OH280149   0.817   1.239   7.855 -0.1290 -0.2211 -0.0477
19553TIP3    H180150   0.815   1.182   7.778 -2.1215  1.0862 -1.0540
19553TIP3    H280151   0.862   1.318   7.824 -2.3893  0.9742 -0.4425
19554TIP3   OH280152   0.054   1.225  44.124  0.3343 -0.1425 -0.2194
19554TIP3    H180153   0.005   1.286  44.068  0.1521 -0.8977 -0.9059
19554TIP3    H280154   0.061   1.270  44.208 -2.0361 -0.1956  0.0927
19555TIP3   OH280155   1.021   2.149  32.643  0.0615  0.1093  0.1204
19555TIP3    H180156   0.925   2.151  32.644 -0.1741 -3.0468  2.6574
19555TIP3    H280157   1.043   2.098  32.565 -0.4506 -0.5029  0.3640
19556TIP3   OH280158   2.733   1.669  36.364  0.1864 -0.0987  0.1304
19556TIP3    H180159   2.762   1.613  36.292  0.3394  0.7990 -0.5140
19556TIP3    H280160   2.814   1.699  36.405  0.1112  0.0264  0.1895
19557TIP3   OH280161   1.799   3.376  25.420  0.2128 -0.1183 -0.4157
19557TIP3    H180162   1.759   3.360  25.334 -0.2775 -0.7250 -0.0774
19557TIP3    H280163   1.768   3.464  25.444  1.3091  0.5637 -1.3756
19558TIP3   OH280164   0.356   0.406   5.959 -0.1504  0.0970  0.1817
19558TIP3    H180165   0.408   0.349   6.016 -0.3147 -1.0183 -0.7227
19558TIP3    H280166   0.421   0.445   5.899 -0.0264  0.9516  0.8615
19559TIP3   OH280167   2.621   1.231   2.596 -0.7673 -0.8738  0.6874
19559TIP3    H180168   2.632   1.268   2.684 -3.4234 -0.8046  1.0861
19559TIP3    H280169   2.640   1.304   2.537  1.7416 -1.1079  1.1117
19560TIP3   OH280170   0.790   1.636   5.587 -0.7073  0.0118  0.3467
19560TIP3    H180171   0.799   1.562   5.647 -0.9878 -0.0101  0.3657
19560TIP3    H280172   0.714   1.614   5.533 -0.3087 -0.0827 -0.1879
19561TIP3   OH280173   3.421   0.723  44.693 -0.4353 -0.2392  0.0941
19561TIP3    H180174   3.447   0.631  44.700 -0.1485 -0.1139  0.7817
19561TIP3    H280175   3.362   0.736  44.767  0.6298  0.4893  0.8329
19562TIP3   OH280176   1.076   2.128   1.556  0.2011  0.1324 -0.2367
19562TIP3    H180177   0.981   2.118   1.563  0.1058  1.1669  0.2676
19562TIP3    H280178   1.089   2.223   1.554  1.3425  0.0565  1.7433
19563TIP3   OH280179   3.909   1.494  15.247  0.1870 -0.5663 -0.3815
19563TIP3    H180180   3.947   1.478  15.161  0.1652  0.6320 -0.6331
19563TIP3    H280181   3.976   1.466  15.310 -0.1187 -2.2270 -0.7566
19564TIP3   OH280182   2.676   1.427  19.234  0.4925  0.4668 -0.2322
19564TIP3    H180183   2.682   1.520  19.212 -0.0876  0.8339  1.0744
19564TIP3    H280184   2.586   1.415  19.263  0.6905 -0.4089  0.0378
19565TIP3   OH280185   0.766   3.199  11.049  0.0225  0.3208  0.1543
19565TIP3    H180186   0.744   3.192  10.957 -0.6157 -1.1416  0.3857
19565TIP3    H280187   0.856   3.231  11.050  0.6843 -1.3671 -1.0530
19566TIP3   OH280188   2.626   3.310   9.933  0.5071 -0.6172  0.5567
19566TIP3    H180189   2.534   3.335   9.926  1.0623  1.1567 -1.3687
19566TIP3    H280190   2.642   3.256   9.855  1.6647  1.2639 -0.5942
19567TIP3   OH280191   0.507   0.279  29.160  0.1736  0.1851  0.2647
19567TIP3    H180192   0.522   0.196  29.115  2.5123  0.8246 -0.2626
19567TIP3    H280193   0.579   0.286  29.223  0.8511  2.4041 -0.6602
19568TIP3   OH280194   0.132   0.484  37.250 -0.4009 -0.0563 -0.6807
19568TIP3    H180195   0.088   0.542  37.188  0.0466  1.3701  0.2818
19568TIP3    H280196   0.211   0.531  37.274 -0.8622 -0.2733  1.4356
19569TIP3   OH280197   1.684   0.482   8.787 -0.3098  0.2793 -0.0975
19569TIP3    H180198   1.734   0.562   8.772 -1.0826  1.0422  1.2116
19569TIP3    H280199   1.626   0.475   8.712  2.0357 -0.9255 -1.9560
19570TIP3   OH280200   3.529   1.401  15.278 -0.0322 -0.3175  0.4513
19570TIP3    H180201   3.481   1.475  15.314 -0.6844 -0.3658 -0.2893
19570TIP3    H280202   3.552   1.347  15.354 -1.8153 -0.6935  0.7737
19571TIP3   OH280203   0.650   1.412   1.406 -0.0778  0.4008 -0.8742
19571TIP3    H180204   0.721   1.353   1.380 -0.4195  0.0763 -1.0932
19571TIP3    H280205   0.571   1.356   1.405 -0.2470  0.6003 -0.0377
19572TIP3   OH280206   0.263   1.975  12.440 -0.6862  0.2683 -0.0208
19572TIP3    H180207   0.285   2.063  12.472 -0.1792  0.1082  0.0791
19572TIP3    H280208   0.238   1.927  12.519 -1.4626  0.4624 -0.1400
19573TIP3   OH280209   0.772   1.358  31.215  0.3721  0.3635  0.7669
19573TIP3    H180210   0.749   1.269  31.243  0.0529  0.5528  1.1100
19573TIP3    H280211   0.703   1.414  31.251  1.1410  0.8850  1.4876
19574TIP3   OH280212   3.066   1.795  41.771  0.0426  0.1123 -0.1068
19574TIP3    H180213   3.044   1.728  41.707 -0.0969 -0.4447  0.5114
19574TIP3    H280214   3.127   1.853  41.725  1.1835 -1.1553 -0.2689
19575TIP3   OH280215   1.959   2.501  42.687 -0.3518 -0.4145  0.1129
19575TIP3    H180216   2.027   2.537  42.744 -1.9635  0.0185  1.8960
19575TIP3    H280217   1.963   2.554  42.608  1.9632 -1.0252 -0.2389
19576TIP3   OH280218   3.167   3.462   2.872 -0.1668 -0.1713 -0.2866
19576TIP3    H180219   3.138   3.468   2.964 -0.5035  1.0761 -0.4619
19576TIP3    H280220   3.234   3.530   2.863 -1.8980  1.4777 -1.5812
19577TIP3   OH280221   2.979   1.860  47.506  0.0252 -0.0165  0.1260
19577TIP3    H180222   3.063   1.868  47.551  0.3312 -0.4632 -0.3457
19577TIP3    H280223   2.973   1.938  47.452  0.4964 -0.3499 -0.4166
19578TIP3   OH280224   1.117   1.382   6.833 -0.4266 -0.5749  0.3023
19578TIP3    H180225   1.064   1.420   6.763  0.1900 -1.6135 -0.7658
19578TIP3    H280226   1.169   1.455   6.867  0.1139 -0.2751 -1.1162
19579TIP3   OH280227   1.064   0.208  31.713  0.3033 -0.1865 -0.1205
19579TIP3    H180228   1.038   0.201  31.621 -0.7164  0.2096  0.1318
19579TIP3    H280229   1.089   0.119  31.737  2.2957 -0.0007 -1.2578
19580TIP3   OH280230   2.377   0.278  37.797 -0.2239  0.1279 -0.3206
19580TIP3    H180231   2.332   0.201  37.829 -1.5097  0.5546 -1.0585
19580TIP3    H280232   2.315   0.350  37.809  0.9912  1.0987  0.4783
19581TIP3   OH280233   3.087   1.057   3.777  0.4617 -0.3636 -1.0098
19581TIP3    H180234   3.145   1.024   3.846  0.9610  1.3872 -0.5497
19581TIP3    H280235   3.129   1.030   3.695  1.8601  0.7149 -0.6764
19582TIP3   OH280236   2.909   1.405   8.176 -0.7719  0.2927 -0.2893
19582TIP3    H180237   2.932   1.468   8.244 -0.4232  0.9817 -1.0275
19582TIP3    H280238   2.966   1.428   8.103  0.3242 -1.7171 -0.1316
19583TIP3   OH280239   0.033   0.797  41.360 -0.6609 -0.7870  0.1094
19583TIP3    H180240   0.059   0.720  41.310  0.3760 -0.6548  0.4219
19583TIP3    H280241   0.076   0.787  41.445 -1.9395 -0.7269  0.7844
19584TIP3   OH280242   3.377   4.067  14.623 -0.9406 -0.9475  0.9241
19584TIP3    H180243   3.357   3.984  14.580 -1.5276 -0.4644  0.2544
19584TIP3    H280244   3.411   4.041  14.709  0.6059 -1.9278  0.0608
19585TIP3   OH280245   0.547   1.803  44.860  0.3553 -0.4845 -0.1440
19585TIP3    H180246   0.476   1.837  44.914 -0.1619 -2.7211  0.6567
19585TIP3    H280247   0.605   1.879  44.847 -0.6598  0.6697  1.6436
19586TIP3   OH280248   2.352   3.074   3.763 -0.0992  0.1587  0.4001
19586TIP3    H180249   2.360   2.979   3.756  1.2923  0.3617 -1.4317
19586TIP3    H280250   2.365   3.092   3.856  2.6249 -1.2429  0.4097
19587TIP3   OH280251   0.583   0.959  41.251 -0.0351 -0.0646 -0.5313
19587TIP3    H180252   0.558   1.022  41.183  1.3116  0.7794 -0.2717
19587TIP3    H280253   0.501   0.938  41.295 -0.5731  1.2404 -0.8512
19588TIP3   OH280254   2.466   1.635  47.109  0.5728  0.3369  0.1460
19588TIP3    H180255   2.469   1.561  47.048 -1.5286  0.3858 -0.1092
19588TIP3    H280256   2.545   1.685  47.091  0.8596 -0.5907 -1.3334
19589TIP3   OH280257   2.943   0.865  33.413  0.1330 -0.4247  0.4542
19589TIP3    H180258   2.992   0.838  33.335  0.2912  0.8716  0.0846
19589TIP3    H280259   2.959   0.795  33.476  1.2277 -0.7613 -0.1631
19590TIP3   OH280260   2.869   2.873  44.614  0.1335 -0.6081  0.5184
19590TIP3    H180261   2.812   2.949  44.602  0.7940  0.0371  1.3957
19590TIP3    H280262   2.821   2.817  44.675 -0.5266 -1.1050 -0.4164
19591TIP3   OH280263   2.264   0.637  35.516  0.1255 -0.4757  0.2062
19591TIP3    H180264   2.185   0.662  35.562 -0.0068 -1.2205  0.3886
19591TIP3    H280265   2.305   0.721  35.492  0.1060 -0.0688  1.4978
19592TIP3   OH280266   0.279   0.808   9.696  0.5858 -0.7730  0.1748
19592TIP3    H180267   0.184   0.810   9.710  0.5871 -2.3071  0.6016
19592TIP3    H280268   0.313   0.880   9.749 -0.3492 -0.0324 -0.1967
19593TIP3   OH280269   1.947   3.288   3.319 -0.1747  0.3494 -0.1533
19593TIP3    H180270   1.891   3.246   3.385 -0.2953  2.2679  1.0367
19593TIP3    H280271   2.031   3.243   3.326 -0.9207 -1.1629 -0.4944
19594TIP3   OH280272   1.066   0.257   4.816 -0.2180 -0.0233  0.6271
19594TIP3    H180273   1.124   0.190   4.778  0.8047 -0.1734  2.3287
19594TIP3    H280274   1.045   0.223   4.903 -0.1271  1.5951  1.3123
19595TIP3   OH280275   3.190   0.725   6.758 -0.1452 -0.0029  0.7570
19595TIP3    H180276   3.197   0.813   6.720 -2.2783  0.3880  1.1307
19595TIP3    H280277   3.264   0.677   6.721 -0.3510  1.2362 -1.4509
19596TIP3   OH280278   2.138   3.784   5.494  0.0005 -0.3830  0.2913
19596TIP3    H180279   2.145   3.751   5.404 -1.3398  1.2885 -0.4749
19596TIP3    H280280   2.219   3.832   5.508 -0.1531  0.0841 -0.3654
19597TIP3   OH280281   0.550   3.772  13.858 -0.2264  0.3619 -0.6913
19597TIP3    H180282   0.528   3.859  13.825 -1.3318  0.8344  1.1403
19597TIP3    H280283   0.615   3.788  13.926 -1.4074 -0.0630  0.5843
19598TIP3   OH280284   2.890   2.308  46.615 -0.0998 -0.7978 -0.3724
19598TIP3    H180285   2.953   2.236  46.609 -1.0007 -1.5402 -1.2820
19598TIP3    H280286   2.853   2.315  46.528 -2.0546 -1.0994  0.3884
19599TIP3   OH280287   0.022   2.272  33.937  0.4224 -0.1493  0.1731
19599TIP3    H180288   0.085   2.205  33.910  1.3454  0.6984  0.1797
19599TIP3    H280289  -0.048   2.223  33.980 -0.1207 -1.3511 -1.9447
19600TIP3   OH280290   0.840   0.495  43.565 -0.4845  0.6165 -0.4710
19600TIP3    H180291   0.792   0.487  43.648 -2.6889 -0.6166 -1.7433
19600TIP3    H280292   0.824   0.585  43.537 -0.8124  0.6683 -0.1295
19601TIP3   OH280293   0.081   2.277  16.467 -0.6976 -0.4880  0.1622
19601TIP3    H180294   0.024   2.254  16.541  2.0788 -0.3042  2.5479
19601TIP3    H280295   0.053   2.365  16.442 -0.9423 -0.0440  1.8579
19602TIP3   OH280296   0.374   2.367  34.428  0.2534 -0.2438 -0.2505
19602TIP3    H180297   0.353   2.371  34.335 -1.6186 -2.7429 -0.0328
19602TIP3    H280298   0.313   2.428  34.469 -0.1027 -0.4173 -0.5115
19603TIP3   OH280299   4.060   1.706  46.117  0.6101  0.0630 -0.2514
19603TIP3    H180300   4.107   1.709  46.034 -1.8497 -0.7375 -1.7664
19603TIP3    H280301   4.103   1.637  46.167  0.7985 -0.9544 -1.7635
19604TIP3   OH280302   1.713   1.811   3.631  0.7818  0.0009  0.0896
19604TIP3    H180303   1.681   1.828   3.543  1.3351  0.2129 -0.0765
19604TIP3    H280304   1.761   1.729   3.624 -1.1642 -1.2626  0.7095
19605TIP3   OH280305   0.103   3.036   9.087  0.0468 -0.3280 -0.0705
19605TIP3    H180306   0.177   3.094   9.105 -0.8329  1.5059 -1.9574
19605TIP3    H280307   0.056   3.031   9.171  0.7879  0.7846  0.4392
19606TIP3   OH280308   2.529   2.520  37.654  0.4341 -0.3548  0.0113
19606TIP3    H180309   2.615   2.480  37.661  1.0349  0.4103 -2.0741
19606TIP3    H280310   2.537   2.603  37.701  0.1202 -1.2242  1.6877
19607TIP3   OH280311   3.261   1.246  32.240 -0.5768 -0.2919  0.1837
19607TIP3    H180312   3.216   1.169  32.206  0.4267 -0.7227 -0.2286
19607TIP3    H280313   3.197   1.289  32.296 -1.3823 -1.0454 -0.1344
19608TIP3   OH280314   0.074   2.231   7.202 -0.2645 -0.6079  0.7547
19608TIP3    H180315   0.010   2.189   7.259  0.2121 -0.8596  1.1185
19608TIP3    H280316   0.151   2.244   7.259  0.0208 -0.3680  0.3150
19609TIP3   OH280317   0.353   0.713  33.623 -0.0581  0.0311 -0.1940
19609TIP3    H180318   0.366   0.623  33.653 -1.4596 -0.6122 -1.3678
19609TIP3    H280319   0.284   0.747  33.680  0.2648  0.2571  0.0606
19610TIP3   OH280320   0.044   2.428  43.080 -0.2335  0.3755 -0.6454
19610TIP3    H180321   0.091   2.479  43.014 -0.0864  1.3788  0.2163
19610TIP3    H280322  -0.019   2.376  43.030  1.3242 -0.5223 -1.7680
19611TIP3   OH280323   0.558   3.815  41.676  0.1743 -0.6306  0.3172
19611TIP3    H180324   0.488   3.769  41.630  0.6194 -1.7154  0.7024
19611TIP3    H280325   0.515   3.892  41.713 -0.7416 -1.1051  0.2778
19612TIP3   OH280326   0.211   2.497   4.327  0.1362 -0.1050 -0.3664
19612TIP3    H180327   0.250   2.458   4.405  1.8414 -0.1995 -1.2129
19612TIP3    H280328   0.205   2.590   4.348  0.4480 -0.1495 -0.0612
19613TIP3   OH280329   1.096   3.140  30.638 -0.1047 -0.0930  0.1378
19613TIP3    H180330   1.085   3.175  30.549  0.6134  0.7469  0.3633
19613TIP3    H280331   1.081   3.216  30.695 -1.4107 -0.8085  0.7851
19614TIP3   OH280332   0.586   3.577   9.708  0.5502  0.2395 -0.0216
19614TIP3    H180333   0.635   3.497   9.686 -0.6277 -0.2569 -0.9699
19614TIP3    H280334   0.560   3.564   9.799  2.7812  0.8655  0.7670
19615TIP3   OH280335   1.358   2.444  12.860  0.5496  0.0599 -0.3501
19615TIP3    H180336   1.280   2.489  12.894  0.3848  1.2769 -2.1484
19615TIP3    H280337   1.398   2.403  12.936 -0.5909  1.3629  1.0098
19616TIP3   OH280338   2.214   3.079  11.503  0.7082  0.0154 -0.1044
19616TIP3    H180339   2.292   3.024  11.510 -0.0814 -1.0460  0.9145
19616TIP3    H280340   2.246   3.168  11.515  2.1784 -0.0395 -2.7970
19617TIP3   OH280341   1.480   3.644  14.439  0.1624 -0.4855  0.2301
19617TIP3    H180342   1.408   3.698  14.406  0.7518  0.2575  0.1380
19617TIP3    H280343   1.457   3.628  14.531  0.1556  0.2081  0.3501
19618TIP3   OH280344   2.030   3.893  27.280  0.4078  0.3378  0.1659
19618TIP3    H180345   2.029   3.987  27.263 -1.2476  0.5049  0.9787
19618TIP3    H280346   1.962   3.880  27.346 -0.1195 -1.5725 -0.6870
19619TIP3   OH280347   4.088   1.092  42.080  0.2270 -0.1130 -0.4065
19619TIP3    H180348   3.996   1.112  42.098 -0.1978 -1.9360 -0.4130
19619TIP3    H280349   4.125   1.071  42.165  0.8631  1.3130 -0.2941
19620TIP3   OH280350   1.728   3.630  12.029  0.2358 -0.4286  0.0166
19620TIP3    H180351   1.651   3.575  12.047 -0.0662  0.6646  2.5695
19620TIP3    H280352   1.752   3.609  11.939 -1.0381 -3.2603  0.2158
19621TIP3   OH280353   3.518   1.817  36.032  0.0824  0.3578  0.4187
19621TIP3    H180354   3.573   1.740  36.017  0.7605  0.5610  1.7226
19621TIP3    H280355   3.496   1.849  35.944  0.2075 -1.0229 -0.1350
19622TIP3   OH280356   4.103   0.836  31.236 -0.1793 -0.0442 -0.3998
19622TIP3    H180357   4.081   0.879  31.318 -0.4737 -1.4252  0.2719
19622TIP3    H280358   4.042   0.874  31.172  0.2655  1.2662 -0.0653
19623TIP3   OH280359   0.084   3.820  28.163  0.5803 -0.0777 -0.5815
19623TIP3    H180360   0.001   3.866  28.149  0.2928 -0.1233  0.8493
19623TIP3    H280361   0.062   3.727  28.157  0.4310 -0.1002  0.2526
19624TIP3   OH280362   3.792   3.065  45.426 -0.2075  0.2864  0.1119
19624TIP3    H180363   3.739   3.144  45.431 -0.1088  0.3345  0.4055
19624TIP3    H280364   3.785   3.025  45.513 -0.1121  0.0674  0.0203
19625TIP3   OH280365   3.274   3.490  33.142 -0.1599 -0.1158  0.1844
19625TIP3    H180366   3.275   3.395  33.151 -1.5176 -0.3077 -1.2567
19625TIP3    H280367   3.242   3.505  33.053  0.6830  1.6908  0.1569
19626TIP3   OH280368   2.908   1.979   3.443  0.3520  0.5830  0.6958
19626TIP3    H180369   2.930   1.906   3.384 -0.2622  0.0204  1.1524
19626TIP3    H280370   2.864   2.042   3.387  0.0196  0.1725  0.4834
19627TIP3   OH280371   2.806   0.388   0.774  0.0427  0.1882 -0.2010
19627TIP3    H180372   2.761   0.310   0.805  0.2683  0.8585  2.0182
19627TIP3    H280373   2.867   0.356   0.708 -0.2148 -1.4352  0.3100
19628TIP3   OH280374   2.124   0.626  40.588 -0.2586  0.5939  0.3072
19628TIP3    H180375   2.045   0.678  40.607 -0.5795  0.4460 -0.5567
19628TIP3    H280376   2.090   0.546  40.547  0.3763  0.9307 -0.9322
19629TIP3   OH280377   3.085   0.570   0.001  0.2420 -0.1263  0.2625
19629TIP3    H180378   3.034   0.596  -0.076  0.7003  1.6267  0.5116
19629TIP3    H280379   3.154   0.635   0.007  1.4979 -1.4654  0.9561
19630TIP3   OH280380   0.747   1.053  20.386  0.2854  0.1325 -0.2903
19630TIP3    H180381   0.696   1.123  20.427  0.2729 -0.2959  0.4346
19630TIP3    H280382   0.818   1.035  20.447  1.4012  0.8115 -1.3614
19631TIP3   OH280383   2.522   0.935  40.853 -0.6905 -0.3696 -0.0835
19631TIP3    H180384   2.595   0.997  40.845 -0.9029  0.3142  2.4060
19631TIP3    H280385   2.444   0.988  40.842 -0.8554 -0.5519  0.2143
19632TIP3   OH280386   1.442   0.309   3.358  0.4426  0.2543 -0.5119
19632TIP3    H180387   1.504   0.240   3.380  0.2214  0.2955  0.2767
19632TIP3    H280388   1.396   0.327   3.440  1.9651  2.8562 -0.1087
19633TIP3   OH280389   1.001   3.815  13.949  0.3309  0.3904  0.4562
19633TIP3    H180390   1.088   3.828  13.911  0.2471 -0.3147  0.0098
19633TIP3    H280391   1.018   3.767  14.031  0.2107 -2.3150 -0.9793
19634TIP3   OH280392   3.379   2.615   2.654  0.2183  0.7138  0.4951
19634TIP3    H180393   3.466   2.610   2.616  0.5037  1.3923  1.0410
19634TIP3    H280394   3.359   2.709   2.655 -0.0757  0.6453  1.3506
19635TIP3   OH280395   2.611   2.253  22.455  0.1190 -0.0949 -0.1494
19635TIP3    H180396   2.631   2.250  22.549 -1.7898 -0.1942  0.2878
19635TIP3    H280397   2.520   2.226  22.449 -0.1690  1.0996 -1.9099
19636TIP3   OH280398   3.719   3.921   0.541 -0.8159 -0.1134  0.2318
19636TIP3    H180399   3.673   3.983   0.484  1.0153 -0.5710 -1.8784
19636TIP3    H280400   3.653   3.856   0.564 -1.4341 -0.4649 -2.2689
19637TIP3   OH280401   2.143   2.121  46.227 -0.2497 -0.1157  0.3930
19637TIP3    H180402   2.158   2.152  46.316 -0.0779  1.5945 -0.1913
19637TIP3    H280403   2.113   2.198  46.179  2.3745 -0.2339 -1.6944
19638TIP3   OH280404   2.035   3.847   3.222  0.4359  0.1414  0.6046
19638TIP3    H180405   1.983   3.881   3.294  2.3832  0.8829  1.7334
19638TIP3    H280406   2.113   3.810   3.264  0.8480 -0.9360 -1.0129
19639TIP3   OH280407   1.027   0.486  32.785  0.3404  0.2483 -0.0472
19639TIP3    H180408   0.949   0.481  32.729 -0.3702  0.3201  0.9261
19639TIP3    H280409   1.007   0.553  32.850  1.3517  0.5031  0.0297
19640TIP3   OH280410   1.358   1.746  47.568 -0.2220  0.8414 -0.1188
19640TIP3    H180411   1.286   1.808  47.561 -0.4974  0.8337  2.0411
19640TIP3    H280412   1.381   1.745  47.661  2.6574  0.9376 -0.7181
19641TIP3   OH280413   2.021   3.153  45.129  0.2840 -0.2555 -0.0683
19641TIP3    H180414   2.003   3.147  45.223  1.9151  0.9171  0.3583
19641TIP3    H280415   1.934   3.151  45.089 -0.6301  1.3823  1.6286
19642TIP3   OH280416   0.439   0.748  32.411  0.3312 -0.4592  0.1074
19642TIP3    H180417   0.349   0.777  32.398  0.4519  0.0645  0.3875
19642TIP3    H280418   0.458   0.692  32.336 -0.8713 -2.2002  1.0394
19643TIP3   OH280419   0.466   1.435  46.594  0.2080 -0.0347  0.0656
19643TIP3    H180420   0.483   1.466  46.683  0.2562  1.7112 -0.5143
19643TIP3    H280421   0.374   1.407  46.596 -0.2198  1.3153  0.3304
19644TIP3   OH280422   3.121   3.558  35.058 -0.0726  0.0625 -0.0602
19644TIP3    H180423   3.098   3.649  35.036 -0.2782  0.2697  0.9443
19644TIP3    H280424   3.038   3.510  35.050  0.3076 -0.3411 -1.9709
19645TIP3   OH280425   3.084   1.645   5.058  0.4275  0.1850 -0.1929
19645TIP3    H180426   3.175   1.659   5.083  0.1638  2.6313 -0.3274
19645TIP3    H280427   3.041   1.729   5.077 -1.3304 -0.2125 -2.0979
19646TIP3   OH280428   4.003   1.133  15.027  0.3848  0.0493 -0.2455
19646TIP3    H180429   3.963   1.097  14.948 -0.2829  0.2240  0.0029
19646TIP3    H280430   4.088   1.165  14.999  0.3980 -0.4210 -0.7695
19647TIP3   OH280431   3.932   0.756  11.847  0.1573  0.1330  0.0340
19647TIP3    H180432   3.962   0.813  11.777  2.0841 -1.2296 -0.3299
19647TIP3    H280433   3.941   0.667  11.811 -1.4742 -0.4971  1.0398
19648TIP3   OH280434   0.003   2.364  10.340  0.0528 -0.3543  0.3623
19648TIP3    H180435   0.053   2.444  10.353 -0.7080  0.5388 -1.6513
19648TIP3    H280436  -0.081   2.381  10.383 -0.1080 -0.0401 -0.0623
19649TIP3   OH280437   1.078   0.289  13.185 -0.3873 -0.1562  0.0088
19649TIP3    H180438   0.989   0.264  13.210 -0.7654  1.7783  0.7854
19649TIP3    H280439   1.085   0.382  13.209  1.2873  0.1973 -1.5717
19650TIP3   OH280440   1.483   3.596  11.597 -0.1585  0.2836 -0.2387
19650TIP3    H180441   1.513   3.542  11.671 -0.0204  0.1934 -0.3614
19650TIP3    H280442   1.444   3.533  11.536 -1.8892  0.5359  0.5482
19651TIP3   OH280443   0.669   0.605  15.625  0.0695 -0.5064 -0.5452
19651TIP3    H180444   0.636   0.693  15.644 -0.1737 -0.9507  1.3494
19651TIP3    H280445   0.763   0.616  15.616  0.0101  0.0016 -0.6050
19652TIP3   OH280446   0.356   2.035  44.809  0.1181 -0.1853 -0.0143
19652TIP3    H180447   0.418   2.088  44.860 -0.8956  2.4065 -1.2515
19652TIP3    H280448   0.378   2.053  44.718 -1.1356 -0.8127 -0.4692
19653TIP3   OH280449   2.907   2.152  12.250  0.2055 -0.0846  0.2710
19653TIP3    H180450   2.907   2.146  12.155 -1.7902  2.3124  0.0159
19653TIP3    H280451   2.999   2.170  12.273  0.4456  1.0680 -1.4023
19654TIP3   OH280452   2.937   2.447  35.674  0.7788  0.2492 -0.2822
19654TIP3    H180453   3.030   2.458  35.656  0.9465  1.4478  1.0783
19654TIP3    H280454   2.894   2.467  35.591  1.6938  0.5451 -0.7064
19655TIP3   OH280455   0.591   4.011  31.122  0.0464 -0.1583 -0.0621
19655TIP3    H180456   0.531   4.080  31.149 -1.5681 -0.8503 -1.6623
19655TIP3    H280457   0.630   3.980  31.203 -0.3124  1.6200  0.8269
19656TIP3   OH280458   0.119   0.905  13.677  0.2970  0.9573  1.0216
19656TIP3    H180459   0.123   0.999  13.693  0.6462  0.8846  1.3709
19656TIP3    H280460   0.187   0.868  13.733  0.1007  0.4868  0.9537
19657TIP3   OH280461   3.651   2.688   3.228 -0.1655 -0.1224 -0.1620
19657TIP3    H180462   3.571   2.644   3.197 -0.4385 -0.4192  0.9279
19657TIP3    H280463   3.721   2.647   3.177 -0.7130  0.3052 -1.2989
19658TIP3   OH280464   1.122   1.723  13.879  0.2933 -0.3332  0.0284
19658TIP3    H180465   1.181   1.793  13.904  1.4942 -0.3783 -2.3567
19658TIP3    H280466   1.169   1.643  13.900  0.4794 -0.3809 -0.5572
19659TIP3   OH280467   3.260   1.372  39.614 -0.1134 -0.1899 -0.4122
19659TIP3    H180468   3.241   1.360  39.521  0.7750  1.8600 -0.9168
19659TIP3    H280469   3.341   1.323  39.628 -0.4463 -0.8074 -0.6163
19660TIP3   OH280470   1.202   0.810   0.172  0.1740  0.1693  0.0512
19660TIP3    H180471   1.155   0.837   0.250  0.5101 -0.2863  0.4154
19660TIP3    H280472   1.194   0.715   0.170  3.8551 -0.3829  2.0020
19661TIP3   OH280473   2.887   0.919  44.820  0.6526  0.2823  0.0554
19661TIP3    H180474   2.802   0.945  44.784  0.6204 -0.8512 -0.7332
19661TIP3    H280475   2.944   0.912  44.743  1.7460  1.9668  0.6470
19662TIP3   OH280476   1.388   1.269  11.040  0.0988 -0.0905 -0.0473
19662TIP3    H180477   1.414   1.358  11.065  0.5117  0.0605 -0.9801
19662TIP3    H280478   1.384   1.221  11.123  2.5298  0.1055  0.2681
19663TIP3   OH280479   2.120   2.565  40.939 -0.4017 -0.5540 -0.6026
19663TIP3    H180480   2.188   2.554  41.005 -0.2573 -0.2636 -0.7051
19663TIP3    H280481   2.100   2.658  40.939  1.5459 -0.0623 -2.8828
19664TIP3   OH280482   2.517   0.173  27.858 -0.1483  0.3813  0.1622
19664TIP3    H180483   2.527   0.257  27.903  1.5673 -0.7605  2.1000
19664TIP3    H280484   2.606   0.136  27.858 -0.9084 -1.5475 -0.3968
19665TIP3   OH280485   1.530   3.942  38.805  0.1440 -0.6117  0.5070
19665TIP3    H180486   1.474   3.998  38.859  0.8265  0.1491  0.4411
19665TIP3    H280487   1.475   3.917  38.731  0.0069  0.4580  0.2355
19666TIP3   OH280488   2.874   1.454  38.440 -0.1271 -0.2588 -0.2381
19666TIP3    H180489   2.946   1.393  38.424  0.4899  0.4282 -0.0975
19666TIP3    H280490   2.916   1.538  38.457 -0.9492  0.0891  0.1417
19667TIP3   OH280491   3.869   0.841   3.284  1.3274 -0.4519 -0.8128
19667TIP3    H180492   3.963   0.851   3.270  1.2123  1.2401 -0.5718
19667TIP3    H280493   3.834   0.930   3.277 -0.0419 -0.8391  0.5895
19668TIP3   OH280494   1.735   3.303  12.633 -0.0253  0.0686  0.2816
19668TIP3    H180495   1.744   3.303  12.537 -3.3567 -0.8505 -0.1890
19668TIP3    H280496   1.766   3.216  12.660 -1.4367 -0.6735 -0.3644
19669TIP3   OH280497   1.688   3.958  27.011  0.3683 -0.0526  0.1220
19669TIP3    H180498   1.717   3.870  27.035 -0.2968 -1.3599 -3.2553
19669TIP3    H280499   1.769   4.006  26.995  0.7330 -0.0558  1.7932
19670TIP3   OH280500   4.078   2.827  12.538  0.1219  0.7581  0.0441
19670TIP3    H180501   4.120   2.785  12.613 -1.9188 -0.4771  0.5613
19670TIP3    H280502   4.085   2.921  12.556  0.8406  0.5225  1.1050
19671TIP3   OH280503   4.069   0.186   1.718  0.2778  0.4864  0.4856
19671TIP3    H180504   4.060   0.278   1.745  0.8242  0.5513  0.4432
19671TIP3    H280505   4.082   0.139   1.801  0.3444  0.4878  0.4756
19672TIP3   OH280506   1.477   2.557  17.138 -0.0882 -0.2114  0.6959
19672TIP3    H180507   1.561   2.599  17.158 -0.0988  0.4178 -0.4770
19672TIP3    H280508   1.487   2.527  17.047 -0.7526 -1.1032  0.8981
19673TIP3   OH280509   1.373   1.252  45.474 -0.6363 -0.7182  0.0382
19673TIP3    H180510   1.422   1.298  45.542 -1.4234 -0.3187  0.3531
19673TIP3    H280511   1.285   1.290  45.479 -1.6998 -3.1486  1.1708
19674TIP3   OH280512   2.447   0.882  34.401 -0.2540 -0.2846 -0.3678
19674TIP3    H180513   2.393   0.862  34.324 -1.0387  1.9945 -0.4829
19674TIP3    H280514   2.384   0.910  34.468  0.6510  1.3701 -0.1502
19675TIP3   OH280515   3.061   1.818  15.188  0.6340 -0.5472 -0.4196
19675TIP3    H180516   2.973   1.782  15.201 -0.6487  1.8098 -1.8345
19675TIP3    H280517   3.102   1.758  15.125 -0.2310 -1.3016 -0.2888
19676TIP3   OH280518   0.292   0.229   5.057  0.2738 -0.1161 -0.7458
19676TIP3    H180519   0.248   0.263   4.979 -0.8967 -0.3871 -0.2228
19676TIP3    H280520   0.286   0.133   5.048 -0.6439 -0.1547  0.0775
19677TIP3   OH280521   0.157   0.724   7.645  0.4588  0.6758  0.1607
19677TIP3    H180522   0.201   0.650   7.686  0.9348  0.1539 -1.2274
19677TIP3    H280523   0.089   0.684   7.591 -0.4996  1.3748  0.8086
19678TIP3   OH280524   4.101   4.018  41.955 -0.4117 -0.3446  0.2516
19678TIP3    H180525   4.106   3.959  41.880 -0.3926  0.1138 -0.1087
19678TIP3    H280526   4.103   4.106  41.917  0.8569 -0.0908  0.8563
19679TIP3   OH280527   0.981   2.331   5.435 -0.4693  0.1508 -0.6269
19679TIP3    H180528   1.024   2.416   5.430  2.2293 -1.0629  0.0587
19679TIP3    H280529   1.011   2.295   5.519 -1.4975 -1.5023 -0.9393
19680TIP3   OH280530   0.408   3.725  26.199 -0.2388 -0.2525 -0.0177
19680TIP3    H180531   0.456   3.676  26.265  0.2643 -0.6461 -0.6613
19680TIP3    H280532   0.403   3.814  26.234 -0.4717 -0.5789  0.7987
19681TIP3   OH280533   1.431   0.642  46.766 -0.0579  0.6709 -0.0123
19681TIP3    H180534   1.444   0.722  46.714 -0.9512  0.3709 -0.7190
19681TIP3    H280535   1.501   0.583  46.738 -1.9092 -0.4228 -2.7665
19682TIP3   OH280536   1.030   2.221  12.033 -0.1973 -0.0721  0.3958
19682TIP3    H180537   0.973   2.144  12.041 -0.0738 -0.1366  0.6844
19682TIP3    H280538   1.077   2.225  12.117 -1.0922  1.0274  0.8793
19683TIP3   OH280539   0.962   1.806  34.702 -0.1286 -0.4846  0.3443
19683TIP3    H180540   0.965   1.761  34.617 -0.0457  1.0789 -0.5365
19683TIP3    H280541   0.946   1.737  34.766 -1.5445 -1.5619 -1.0851
19684TIP3   OH280542   3.896   1.169  31.587  0.1758  0.1495 -0.3740
19684TIP3    H180543   3.944   1.118  31.652 -1.1127 -1.5760 -0.6842
19684TIP3    H280544   3.804   1.151  31.607 -0.2999  1.7737 -1.0013
19685TIP3   OH280545   1.171   3.176   0.504 -0.3545  0.4740  0.1451
19685TIP3    H180546   1.148   3.083   0.501 -1.5950  0.7519  0.5346
19685TIP3    H280547   1.245   3.184   0.444 -1.8880 -0.3225 -2.0170
19686TIP3   OH280548   1.117   3.037  42.180  0.0639  0.4615 -0.0089
19686TIP3    H180549   1.153   3.053  42.093  0.5947  0.4167  0.2048
19686TIP3    H280550   1.114   2.942  42.188  0.6518  0.4671  0.2852
19687TIP3   OH280551   1.608   0.046   0.573  0.5921 -0.2733 -0.1043
19687TIP3    H180552   1.627  -0.039   0.612 -0.0593 -1.5865 -2.4114
19687TIP3    H280553   1.614   0.031   0.478 -4.6153  0.7978 -0.9484
19688TIP3   OH280554   3.434   0.411   0.023  0.3076 -0.5341 -0.8071
19688TIP3    H180555   3.421   0.473  -0.049 -0.6968  1.7140  1.1891
19688TIP3    H280556   3.518   0.437   0.062  0.0813 -0.7082 -0.2003
19689TIP3   OH280557   2.026   1.602  42.358  0.7958  0.0040  0.4544
19689TIP3    H180558   1.981   1.527  42.398  2.6423 -1.3460  0.1396
19689TIP3    H280559   2.003   1.596  42.265  1.0069 -0.2433  0.4166
19690TIP3   OH280560   3.087   0.205  39.583  0.1513 -0.3446  0.4519
19690TIP3    H180561   3.166   0.152  39.573  0.2327 -0.1836  0.2257
19690TIP3    H280562   3.078   0.218  39.677  1.0770  0.6543  0.4252
19691TIP3   OH280563   3.551   3.260  14.435  0.8349  0.8785 -0.3073
19691TIP3    H180564   3.562   3.353  14.454 -0.1735  1.4993 -2.4421
19691TIP3    H280565   3.594   3.215  14.508 -0.4458  2.9755  1.8724
19692TIP3   OH280566   2.386   1.321  43.433 -0.0485  0.1631  0.7027
19692TIP3    H180567   2.319   1.307  43.365 -0.8212  1.4044  1.1803
19692TIP3    H280568   2.438   1.241  43.431 -0.1158  0.1084 -1.2712
19693TIP3   OH280569   1.299   1.890  32.328  0.1916  0.1440  0.1121
19693TIP3    H180570   1.385   1.858  32.358  0.1403  1.3042  1.6101
19693TIP3    H280571   1.320   1.950  32.257  0.7079  0.8975  0.8712
19694TIP3   OH280572   2.881   2.686  42.265 -0.3246 -0.0254  0.3277
19694TIP3    H180573   2.930   2.618  42.219  0.1989 -0.9698  2.1761
19694TIP3    H280574   2.927   2.767  42.244  1.7511 -0.8127  1.5322
19695TIP3   OH280575   0.871   1.464   7.279  0.3051  0.2127 -0.0392
19695TIP3    H180576   0.962   1.493   7.289  0.4397  0.1012 -0.8063
19695TIP3    H280577   0.870   1.422   7.193 -0.3967 -0.0878  0.1151
19696TIP3   OH280578   0.102   3.743  43.086 -0.0660 -0.4574 -0.2490
19696TIP3    H180579   0.153   3.743  43.006 -0.9163 -0.1464 -0.8068
19696TIP3    H280580   0.096   3.651  43.111  0.0280 -0.5730 -0.6500
19697TIP3   OH280581   1.516   0.054  38.242 -0.0822  0.1595 -0.2540
19697TIP3    H180582   1.601   0.047  38.197  0.4595  1.4904  0.5241
19697TIP3    H280583   1.531   0.117  38.312 -1.7784  0.5509 -0.2116
19698TIP3   OH280584   3.181   1.564   7.719 -0.2205  0.2954  0.1193
19698TIP3    H180585   3.259   1.607   7.685  0.5969 -1.4173 -0.2852
19698TIP3    H280586   3.139   1.525   7.642 -0.2254 -0.6907  0.5986
19699TIP3   OH280587   0.398   1.593   0.554  0.1279  0.1751  0.2392
19699TIP3    H180588   0.360   1.510   0.528  0.2478 -0.1784  1.1597
19699TIP3    H280589   0.375   1.653   0.483 -0.7753 -0.4095  0.0195
19700TIP3   OH280590   3.422   0.384   9.566  0.9240  0.7950  0.2397
19700TIP3    H180591   3.376   0.406   9.647 -0.6595 -2.0934  0.2516
19700TIP3    H280592   3.461   0.298   9.583  1.9494  0.8530 -1.5529
19701TIP3   OH280593   2.475   0.232  25.010  0.1860 -0.2340 -0.2938
19701TIP3    H180594   2.380   0.239  25.013  0.1626 -0.6714  0.0695
19701TIP3    H280595   2.506   0.321  25.028 -0.1534 -0.0556 -0.5819
19702TIP3   OH280596   0.230   2.441  35.318 -0.7995  0.2249  0.0268
19702TIP3    H180597   0.188   2.392  35.248  0.6291 -0.3552 -0.4523
19702TIP3    H280598   0.206   2.395  35.398 -2.2352  0.7438 -0.0850
19703TIP3   OH280599   0.152   1.656  17.255 -0.3839  0.6897  0.1918
19703TIP3    H180600   0.143   1.656  17.160  2.1193  2.7906 -0.1700
19703TIP3    H280601   0.246   1.642  17.270 -0.8462 -0.5112  2.4304
19704TIP3   OH280602   2.547   1.517   4.621  0.4319  0.7572  0.3929
19704TIP3    H180603   2.592   1.433   4.631 -0.5965  0.1265 -0.1041
19704TIP3    H280604   2.600   1.564   4.556  0.4475  0.0575 -0.1237
19705TIP3   OH280605   1.897   0.781   3.275  0.1785 -0.1314  0.0191
19705TIP3    H180606   1.823   0.839   3.291 -0.9677 -0.8412 -2.1884
19705TIP3    H280607   1.936   0.813   3.194  2.1993  0.0787  1.0080
19706TIP3   OH280608   4.093   0.509  42.908 -0.2597  0.0484  0.3967
19706TIP3    H180609   4.023   0.564  42.873  0.1488  1.7991  2.0826
19706TIP3    H280610   4.172   0.538  42.862 -0.0453  0.9294  1.2803
19707TIP3   OH280611   0.728   2.864  47.604 -0.2721 -0.5319  0.0246
19707TIP3    H180612   0.691   2.952  47.599  0.3672 -0.2113  0.6790
19707TIP3    H280613   0.822   2.878  47.613  0.2404 -1.3444 -2.9937
19708TIP3   OH280614   0.935   0.904  11.702  0.0948 -0.6231 -0.1229
19708TIP3    H180615   0.943   0.952  11.619 -1.9227  0.6466  0.3271
19708TIP3    H280616   0.882   0.827  11.680 -3.0813  1.2281  0.3787
19709TIP3   OH280617   3.727   0.035   3.901 -0.1114  0.0526 -0.5697
19709TIP3    H180618   3.811   0.027   3.946 -0.4216  0.5358  0.1044
19709TIP3    H280619   3.744   0.096   3.830 -0.1475  1.0183  0.2321
19710TIP3   OH280620   2.208   3.546  13.253  0.1527  0.0033  0.0230
19710TIP3    H180621   2.232   3.454  13.244  1.0812  0.2392  0.0135
19710TIP3    H280622   2.164   3.552  13.338 -1.2407 -0.7103 -0.6144
19711TIP3   OH280623   3.607   1.605  36.296 -0.0063  0.0267  0.4022
19711TIP3    H180624   3.687   1.591  36.347  0.2472 -1.3591 -0.3366
19711TIP3    H280625   3.592   1.699  36.300  0.6285  0.0911  2.0892
19712TIP3   OH280626   2.673   2.636  47.739  0.0260 -0.2247  0.2403
19712TIP3    H180627   2.584   2.616  47.710 -0.7727  0.6891  1.9371
19712TIP3    H280628   2.694   2.718  47.695  0.5342 -1.0449 -1.1102
19713TIP3   OH280629   1.148   0.964   7.227  0.4530  0.0419 -0.5868
19713TIP3    H180630   1.097   0.996   7.152  0.6079  1.4375 -0.1199
19713TIP3    H280631   1.206   1.036   7.250 -0.6805  0.2868  1.8560
19714TIP3   OH280632   2.809   3.329  40.320 -0.0508  0.5222  0.3613
19714TIP3    H180633   2.761   3.409  40.339 -0.0889  1.3686 -2.7361
19714TIP3    H280634   2.757   3.284  40.253  1.1238 -0.9409  0.3535
19715TIP3   OH280635   0.902   3.725   1.248 -0.6507  0.1002  0.2748
19715TIP3    H180636   0.976   3.726   1.187 -0.4363  0.4611  0.5333
19715TIP3    H280637   0.841   3.662   1.211 -0.7920  0.7440 -0.6358
19716TIP3   OH280638   2.902   3.858  28.341  0.2890 -0.4821 -0.3136
19716TIP3    H180639   2.853   3.843  28.423  2.8415 -2.6984  0.9469
19716TIP3    H280640   2.915   3.953  28.339  0.2091 -0.3521  1.9451
19717TIP3   OH280641   3.177   0.158  33.711 -0.1441  0.5428 -0.8311
19717TIP3    H180642   3.262   0.180  33.749 -1.1060 -1.5283  3.0420
19717TIP3    H280643   3.127   0.239  33.716  0.4490  0.8583  0.6070
19718TIP3   OH280644   0.543   1.178   9.074 -0.0512 -0.6146  0.1531
19718TIP3    H180645   0.482   1.181   9.000  0.3649  1.1254 -0.1633
19718TIP3    H280646   0.517   1.252   9.129 -0.3394 -1.8757  1.7660
19719TIP3   OH280647   1.134   1.032  37.887 -0.0370  0.4489 -0.2173
19719TIP3    H180648   1.086   1.091  37.828 -0.8944  0.8443  0.8431
19719TIP3    H280649   1.187   1.091  37.941 -0.7214  0.2460  0.6937
19720TIP3   OH280650   3.251   2.871  35.246 -0.4290 -0.3416 -0.1059
19720TIP3    H180651   3.248   2.956  35.202  0.6613  0.1239  0.6826
19720TIP3    H280652   3.269   2.808  35.176 -0.8327  0.1202 -0.6317
19721TIP3   OH280653   1.426   3.984  12.713  0.2926 -0.1886  0.5789
19721TIP3    H180654   1.409   3.889  12.711 -0.7390 -0.0073 -0.9305
19721TIP3    H280655   1.419   4.007  12.806  1.1378 -1.6716  1.0458
19722TIP3   OH280656   0.531   1.918  46.030  0.2874 -0.1771  0.0752
19722TIP3    H180657   0.501   1.874  45.951  1.1779 -1.4393  0.4203
19722TIP3    H280658   0.621   1.943  46.011  0.3615 -0.0900  0.5260
19723TIP3   OH280659   0.626   3.743   5.736 -0.1367  0.3468  0.1937
19723TIP3    H180660   0.693   3.789   5.686 -0.0386 -0.8134 -0.7777
19723TIP3    H280661   0.618   3.794   5.817  1.3690  0.9264  0.0090
19724TIP3   OH280662   3.703   1.822  21.920 -0.1608 -0.3515  0.3979
19724TIP3    H180663   3.730   1.886  21.855 -0.3631 -0.5361  0.1300
19724TIP3    H280664   3.670   1.874  21.994  1.8947 -0.0862  1.1850
19725TIP3   OH280665   1.044   1.148  42.767  0.3215  0.5478  0.4608
19725TIP3    H180666   1.000   1.177  42.687  1.4619 -0.0091 -0.4044
19725TIP3    H280667   1.127   1.112  42.736  0.6548  0.0428  1.8838
19726TIP3   OH280668   2.345   0.915  37.090  0.4232 -0.1018 -0.0450
19726TIP3    H180669   2.427   0.958  37.113  1.1429 -1.6241  0.3414
19726TIP3    H280670   2.355   0.825  37.122  0.0487 -1.3525 -3.1114
19727TIP3   OH280671   3.368   1.057   5.692  0.2077 -0.2740  0.1404
19727TIP3    H180672   3.443   1.106   5.727  0.1118  0.7258 -1.0141
19727TIP3    H280673   3.297   1.075   5.754  0.8096 -1.0040  1.0903
19728TIP3   OH280674   2.679   1.692   0.681  0.2969 -0.2680  0.0772
19728TIP3    H180675   2.739   1.624   0.712 -1.0460 -1.8273 -0.6173
19728TIP3    H280676   2.592   1.653   0.689 -0.4434  0.9968 -1.2826
19729TIP3   OH280677   3.884   3.957  10.628  0.3074 -0.1635 -0.1329
19729TIP3    H180678   3.801   3.989  10.664 -1.2152 -1.4179 -2.2443
19729TIP3    H280679   3.927   3.913  10.701 -0.5700  1.0184  1.1576
19730TIP3   OH280680   2.650   1.643  32.299  0.0563 -0.2669 -0.4010
19730TIP3    H180681   2.614   1.572  32.246 -0.4719  0.6163 -1.2758
19730TIP3    H280682   2.611   1.631  32.385 -0.7358 -0.5351 -0.7831
19731TIP3   OH280683   2.586   0.130   5.677 -0.8386 -0.1558 -0.4330
19731TIP3    H180684   2.515   0.120   5.613 -0.2593  0.2886 -1.1612
19731TIP3    H280685   2.593   0.224   5.690  0.5092 -0.0794 -1.4257
19732TIP3   OH280686   0.098   3.582  13.611 -0.1775 -0.1068  0.0894
19732TIP3    H180687   0.185   3.553  13.585  0.5421 -0.1639  2.3149
19732TIP3    H280688   0.039   3.542  13.548  1.4767  1.2445 -2.4707
19733TIP3   OH280689   1.931   4.033  47.071  0.3893 -0.1793 -0.1636
19733TIP3    H180690   1.962   4.096  47.137  0.4638  0.8205 -1.1100
19733TIP3    H280691   1.870   3.977  47.118 -2.3996  2.7369  0.0422
19734TIP3   OH280692   3.810   3.749  29.319  0.3946  0.5959 -0.2033
19734TIP3    H180693   3.738   3.807  29.346  0.3930 -0.0062  1.1689
19734TIP3    H280694   3.809   3.678  29.383  0.2172 -1.1016 -1.9815
19735TIP3   OH280695   1.485   3.933  30.273 -0.1706 -0.4561 -0.1169
19735TIP3    H180696   1.460   3.976  30.191  0.3977 -0.3851 -0.2501
19735TIP3    H280697   1.493   4.005  30.336  2.7896 -0.0702 -0.8101
19736TIP3   OH280698   2.626   1.965   0.824  0.0520 -0.2608  0.0252
19736TIP3    H180699   2.678   1.923   0.756  0.2510 -0.3311  0.2171
19736TIP3    H280700   2.608   2.053   0.790  1.1379  0.1093  0.3685
19737TIP3   OH280701   3.730   0.444  36.480 -0.2451 -0.6726 -0.2373
19737TIP3    H180702   3.692   0.460  36.566 -0.4138 -0.8494 -0.2790
19737TIP3    H280703   3.816   0.406  36.498  0.5448  1.0867 -0.1187
19738TIP3   OH280704   0.929   0.031  30.728  1.0609  0.0338 -0.0524
19738TIP3    H180705   0.939   0.126  30.729 -0.5370  0.2216  0.4785
19738TIP3    H280706   0.967   0.002  30.811  0.7467  0.3051  0.1889
19739TIP3   OH280707   1.199   1.259   5.235  0.4956 -0.2216 -0.1078
19739TIP3    H180708   1.133   1.322   5.204 -0.2557 -1.2732 -0.7147
19739TIP3    H280709   1.192   1.263   5.330  0.0754  0.2241 -0.1488
19740TIP3   OH280710   0.646   0.246  42.104 -0.4990  0.2546  0.6493
19740TIP3    H180711   0.595   0.252  42.184  0.7562 -0.0318  1.4943
19740TIP3    H280712   0.589   0.199  42.043 -1.5860  0.7417  1.2504
19741TIP3   OH280713   3.793   3.031  13.632  0.5859  0.0008  0.1485
19741TIP3    H180714   3.754   3.047  13.718  0.2152 -1.1645  0.2254
19741TIP3    H280715   3.849   2.954  13.646  1.3945  0.4797 -0.4057
19742TIP3   OH280716   1.704   2.308  45.311  0.5568  0.4157 -0.1900
19742TIP3    H180717   1.640   2.379  45.303 -0.5654 -0.5511 -0.0720
19742TIP3    H280718   1.758   2.316  45.232  0.5762  1.4975 -0.0946
19743TIP3   OH280719   0.064   0.321  12.186 -0.0358  0.0927  0.3702
19743TIP3    H180720   0.025   0.239  12.217  2.0695 -0.4625  1.7012
19743TIP3    H280721   0.127   0.294  12.119 -0.2083  0.7575 -0.0747
19744TIP3   OH280722   1.271   3.247  13.688 -0.3602  0.2299  0.6468
19744TIP3    H180723   1.263   3.240  13.783  0.5830 -0.0366  0.7168
19744TIP3    H280724   1.209   3.183  13.654  1.1221 -1.5678  1.1412
19745TIP3   OH280725   1.687   3.304   3.858 -0.1510  0.3061 -0.1973
19745TIP3    H180726   1.712   3.319   3.950  0.4218 -1.3856 -0.0494
19745TIP3    H280727   1.681   3.392   3.821  2.4199  0.9723  0.7232
19746TIP3   OH280728   0.981   2.078   2.779 -0.5776 -0.9151  0.2297
19746TIP3    H180729   1.035   2.115   2.849 -0.7598 -0.4839  0.1436
19746TIP3    H280730   1.043   2.033   2.722 -0.0207  1.2719 -0.9796
19747TIP3   OH280731   0.537   1.033  12.200 -0.6599  0.0980 -0.3741
19747TIP3    H180732   0.546   0.950  12.152 -0.7376 -0.4092  0.4725
19747TIP3    H280733   0.520   1.098  12.131 -1.0943 -0.6642 -1.0092
19748TIP3   OH280734   0.274   0.560  40.078  0.4287 -0.2832 -0.0540
19748TIP3    H180735   0.245   0.651  40.066 -0.4474 -0.5924 -0.4204
19748TIP3    H280736   0.240   0.535  40.164  1.5907  0.0605  0.5228
19749TIP3   OH280737   2.854   4.013   3.673 -0.2274 -0.1817 -0.3583
19749TIP3    H180738   2.805   3.938   3.641 -1.8992  1.0629 -0.8265
19749TIP3    H280739   2.788   4.078   3.697  1.0580  0.2806  2.3736
19750TIP3   OH280740   0.159   0.155  10.453 -0.0739 -0.2949 -0.3836
19750TIP3    H180741   0.141   0.150  10.359 -0.1832 -0.0253 -0.3784
19750TIP3    H280742   0.231   0.218  10.461 -1.4621  1.3458 -0.1252
19751TIP3   OH280743   2.904   0.633   3.626 -0.1302 -0.0637  0.1176
19751TIP3    H180744   2.884   0.669   3.540  0.8479 -0.7099 -0.4049
19751TIP3    H280745   2.862   0.546   3.627  1.0165 -0.6433 -0.2699
19752TIP3   OH280746   0.818   2.220  35.918 -0.3508  0.0931  0.8053
19752TIP3    H180747   0.826   2.142  35.972 -2.6323 -0.9191 -0.1858
19752TIP3    H280748   0.801   2.187  35.830  0.1662  1.7158  0.0521
19753TIP3   OH280749   0.165   2.946   2.441  0.4427  0.1808  0.7462
19753TIP3    H180750   0.159   2.858   2.403 -1.0537  0.4904  0.1887
19753TIP3    H280751   0.148   2.933   2.534 -1.1065  0.0106  0.4635
19754TIP3   OH280752   2.866   1.308  39.142  0.3564 -0.1563 -0.0398
19754TIP3    H180753   2.783   1.286  39.185 -0.0253  0.6367 -0.3459
19754TIP3    H280754   2.885   1.397  39.172  0.9137 -0.2006 -0.2573
19755TIP3   OH280755   2.787   0.257  35.030 -0.1088  0.2200 -0.1296
19755TIP3    H180756   2.762   0.294  35.114 -0.5842  0.8134 -0.5258
19755TIP3    H280757   2.706   0.256  34.979  0.3613  0.7488 -0.9031
19756TIP3   OH280758   3.831   2.698  36.935  0.0982 -0.3668  0.3454
19756TIP3    H180759   3.801   2.703  36.844  1.1468  0.3513  0.0170
19756TIP3    H280760   3.804   2.781  36.974  0.0383 -0.4900  0.5679
19757TIP3   OH280761   3.988   3.211  38.038 -0.5455  0.5617 -0.0455
19757TIP3    H180762   3.977   3.150  38.112 -2.3504  0.7771 -0.0808
19757TIP3    H280763   3.898   3.230  38.009  0.0263  2.2263 -0.8761
19758TIP3   OH280764   0.017   2.357  36.173  0.3732  0.2818 -0.3387
19758TIP3    H180765   0.088   2.298  36.147 -0.7207 -0.4153 -1.8707
19758TIP3    H280766  -0.046   2.302  36.218  0.6554  0.8661  0.8268
19759TIP3   OH280767   0.439   3.779  44.795 -0.0369 -0.0557  0.3514
19759TIP3    H180768   0.522   3.819  44.821 -0.2955  0.2856  0.6611
19759TIP3    H280769   0.378   3.852  44.792 -0.1267 -0.1547 -0.7620
19760TIP3   OH280770   0.610   2.011  38.768  0.1012  0.0482  0.3356
19760TIP3    H180771   0.620   2.049  38.680  0.3100  1.5087  0.9472
19760TIP3    H280772   0.543   1.944  38.758  0.2764  0.0397 -0.9896
19761TIP3   OH280773   3.231   0.688  14.286  0.1200 -0.5032 -0.4904
19761TIP3    H180774   3.287   0.622  14.245  0.4935 -2.4345  2.8019
19761TIP3    H280775   3.289   0.736  14.345 -0.6555  1.2099 -1.0619
19762TIP3   OH280776   3.050   1.109  13.693 -0.0744  0.1628 -0.6891
19762TIP3    H180777   2.993   1.182  13.719 -1.3332 -0.4332 -1.6412
19762TIP3    H280778   3.135   1.150  13.678 -0.2447  1.1097  0.6601
19763TIP3   OH280779   1.960   0.094  47.582  0.1560  0.4062 -0.0069
19763TIP3    H180780   1.882   0.057  47.623 -1.4622  2.0750 -1.3805
19763TIP3    H280781   2.008   0.135  47.653 -0.1295 -0.7640  0.8878
19764TIP3   OH280782   2.015   0.130  27.697 -0.4947 -0.5542 -0.5342
19764TIP3    H180783   2.041   0.161  27.610  0.1008  2.5791  0.5988
19764TIP3    H280784   2.098   0.121  27.744 -0.8633 -1.2760 -0.0146
19765TIP3   OH280785   0.352   3.144  47.654  0.5995  0.5411 -0.1559
19765TIP3    H180786   0.259   3.135  47.634  0.4638  0.6425  0.4026
19765TIP3    H280787   0.379   3.221  47.605  0.6556 -0.1385 -1.2075
19766TIP3   OH280788   2.608   1.243  37.983  0.2294 -0.1200 -0.6275
19766TIP3    H180789   2.579   1.225  38.072  0.4868  0.6467 -0.3775
19766TIP3    H280790   2.636   1.158  37.949  0.0295 -0.4363 -0.0167
19767TIP3   OH280791   2.835   1.822  42.766 -0.0523  0.0515  0.0073
19767TIP3    H180792   2.860   1.766  42.840  0.8841  1.3582  0.7192
19767TIP3    H280793   2.904   1.807  42.701 -0.9518 -1.2066 -0.7058
19768TIP3   OH280794   0.842   1.743  45.863 -0.3525 -0.6255 -0.5397
19768TIP3    H180795   0.811   1.661  45.903  0.1701 -0.8199 -0.5273
19768TIP3    H280796   0.913   1.772  45.921  0.4434 -0.9303 -1.3374
19769TIP3   OH280797   3.258   2.370   0.175 -0.3349 -0.3454  0.1747
19769TIP3    H180798   3.275   2.316   0.253 -0.3633  2.1949  2.0675
19769TIP3    H280799   3.195   2.436   0.205  1.8496  2.5251 -1.1413
19770TIP3   OH280800   3.789   1.669  13.576 -0.3044  0.0059 -0.5192
19770TIP3    H180801   3.837   1.602  13.527 -0.8486  0.9051 -2.3470
19770TIP3    H280802   3.782   1.743  13.516 -0.4100  1.4406  1.1647
19771TIP3   OH280803   2.982   3.028   9.395  0.6357  0.2072  0.4057
19771TIP3    H180804   2.896   3.040   9.436  0.5615  0.7974  0.0948
19771TIP3    H280805   2.996   3.109   9.345 -1.0505 -1.9497 -4.0247
19772TIP3   OH280806   0.367   0.934   1.044 -0.8561 -0.5464 -0.6075
19772TIP3    H180807   0.359   0.846   1.006  0.8670 -0.8008 -0.4513
19772TIP3    H280808   0.296   0.938   1.109 -0.9254 -1.8524 -0.5749
19773TIP3   OH280809   1.917   3.044  37.416  0.2834  0.0259  0.1088
19773TIP3    H180810   1.971   3.115  37.454 -1.7093  1.3389  0.6292
19773TIP3    H280811   1.929   2.971  37.476  1.2769  0.3713  0.3579
19774TIP3   OH280812   3.310   1.510  35.949  0.5454  0.3132  0.1518
19774TIP3    H180813   3.266   1.545  36.026  0.0728  2.7884 -1.1606
19774TIP3    H280814   3.255   1.437  35.921  1.0444 -1.0241  2.4241
19775TIP3   OH280815   0.508   1.501  13.646 -0.4970  0.1096 -0.7234
19775TIP3    H180816   0.439   1.560  13.675  0.3412 -0.6727  3.5213
19775TIP3    H280817   0.588   1.552  13.653  0.0237 -0.8912  1.1620
19776TIP3   OH280818   3.453   3.149  40.524  0.1653 -0.7216 -0.2471
19776TIP3    H180819   3.435   3.236  40.558 -0.9737 -1.7692  2.0818
19776TIP3    H280820   3.548   3.148  40.510  0.4459  0.3736  1.2993
19777TIP3   OH280821   3.418   3.665  27.768 -0.1152 -0.3535  0.3812
19777TIP3    H180822   3.371   3.585  27.791  0.8351 -0.7574  1.0074
19777TIP3    H280823   3.476   3.638  27.696 -0.3729 -0.0187  0.0437
19778TIP3   OH280824   1.514   0.131  11.285 -0.5470  0.1213 -0.2517
19778TIP3    H180825   1.526   0.040  11.256 -1.3290  0.3337 -1.2788
19778TIP3    H280826   1.422   0.150  11.269 -0.0423  1.6198 -1.6078
19779TIP3   OH280827   2.123   2.227   6.278 -0.2898  0.1551 -0.2729
19779TIP3    H180828   2.186   2.185   6.336  1.9354  1.4282 -1.6484
19779TIP3    H280829   2.102   2.160   6.213 -1.3362 -0.6535  0.8452
19780TIP3   OH280830   2.368   0.983   6.087 -0.3623  0.2024  0.3633
19780TIP3    H180831   2.339   1.072   6.066 -1.2856 -0.0165  0.6737
19780TIP3    H280832   2.404   0.950   6.005 -0.6080  0.6311  0.0757
19781TIP3   OH280833   0.898   1.582  16.571  0.2633 -0.1597  0.2913
19781TIP3    H180834   0.924   1.674  16.568 -0.1416 -0.0184 -2.7711
19781TIP3    H280835   0.836   1.577  16.644 -0.3221  2.2058  0.0456
19782TIP3   OH280836   3.667   2.319  16.870  0.1655  0.1364 -1.2924
19782TIP3    H180837   3.613   2.366  16.934  0.1516 -0.4484 -0.8673
19782TIP3    H280838   3.697   2.240  16.917  0.0616 -0.3548 -2.0376
19783TIP3   OH280839   0.522   0.036  33.887  0.0189 -0.0841  0.1939
19783TIP3    H180840   0.454   0.057  33.950  0.8278  1.9081  0.4725
19783TIP3    H280841   0.484  -0.033  33.832 -0.6105 -2.1062  2.9568
19784TIP3   OH280842   0.498   1.592   5.595  0.2572  0.4480 -0.0044
19784TIP3    H180843   0.449   1.663   5.637  1.2439  1.2429 -0.1798
19784TIP3    H280844   0.478   1.515   5.649 -2.0955  0.4629 -0.7187
19785TIP3   OH280845   3.196   2.283  39.844  0.7537 -0.7897  0.2420
19785TIP3    H180846   3.244   2.208  39.879 -1.6663 -2.7134 -0.3073
19785TIP3    H280847   3.147   2.248  39.770  0.1543  1.5537 -0.5683
19786TIP3   OH280848   1.970   0.993  37.208 -0.2224  0.3767  0.3189
19786TIP3    H180849   1.988   1.039  37.125 -1.5392  0.6010  0.1303
19786TIP3    H280850   1.907   0.925  37.184  0.3233 -0.3617  0.9339
19787TIP3   OH280851   0.431   0.050  26.093 -0.1601 -0.5959  0.0111
19787TIP3    H180852   0.495   0.014  26.155  0.0483 -2.9975 -1.4573
19787TIP3    H280853   0.476   0.122  26.050 -0.2399  1.0037  2.4249
19788TIP3   OH280854   0.459   0.057  10.207 -0.0696 -0.5260  0.5779
19788TIP3    H180855   0.398  -0.014  10.186 -1.4783  0.4893  1.0881
19788TIP3    H280856   0.467   0.054  10.302 -0.2951  0.1026  0.6247
19789TIP3   OH280857   2.206   2.917   7.750 -0.1187 -0.4611  0.0079
19789TIP3    H180858   2.187   2.926   7.656 -0.6852  0.5192  0.2028
19789TIP3    H280859   2.133   2.866   7.784 -0.6403  0.3852  0.1603
19790TIP3   OH280860   2.257   0.277  44.990 -0.1278 -0.2841 -0.2308
19790TIP3    H180861   2.164   0.291  44.971 -0.0073  0.2980 -0.4170
19790TIP3    H280862   2.302   0.312  44.914  0.1739 -2.9211 -1.3588
19791TIP3   OH280863   0.626   1.254  45.319  0.5566 -0.2253 -0.0617
19791TIP3    H180864   0.645   1.337  45.362  0.2677  0.4009 -1.1265
19791TIP3    H280865   0.555   1.273  45.258  1.4279 -0.9261 -1.3420
19792TIP3   OH280866   2.180   1.017  35.958  0.4753  0.0428 -0.0794
19792TIP3    H180867   2.104   0.960  35.971 -0.1386  1.0559  0.8660
19792TIP3    H280868   2.236   0.999  36.034 -0.0008  1.1060  0.5444
19793TIP3   OH280869   1.160   2.580  45.717  0.3041  0.1722  0.0624
19793TIP3    H180870   1.147   2.666  45.677  0.5511 -1.2452 -3.3644
19793TIP3    H280871   1.091   2.574  45.784 -2.0160  1.7142 -2.0155
19794TIP3   OH280872   0.476   2.564  14.627  0.4667  0.3448 -0.0605
19794TIP3    H180873   0.561   2.521  14.614  0.1328 -0.1904 -0.5348
19794TIP3    H280874   0.493   2.656  14.608  1.1440  0.4094  0.7440
19795TIP3   OH280875   0.091   2.420  31.624 -0.4560 -0.4795  0.1707
19795TIP3    H180876   0.051   2.333  31.629 -2.1768  0.2955  0.5443
19795TIP3    H280877   0.029   2.478  31.668  0.8235  0.8996  0.2522
19796TIP3   OH280878   0.592   0.849   4.190 -0.0703 -0.2402 -0.0231
19796TIP3    H180879   0.638   0.783   4.242  1.2623 -0.3383 -1.2888
19796TIP3    H280880   0.604   0.931   4.239  2.1846 -0.1022 -0.7276
19797TIP3   OH280881   0.240   3.973  45.246 -0.3324 -0.1180  0.5901
19797TIP3    H180882   0.225   4.052  45.194 -1.0544 -0.9653 -0.5550
19797TIP3    H280883   0.320   3.991  45.296 -0.8387  1.5542  0.8317
19798TIP3   OH280884   3.834   0.369  12.837 -0.1084 -0.1692 -0.2365
19798TIP3    H180885   3.862   0.377  12.928  1.0682 -0.8835 -0.5079
19798TIP3    H280886   3.876   0.443  12.792  0.0720 -0.3424 -0.3572
19799TIP3   OH280887   0.332   3.039   2.979  0.2850 -0.0793 -0.1659
19799TIP3    H180888   0.257   3.002   3.024 -0.8004 -0.2409 -2.0043
19799TIP3    H280889   0.388   3.073   3.049  0.0583 -2.7439  1.4612
19800TIP3   OH280890   2.814   1.305   6.569  0.1965  0.2286  0.0135
19800TIP3    H180891   2.836   1.315   6.662 -0.8902 -0.6684  0.3933
19800TIP3    H280892   2.727   1.343   6.561 -0.0345 -0.3744 -0.4656
19801TIP3   OH280893   1.018   3.008  33.956  0.0648  0.6993  0.0909
19801TIP3    H180894   1.007   2.924  33.911  0.8078 -0.7153  2.3567
19801TIP3    H280895   1.106   3.004  33.993 -0.3017  1.9857  1.1803
19802TIP3   OH280896   2.310   3.439  43.593 -0.0729 -0.2095  0.5743
19802TIP3    H180897   2.313   3.531  43.622  0.3004 -0.4261  1.2515
19802TIP3    H280898   2.247   3.398  43.653 -0.8428 -0.2338 -0.2292
19803TIP3   OH280899   2.462   0.477  44.561  0.5738 -0.7620  0.0706
19803TIP3    H180900   2.444   0.434  44.478  3.6774 -0.7315 -0.7327
19803TIP3    H280901   2.488   0.406  44.620 -1.7913 -0.8104  1.1677
19804TIP3   OH280902   3.080   1.684   1.180  0.0549 -0.3288 -0.2662
19804TIP3    H180903   3.040   1.597   1.183  0.1543 -0.4525 -1.6871
19804TIP3    H280904   3.172   1.669   1.202 -0.0748 -0.4732  0.1872
19805TIP3   OH280905   1.050   1.604  33.869  0.1793 -0.8471  0.1697
19805TIP3    H180906   1.095   1.689  33.867  0.8632 -1.2071 -1.1335
19805TIP3    H280907   1.084   1.560  33.947 -2.0241  0.9876  2.3092
19806TIP3   OH280908   1.262   1.051  12.935 -0.0380 -0.5123 -0.1995
19806TIP3    H180909   1.195   0.983  12.944  0.0080 -0.6918 -1.0788
19806TIP3    H280910   1.274   1.060  12.841 -0.2507  0.9328 -0.1026
19807TIP3   OH280911   0.836   2.106   3.051  0.1790 -0.5725  0.0808
19807TIP3    H180912   0.844   2.012   3.040 -0.8998 -0.6102 -0.5214
19807TIP3    H280913   0.785   2.117   3.132  2.6696 -0.4155  1.7313
19808TIP3   OH280914   1.875   3.243  32.560  0.7951  0.2867  0.3875
19808TIP3    H180915   1.900   3.317  32.505  0.3799  0.3391  0.2677
19808TIP3    H280916   1.942   3.240  32.628  0.6124  1.0005  0.6071
19809TIP3   OH280917   1.655   0.349   6.283  0.6598 -0.0237  0.2839
19809TIP3    H180918   1.699   0.344   6.368  0.1865  0.6591  0.5767
19809TIP3    H280919   1.563   0.332   6.302  0.7599 -1.3883 -0.3206
19810TIP3   OH280920   3.663   1.775   7.816 -0.7499 -0.3278  0.0800
19810TIP3    H180921   3.716   1.696   7.811 -1.3924 -0.7957  0.5199
19810TIP3    H280922   3.724   1.842   7.848 -0.7584 -1.2063  2.1067
19811TIP3   OH280923   3.134   1.289  19.087  0.0627 -1.1535 -0.0640
19811TIP3    H180924   3.085   1.330  19.015 -0.2810  0.9042  1.2464
19811TIP3    H280925   3.077   1.298  19.163  1.3868 -1.0716  0.9652
19812TIP3   OH280926   3.677   3.575  33.630  0.5072  0.7790  0.1768
19812TIP3    H180927   3.656   3.486  33.659 -0.1996  0.7222 -0.4735
19812TIP3    H280928   3.597   3.605  33.588  0.7853  1.6848  0.2825
19813TIP3   OH280929   3.146   0.113  42.814 -0.1303  0.2004  0.0887
19813TIP3    H180930   3.220   0.135  42.871  0.0735 -1.0912  0.3651
19813TIP3    H280931   3.090   0.191  42.817  1.0232  1.0586  0.1720
19814TIP3   OH280932   1.516   2.699  12.061 -0.5950 -0.3572 -0.0809
19814TIP3    H180933   1.568   2.749  11.998 -0.3994 -1.1561 -0.5680
19814TIP3    H280934   1.464   2.639  12.008  0.0590 -1.5071  0.5327
19815TIP3   OH280935   1.304   1.889  46.526  0.0644  0.1177  0.1344
19815TIP3    H180936   1.331   1.972  46.564 -1.9394  0.9225 -0.0766
19815TIP3    H280937   1.316   1.825  46.596 -2.3991  1.3461  1.8099
19816TIP3   OH280938   2.967   3.439  14.763  0.1507 -0.5849 -0.3192
19816TIP3    H180939   2.961   3.530  14.791  1.2913  0.0435 -1.9858
19816TIP3    H280940   2.959   3.443  14.668 -0.7044 -2.3333 -0.3573
19817TIP3   OH280941   3.458   3.731  37.579  0.1341  0.0183  0.2594
19817TIP3    H180942   3.386   3.686  37.624 -0.5008  0.7945  0.0433
19817TIP3    H280943   3.441   3.717  37.486  1.2541 -1.2870  0.2087
19818TIP3   OH280944   2.992   0.126  47.711  0.0128  0.0277 -0.4622
19818TIP3    H180945   2.971   0.211  47.673 -0.4788  1.9136  3.5496
19818TIP3    H280946   3.083   0.134  47.739 -0.4146 -0.2174  1.0904
19819TIP3   OH280947   1.151   3.260  33.798 -0.0721  0.5608  0.1888
19819TIP3    H180948   1.222   3.271  33.734 -0.3049 -1.7002 -0.5420
19819TIP3    H280949   1.071   3.263  33.745 -0.6310  3.3826  1.0387
19820TIP3   OH280950   1.540   2.919  33.085 -0.1485  0.3643  0.7725
19820TIP3    H180951   1.542   2.986  33.154 -1.4933  0.8191  0.3974
19820TIP3    H280952   1.514   2.966  33.006  0.0435 -0.3995  0.2399
19821TIP3   OH280953   1.502   1.257  44.450  0.5085  0.3899  0.0505
19821TIP3    H180954   1.523   1.165  44.467  1.5209  0.5324 -0.3625
19821TIP3    H280955   1.460   1.257  44.364  3.0570  0.5971 -1.2692
19822TIP3   OH280956   1.727   3.237  40.202  0.1944  1.0227  0.1928
19822TIP3    H180957   1.759   3.203  40.118  2.2566  0.1100  1.2721
19822TIP3    H280958   1.703   3.159  40.252 -2.0520  1.6097  0.1143
19823TIP3   OH280959   0.792   1.960  12.467  0.3492 -0.0476 -0.6604
19823TIP3    H180960   0.725   1.914  12.518 -1.0024  1.5352 -0.9328
19823TIP3    H280961   0.825   2.028  12.526 -1.5084  2.0621 -1.9044
19824TIP3   OH280962   2.123   1.982   1.803  0.2568  0.3635 -0.0059
19824TIP3    H180963   2.109   1.889   1.818 -0.6640  0.4547 -0.2168
19824TIP3    H280964   2.110   2.023   1.889  2.2763  0.1580  0.4488
19825TIP3   OH280965   1.499   0.981  33.073  0.1470  0.1115  0.3056
19825TIP3    H180966   1.469   0.945  32.989 -0.4868 -2.5237  1.5396
19825TIP3    H280967   1.469   0.917  33.138  2.4716  0.9505  2.3552
19826TIP3   OH280968   0.320   0.361  38.321 -0.0337  0.4826 -0.1892
19826TIP3    H180969   0.411   0.372  38.347  0.1178 -2.1655  0.6319
19826TIP3    H280970   0.322   0.361  38.225  1.0286 -0.8487 -0.1872
19827TIP3   OH280971   0.259   1.606   7.651 -0.4207 -0.0645 -0.0359
19827TIP3    H180972   0.204   1.551   7.707 -1.4583  0.0457 -0.9232
19827TIP3    H280973   0.247   1.695   7.685 -1.2021  0.0280 -0.5419
19828TIP3   OH280974   0.251   1.536  44.905  0.2150 -0.2789  0.4647
19828TIP3    H180975   0.221   1.619  44.870  1.9226 -0.5218 -1.8129
19828TIP3    H280976   0.222   1.471  44.841  1.7102 -1.0000  0.4709
19829TIP3   OH280977   1.630   3.996  34.710 -0.1554 -0.1791 -0.2294
19829TIP3    H180978   1.713   3.973  34.669 -0.3564  0.3790 -0.9616
19829TIP3    H280979   1.578   3.916  34.706  0.4619 -0.6281  0.5390
19830TIP3   OH280980   1.111   1.516  31.867 -0.4292 -0.1147 -0.3399
19830TIP3    H180981   1.045   1.575  31.831  0.6427  1.4698  0.1985
19830TIP3    H280982   1.131   1.552  31.954  0.9332 -0.7275 -0.3756
19831TIP3   OH280983   3.151   0.488  12.988  0.0210  0.3240 -0.1620
19831TIP3    H180984   3.061   0.464  12.964  0.2809 -1.4466  0.4422
19831TIP3    H280985   3.182   0.541  12.915 -0.9886 -0.4119 -1.1757
19832TIP3   OH280986   0.269   0.085   6.868 -0.1734  0.0151 -0.5674
19832TIP3    H180987   0.248   0.123   6.783 -0.3095 -0.4561 -0.7438
19832TIP3    H280988   0.303   0.159   6.919  1.0831  0.0751 -1.4283
19833TIP3   OH280989   0.083   3.830  14.542  0.2331 -0.7007 -0.2669
19833TIP3    H180990   0.031   3.761  14.500  0.4686 -0.8967 -0.2342
19833TIP3    H280991   0.173   3.808  14.522  0.3445 -0.7500  0.2813
19834TIP3   OH280992   2.929   0.113  31.435  0.2076 -0.2320  0.3840
19834TIP3    H180993   2.929   0.027  31.478  0.3110 -0.0219  0.8066
19834TIP3    H280994   2.850   0.112  31.381  0.0562 -0.4888  0.6038
19835TIP3   OH280995   1.782   1.811  44.540 -0.5185 -0.2676 -0.0105
19835TIP3    H180996   1.852   1.759  44.578  0.7425  0.8692 -0.7042
19835TIP3    H280997   1.710   1.749  44.526  0.7744 -1.7237 -0.4034
19836TIP3   OH280998   2.238   3.253  14.311 -0.6282 -0.1386 -0.2782
19836TIP3    H180999   2.277   3.201  14.240  0.7300  0.2755  0.1219
19836TIP3    H281000   2.212   3.188  14.376  1.8560 -0.3683  0.6119
19837TIP3   OH281001   3.226   0.572  39.820 -0.2968 -0.1375 -0.2263
19837TIP3    H181002   3.194   0.584  39.910 -3.2314 -1.0493 -1.0529
19837TIP3    H281003   3.226   0.477  39.807 -1.2538  0.0188 -1.5881
19838TIP3   OH281004   0.524   3.873   0.127  0.4431 -0.2351  0.2755
19838TIP3    H181005   0.471   3.917   0.192  0.1973 -0.4436  0.2199
19838TIP3    H281006   0.606   3.921   0.125 -0.0801  0.6665 -0.2989
19839TIP3   OH281007   3.855   3.625  45.713  0.6263 -0.6807  0.4113
19839TIP3    H181008   3.836   3.711  45.751 -0.4473 -1.5279  1.8652
19839TIP3    H281009   3.923   3.643  45.647  0.7412  1.2107  0.9825
19840TIP3   OH281010   0.879   4.011   2.552 -0.0493  0.7544 -0.0675
19840TIP3    H181011   0.796   3.965   2.547 -0.8893  2.0763  1.0470
19840TIP3    H281012   0.867   4.076   2.621  1.7861  1.2390 -0.1329
19841TIP3   OH281013   2.680   2.629  19.311  0.1584 -0.0872 -0.4045
19841TIP3    H181014   2.613   2.595  19.370  0.8752  0.1260  0.5710
19841TIP3    H281015   2.750   2.660  19.370  0.2353  1.5725 -1.3162
19842TIP3   OH281016   4.047   1.754   9.376 -0.2543  0.3003  0.1661
19842TIP3    H181017   4.069   1.796   9.293  0.0315 -1.3361 -0.6291
19842TIP3    H281018   4.043   1.660   9.355 -1.9839 -0.0081  1.6049
19843TIP3   OH281019   3.481   0.295  31.285  0.8871 -0.4450  0.5461
19843TIP3    H181020   3.464   0.341  31.203  2.2669 -0.9171 -0.0292
19843TIP3    H281021   3.395   0.259  31.310  0.2878  0.3822 -0.2539
19844TIP3   OH281022   0.552   3.639  30.148 -0.2997  0.5354  0.4361
19844TIP3    H181023   0.471   3.591  30.168  0.3525 -0.2694  1.2845
19844TIP3    H281024   0.573   3.615  30.058 -2.0109  2.2888 -0.4937
19845TIP3   OH281025   2.334   3.160  35.681  0.1101 -0.2778 -0.4229
19845TIP3    H181026   2.383   3.240  35.663 -1.2985  0.7802  0.2425
19845TIP3    H281027   2.323   3.159  35.776  0.0290 -1.2226 -0.4324
19846TIP3   OH281028   2.326   3.816  40.369 -0.9610 -0.3788  0.8398
19846TIP3    H181029   2.232   3.822  40.385 -1.1145  2.3605 -0.5294
19846TIP3    H281030   2.363   3.890  40.418 -0.0124  0.6802 -1.3457
19847TIP3   OH281031   1.080   3.149  11.919 -0.9193  0.3169  0.3946
19847TIP3    H181032   1.162   3.102  11.908 -1.6601 -0.6101 -1.5250
19847TIP3    H281033   1.021   3.085  11.960 -0.9966  0.6356  0.7875
19848TIP3   OH281034   0.106   3.761   0.472 -0.1419  0.2037 -0.1212
19848TIP3    H181035   0.181   3.797   0.424  0.5868 -1.2162 -0.1010
19848TIP3    H281036   0.119   3.667   0.470 -0.9690  0.0152  1.4554
19849TIP3   OH281037   0.317   0.390   4.698 -0.1617 -0.6205 -0.0197
19849TIP3    H181038   0.326   0.482   4.725  0.7188 -0.2492 -1.4800
19849TIP3    H281039   0.239   0.389   4.643  0.2144 -0.5992 -0.5604
19850TIP3   OH281040   0.459   0.712  15.416 -0.7647  0.8554 -0.0826
19850TIP3    H181041   0.536   0.671  15.456 -1.1036  1.5883  1.3904
19850TIP3    H281042   0.453   0.798  15.458 -0.3012  2.3243 -2.8187
19851TIP3   OH281043   3.281   3.110   2.689 -0.1760 -0.6230 -0.1007
19851TIP3    H181044   3.326   3.027   2.674 -0.4882 -0.5212 -1.7661
19851TIP3    H281045   3.350   3.170   2.717  0.3351 -1.0302 -0.4719
19852TIP3   OH281046   1.049   2.013  32.408 -0.3218  0.3415 -0.3559
19852TIP3    H181047   0.989   1.960  32.356  1.1650 -0.7259 -1.0194
19852TIP3    H281048   1.135   1.996  32.372  0.5451  1.0013  1.2839
19853TIP3   OH281049   1.851   0.423  39.825 -0.3693 -0.5883 -0.6918
19853TIP3    H181050   1.813   0.376  39.900  0.8587 -1.0357 -0.3299
19853TIP3    H281051   1.918   0.479  39.863 -1.1676  0.7900 -1.2362
19854TIP3   OH281052   0.308   1.381  36.603 -0.2997  0.3320 -0.3660
19854TIP3    H181053   0.277   1.436  36.530 -0.8503 -0.4105 -0.6968
19854TIP3    H281054   0.306   1.292  36.569 -0.5380 -0.0275  0.5541
19855TIP3   OH281055   1.587   2.059  34.859 -0.5443  0.5695  0.1218
19855TIP3    H181056   1.621   2.019  34.940  0.1739  1.2027  0.1432
19855TIP3    H281057   1.616   2.150  34.863  0.5021  0.3359 -1.3997
19856TIP3   OH281058   2.408   3.692  46.585 -0.2649  0.3397  0.4500
19856TIP3    H181059   2.432   3.706  46.676  0.3789  0.5213  0.2577
19856TIP3    H281060   2.316   3.667  46.588 -0.2112  0.2114  1.1578
19857TIP3   OH281061   3.929   2.690  10.139 -0.1803 -0.8794  0.7424
19857TIP3    H181062   3.897   2.766  10.186 -1.3075 -1.1896  0.4976
19857TIP3    H281063   3.963   2.632  10.207  2.2017  0.4875  0.8241
19858TIP3   OH281064   2.603   0.389  34.100 -0.7230  0.0799  0.4915
19858TIP3    H181065   2.558   0.464  34.139  0.1290  0.5305  0.6313
19858TIP3    H281066   2.612   0.327  34.173 -1.4381 -0.1789  0.3727
19859TIP3   OH281067   3.409   3.302  30.353 -0.5650  0.5605 -0.4386
19859TIP3    H181068   3.408   3.207  30.347 -1.7613  0.5588 -0.5442
19859TIP3    H281069   3.368   3.332  30.272 -2.0868  1.0652  0.4570
19860TIP3   OH281070   2.606   0.560  39.714 -0.1239 -0.1801  0.1029
19860TIP3    H181071   2.620   0.596  39.802 -0.0425 -1.5819  0.6930
19860TIP3    H281072   2.587   0.636  39.660 -2.0648  0.5851  1.7081
19861TIP3   OH281073   3.175   2.430   1.728 -0.0909 -0.0182 -0.2759
19861TIP3    H181074   3.265   2.403   1.712  0.8258  2.4583  0.1952
19861TIP3    H281075   3.156   2.399   1.816 -1.1753 -3.8783 -1.6655
19862TIP3   OH281076   2.142   4.108  36.539 -0.3299  0.2872  0.4861
19862TIP3    H181077   2.211   4.173  36.556  0.8514 -0.8205  0.0427
19862TIP3    H281078   2.143   4.096  36.444 -2.0733  1.2361  0.3177
19863TIP3   OH281079   1.674   2.096  46.433 -0.2955  0.0109 -0.0771
19863TIP3    H181080   1.632   2.043  46.500 -0.7874  2.0482  1.3183
19863TIP3    H281081   1.732   2.154  46.481  0.7949  0.2473 -1.6090
19864TIP3   OH281082   2.656   1.627  17.480  0.1659  0.6589  0.1345
19864TIP3    H181083   2.643   1.566  17.553 -0.2122  2.1130  1.3227
19864TIP3    H281084   2.567   1.652  17.453  0.2800 -0.2404 -1.2000
19865TIP3   OH281085   0.061   3.671  27.739  0.1823  0.1285 -0.1036
19865TIP3    H181086   0.069   3.741  27.804  1.1739 -0.4151  0.3866
19865TIP3    H281087  -0.018   3.624  27.764 -0.0977  0.6395 -0.0082
19866TIP3   OH281088   2.128   3.779   1.522  0.1896  0.0609  0.2030
19866TIP3    H181089   2.135   3.693   1.480 -1.8124  0.1678 -0.4596
19866TIP3    H281090   2.034   3.791   1.535  0.6344  0.2700  4.3215
19867TIP3   OH281091   0.839   2.084   8.808  0.1196 -0.4189 -0.0929
19867TIP3    H181092   0.753   2.088   8.765  1.4099  1.3874 -2.7190
19867TIP3    H281093   0.827   2.131   8.890 -1.4734 -0.5247 -0.2352
19868TIP3   OH281094   0.530   1.689  42.328  0.5118 -0.0238  0.3803
19868TIP3    H181095   0.623   1.665  42.322  0.5110  0.2544 -2.1379
19868TIP3    H281096   0.523   1.766  42.271 -1.6095 -1.3320 -1.2676
19869TIP3   OH281097   1.787   0.787  32.152 -0.3521 -0.6127  0.1641
19869TIP3    H181098   1.795   0.866  32.205  2.7407 -0.8558  0.2638
19869TIP3    H281099   1.788   0.818  32.062  1.4866 -0.4853  0.1863
19870TIP3   OH281100   4.108   0.565  11.188  0.6609  0.1183 -0.4352
19870TIP3    H181101   4.131   0.640  11.134 -0.3404 -0.4470 -1.6906
19870TIP3    H281102   4.049   0.601  11.255 -0.9138  0.2531 -1.8445
19871TIP3   OH281103   0.080   0.103  25.550  0.2666  0.1078 -0.4572
19871TIP3    H181104  -0.014   0.111  25.563 -0.0612 -1.0589 -1.9436
19871TIP3    H281105   0.097   0.143  25.465  0.8596 -1.0272 -0.8987
19872TIP3   OH281106   1.739   3.720  15.483  0.5183 -0.2136  0.1833
19872TIP3    H181107   1.781   3.795  15.441  0.3466 -0.0586  0.2879
19872TIP3    H281108   1.763   3.645  15.428  0.7599 -0.0938  0.1278
19873TIP3   OH281109   3.386   1.613   2.072 -0.1426  0.4322  0.4651
19873TIP3    H181110   3.334   1.574   2.141 -0.7249  0.5322  0.0905
19873TIP3    H281111   3.323   1.634   2.003  0.7390 -2.3718 -1.3818
19874TIP3   OH281112   0.407   3.027   2.337 -0.2919 -0.0562  0.5951
19874TIP3    H181113   0.318   2.994   2.351  0.2496 -2.1257 -0.4662
19874TIP3    H281114   0.461   2.979   2.400  0.0371  1.7912  1.8279
19875TIP3   OH281115   0.448   2.133   7.287  0.1939  0.2607 -0.0879
19875TIP3    H181116   0.391   2.208   7.306  0.7854  1.1037 -1.4920
19875TIP3    H281117   0.512   2.133   7.358 -0.4951  0.3704  0.5470
19876TIP3   OH281118   0.164   3.237  13.552 -0.1257  0.3224  0.1182
19876TIP3    H181119   0.153   3.307  13.488  0.4453  0.9143  0.6504
19876TIP3    H281120   0.147   3.157  13.503 -0.2719  0.8005 -0.6315
19877TIP3   OH281121   1.323   0.537  46.969  0.1279  0.6181 -0.4733
19877TIP3    H181122   1.376   0.560  46.892  2.4704 -2.0341  0.1696
19877TIP3    H281123   1.350   0.601  47.036  0.8674  0.6726 -0.8109
19878TIP3   OH281124   3.696   0.540  47.422  0.3124  0.7252  0.0116
19878TIP3    H181125   3.617   0.491  47.401 -0.1932  2.5556 -3.0292
19878TIP3    H281126   3.767   0.477  47.412 -0.4976 -0.0190 -1.3149
19879TIP3   OH281127   3.088   0.451   8.395  1.0739  0.1781  0.0988
19879TIP3    H181128   3.066   0.521   8.334  0.3109  1.1884  1.4623
19879TIP3    H281129   3.182   0.438   8.385  1.1038  0.9243 -0.6542
19880TIP3   OH281130   1.661   0.085  30.221 -0.4614 -0.0624 -0.2204
19880TIP3    H181131   1.654   0.007  30.165 -1.0931  0.3020 -0.6618
19880TIP3    H281132   1.743   0.127  30.194  0.0462 -0.7374  0.2411
19881TIP3   OH281133   0.882   1.033  39.969 -0.1099  0.3000  0.0372
19881TIP3    H181134   0.938   1.062  40.041 -0.1575  0.2970  0.0767
19881TIP3    H281135   0.793   1.039  40.004 -0.2216  1.3911 -0.3883
19882TIP3   OH281136   3.255   3.152  12.133  0.4354  0.4344 -0.2625
19882TIP3    H181137   3.276   3.177  12.223 -0.0227  2.4471 -0.6623
19882TIP3    H281138   3.199   3.223  12.101 -1.3210 -1.3648 -1.4192
19883TIP3   OH281139   1.867   0.943   9.549 -0.3928 -0.0113 -0.5345
19883TIP3    H181140   1.901   0.938   9.460  1.5454  1.6100  0.0340
19883TIP3    H281141   1.934   0.900   9.602 -1.0685 -0.1069  0.2579
19884TIP3   OH281142   1.365   3.254   7.134 -0.4034 -0.0054 -0.0264
19884TIP3    H181143   1.298   3.304   7.181 -0.1450  1.8095 -1.4840
19884TIP3    H281144   1.362   3.167   7.174 -3.9997 -0.1898 -0.3747
19885TIP3   OH281145   3.015   2.299  47.590  0.0618  0.0809  0.0610
19885TIP3    H181146   3.038   2.246  47.666 -1.2224  0.0676  0.4553
19885TIP3    H281147   2.958   2.368  47.624 -1.4694 -0.5898 -1.0229
19886TIP3   OH281148   1.846   0.921  15.051 -0.0671 -0.0207 -0.0999
19886TIP3    H181149   1.774   0.858  15.046  0.3801 -0.4997 -0.7201
19886TIP3    H281150   1.844   0.953  15.141  0.2157 -1.5593  0.4921
19887TIP3   OH281151   1.008   2.566  47.336 -0.1553 -0.3835 -0.1144
19887TIP3    H181152   0.967   2.599  47.256  0.2343  1.8939  0.5678
19887TIP3    H281153   0.937   2.559  47.399  0.2117  2.6212  0.7711
19888TIP3   OH281154   3.604   2.437  13.297  0.4538  0.3683 -0.0655
19888TIP3    H181155   3.575   2.524  13.325 -1.0495 -0.2081  0.2801
19888TIP3    H281156   3.683   2.420  13.348 -1.6989 -0.2790  3.3295
19889TIP3   OH281157   3.181   3.206  15.111 -0.8195  0.3560 -0.1631
19889TIP3    H181158   3.092   3.181  15.135 -0.8485  1.7452  1.3498
19889TIP3    H281159   3.191   3.295  15.144  1.0763  0.3026 -0.4553
19890TIP3   OH281160   1.466   0.638  37.305  0.4264  0.6650 -0.1727
19890TIP3    H181161   1.527   0.686  37.251  0.9880 -0.8731 -0.9730
19890TIP3    H281162   1.501   0.549  37.308 -0.8998  0.1311  0.7058
19891TIP3   OH281163   3.054   1.044  34.423 -0.4158 -0.4601 -0.4316
19891TIP3    H181164   3.078   1.055  34.515 -1.1216  1.5879 -0.4228
19891TIP3    H281165   3.032   0.952  34.414  1.0726 -1.0165  1.0849
19892TIP3   OH281166   1.151   1.976   1.273 -0.0805 -0.3191 -0.2393
19892TIP3    H181167   1.210   2.019   1.335  1.2841 -0.7798 -1.1696
19892TIP3    H281168   1.063   1.998   1.305  0.5232  2.4669 -0.2134
19893TIP3   OH281169   3.186   1.176   5.870 -0.3677  0.4686  0.0304
19893TIP3    H181170   3.103   1.146   5.834 -0.1301 -0.5149  0.2744
19893TIP3    H281171   3.162   1.222   5.951 -0.6363 -0.4123  0.4650
19894TIP3   OH281172   3.053   0.126  25.597  0.4297  0.2179  0.3651
19894TIP3    H181173   2.993   0.176  25.653  2.7358  0.4402  2.8193
19894TIP3    H281174   3.078   0.188  25.528 -0.0436  1.0284  0.8948
19895TIP3   OH281175   0.080   0.184  31.395  0.2687 -0.5159 -0.5126
19895TIP3    H181176  -0.011   0.162  31.372  0.5432 -0.3445 -1.8691
19895TIP3    H281177   0.080   0.192  31.490 -0.9185 -1.5098 -0.4120
19896TIP3   OH281178   2.820   1.250   7.574  0.0484 -0.6744 -0.4896
19896TIP3    H181179   2.834   1.309   7.500  0.5872  0.8794  0.7923
19896TIP3    H281180   2.728   1.226   7.568 -0.1679  0.2493 -1.0778
19897TIP3   OH281181   0.186   0.240  11.927  0.4919 -0.1747 -0.4422
19897TIP3    H181182   0.240   0.161  11.928 -1.8905 -1.9614 -1.4096
19897TIP3    H281183   0.216   0.288  11.849  0.0824 -1.6217 -1.5374
19898TIP3   OH281184   1.389   2.533  43.963  0.1783  0.0951  0.1038
19898TIP3    H181185   1.404   2.617  43.919 -0.1324 -0.8247 -1.8288
19898TIP3    H281186   1.294   2.526  43.971  0.1658 -0.4610 -0.5207
19899TIP3   OH281187   1.161   2.060   5.378  0.0007 -0.1960 -0.6868
19899TIP3    H181188   1.093   2.103   5.430  0.6029 -1.1039  0.8922
19899TIP3    H281189   1.115   2.031   5.299 -1.3788 -0.4804  0.1858
19900TIP3   OH281190   3.828   2.671   6.049 -0.4365  0.8231  0.3935
19900TIP3    H181191   3.834   2.663   6.145  0.9821 -1.0101  0.2068
19900TIP3    H281192   3.919   2.674   6.020 -0.7506 -1.4889 -1.0523
19901TIP3   OH281193   2.387   0.835   2.596  0.0664  0.0144  0.2864
19901TIP3    H181194   2.391   0.755   2.544  2.7767  1.3179 -1.7703
19901TIP3    H281195   2.320   0.888   2.553 -0.1614 -0.2780  0.2786
19902TIP3   OH281196   0.296   2.203  41.105  0.2336  0.1020  0.6986
19902TIP3    H181197   0.322   2.280  41.054 -1.4515  0.3032  0.0620
19902TIP3    H281198   0.241   2.239  41.175 -0.5560 -0.5065  0.4045
19903TIP3   OH281199   3.966   0.448  40.102 -0.3362 -1.0059 -0.2488
19903TIP3    H181200   3.924   0.429  40.186 -0.1850 -2.5565 -0.4875
19903TIP3    H281201   3.998   0.538  40.111 -1.8817 -0.5093  0.6722
19904TIP3   OH281202   1.243   0.304  26.910 -1.0482  0.7226  0.3161
19904TIP3    H181203   1.162   0.272  26.949 -0.9212 -1.6468 -1.1701
19904TIP3    H281204   1.257   0.248  26.833  0.7834  2.5888 -0.8082
19905TIP3   OH281205   3.688   3.843  40.572 -0.7287  0.3643 -0.5022
19905TIP3    H181206   3.638   3.776  40.526 -1.4147  0.4595  0.0994
19905TIP3    H281207   3.623   3.905  40.604 -0.3434  0.0029  1.0958
19906TIP3   OH281208   3.069   2.008  20.146  0.6715  0.4920  0.2662
19906TIP3    H181209   3.003   2.028  20.079  0.0831 -0.8430  0.4175
19906TIP3    H281210   3.039   2.055  20.224  1.4823  2.2412 -0.4400
19907TIP3   OH281211   2.325   0.309   5.931 -0.4390 -0.4114  0.1307
19907TIP3    H181212   2.394   0.336   5.871 -1.4301  1.2934 -0.3177
19907TIP3    H281213   2.244   0.330   5.885 -1.2547  1.3259  2.1524
19908TIP3   OH281214   0.812   4.042   9.403  0.2074  0.0169 -0.4986
19908TIP3    H181215   0.856   4.005   9.480  0.1927  1.0011 -0.0016
19908TIP3    H281216   0.790   3.965   9.350 -0.3050 -0.7342  0.7443
19909TIP3   OH281217   1.212   2.159  11.068  0.4234 -0.1044  0.3851
19909TIP3    H181218   1.279   2.106  11.025  1.1359 -0.5974  2.0308
19909TIP3    H281219   1.138   2.100  11.079 -0.8439  0.7623 -2.5182
19910TIP3   OH281220   0.930   2.102  36.501  0.1755  0.5686  0.7060
19910TIP3    H181221   0.880   2.118  36.581 -0.3441 -2.3720  1.1110
19910TIP3    H281222   0.999   2.168  36.501  0.2752  0.5797  3.6708
19911TIP3   OH281223   3.569   1.642  13.097  0.0047 -0.1916 -0.2642
19911TIP3    H181224   3.508   1.594  13.154  0.4787 -0.8403 -0.3023
19911TIP3    H281225   3.554   1.734  13.120 -1.3177 -0.2980 -0.6004
19912TIP3   OH281226   3.680   0.731  38.963 -0.0386 -0.4111 -0.6742
19912TIP3    H181227   3.687   0.761  39.054  0.1988  0.0890 -0.8520
19912TIP3    H281228   3.613   0.663  38.966 -0.0729 -0.3647 -0.1326
19913TIP3   OH281229   0.738   3.260  14.869 -0.1079  0.2551  0.5859
19913TIP3    H181230   0.769   3.350  14.884 -0.0831  0.4125 -0.3519
19913TIP3    H281231   0.784   3.208  14.935  3.1603  0.2881 -1.4058
19914TIP3   OH281232   2.379   3.575  33.557 -0.2305  0.2789  0.0252
19914TIP3    H181233   2.422   3.563  33.472 -2.7122  1.9388 -1.5805
19914TIP3    H281234   2.411   3.660  33.588  0.9698 -0.4941  1.0274
19915TIP3   OH281235   4.033   2.458  15.066  0.1411 -0.2962 -0.3235
19915TIP3    H181236   4.007   2.396  15.134 -0.7617 -0.0181 -0.4024
19915TIP3    H281237   4.113   2.420  15.029  0.9232 -0.2031  1.2015
19916TIP3   OH281238   2.126   2.541  41.649 -0.2359 -0.1428 -0.0239
19916TIP3    H181239   2.173   2.460  41.628 -0.6980 -0.2998 -0.4820
19916TIP3    H281240   2.151   2.601  41.579 -1.1424 -0.4060 -0.5933
19917TIP3   OH281241   0.801   1.022  33.836 -0.1984  0.0448  0.3763
19917TIP3    H181242   0.804   1.074  33.916  0.3814 -0.0869  0.4426
19917TIP3    H281243   0.742   1.071  33.779 -1.6200 -0.5068  1.3275
19918TIP3   OH281244   3.072   3.584  33.368 -0.3163 -0.6826 -0.5110
19918TIP3    H181245   3.094   3.537  33.287  0.3522 -1.7512  0.2573
19918TIP3    H281246   3.077   3.516  33.436 -0.0620  0.3599  0.5348
19919TIP3   OH281247   2.407   1.863  33.233  0.3855 -0.6035  0.2268
19919TIP3    H181248   2.434   1.786  33.282 -0.5783 -1.4191 -0.4745
19919TIP3    H281249   2.484   1.920  33.232  0.2829 -0.2137  3.2357
19920TIP3   OH281250   3.884   0.506  47.181  0.5089  0.2242  0.2639
19920TIP3    H181251   3.829   0.437  47.217  1.4775 -0.5838  0.2506
19920TIP3    H281252   3.825   0.580  47.169 -0.4477 -0.4347  0.7532
19921TIP3   OH281253   0.061   1.980  38.560  0.4176 -0.6190 -0.0686
19921TIP3    H181254   0.145   1.965  38.604 -0.2892  1.0123  2.0288
19921TIP3    H281255   0.024   1.893  38.547  1.1255 -1.2382  1.7902
19922TIP3   OH281256   2.637   1.824  34.837 -0.2944  0.7674 -0.2755
19922TIP3    H181257   2.554   1.804  34.793 -0.2741 -0.7814  0.3223
19922TIP3    H281258   2.611   1.844  34.927  0.0177 -0.3020  0.0601
19923TIP3   OH281259   3.051   1.962  12.606  0.1147 -0.4329  0.7483
19923TIP3    H181260   3.041   1.977  12.700  1.1551 -0.9113  0.9506
19923TIP3    H281261   3.002   1.881  12.589  1.9355 -1.7254  1.3690
19924TIP3   OH281262   0.775   3.063  14.638 -0.2135  0.1665  0.2600
19924TIP3    H181263   0.762   3.113  14.719  0.2910 -0.8490  0.9861
19924TIP3    H281264   0.785   3.130  14.570  1.4100  1.0770  1.3477
19925TIP3   OH281265   3.525   1.513   8.339  0.5407 -0.2010 -0.6524
19925TIP3    H181266   3.519   1.425   8.303  0.9189 -0.0427 -1.1247
19925TIP3    H281267   3.474   1.510   8.420  2.2142 -1.4049  0.4173
19926TIP3   OH281268   0.026   3.949  42.219  0.1903  0.0548  0.2706
19926TIP3    H181269   0.028   3.968  42.125 -1.2059 -0.0874  0.1947
19926TIP3    H281270   0.057   4.030  42.260 -3.0931  1.7051 -0.1637
19927TIP3   OH281271   0.478   2.934  41.282  0.1660 -0.5873 -0.1672
19927TIP3    H181272   0.448   2.963  41.368  0.6542 -0.5656  0.0030
19927TIP3    H281273   0.548   2.996  41.260 -2.0233  1.4298 -2.0370
19928TIP3   OH281274   2.566   1.648  11.203 -0.3693  0.1483  0.1779
19928TIP3    H181275   2.509   1.592  11.150 -0.7206  1.6280 -1.0695
19928TIP3    H281276   2.645   1.658  11.150  0.8319 -1.3106  1.5866
19929TIP3   OH281277   2.600   2.160  38.405 -0.0944  0.2916 -0.1944
19929TIP3    H181278   2.572   2.157  38.496  1.7173 -1.0746  0.3730
19929TIP3    H281279   2.675   2.220  38.405  0.7235 -0.6974 -0.5082
19930TIP3   OH281280   3.184   2.829  43.112 -0.5436 -0.4507 -0.3977
19930TIP3    H181281   3.177   2.854  43.205 -0.5390 -0.9218 -0.2673
19930TIP3    H281282   3.278   2.823  43.096 -0.5268  0.4017 -0.6422
19931TIP3   OH281283   0.856   2.971  13.164 -0.2619  1.0055 -0.3802
19931TIP3    H181284   0.833   3.004  13.077 -0.3325  1.3991 -0.2134
19931TIP3    H281285   0.773   2.945  13.203 -0.2388  0.9058 -0.3946
19932TIP3   OH281286   3.009   2.078   0.477 -0.0132 -0.5073  0.1494
19932TIP3    H181287   3.064   2.001   0.462  0.2400 -0.0796 -1.2544
19932TIP3    H281288   3.054   2.127   0.545  0.7383 -0.7406 -0.1720
19933TIP3   OH281289   4.022   3.028  11.633 -0.7444  0.7319  1.4129
19933TIP3    H181290   3.952   3.072  11.586  0.6944  0.9133 -0.6618
19933TIP3    H281291   4.103   3.058  11.592  0.4767 -1.1195  2.2814
19934TIP3   OH281292   2.355   1.665   6.861 -0.3382 -0.1558  0.0575
19934TIP3    H181293   2.292   1.726   6.898  0.8075  2.7808 -2.4175
19934TIP3    H281294   2.304   1.609   6.804 -0.9784  1.0710 -0.6132
19935TIP3   OH281295   1.696   0.079  39.169 -0.0803  0.4666  0.9646
19935TIP3    H181296   1.783   0.113  39.148 -0.2525  2.6125  3.2422
19935TIP3    H281297   1.636   0.136  39.121 -0.2865  1.5830  2.4776
19936TIP3   OH281298   1.180   1.113  13.971  0.1805  0.4200 -0.7804
19936TIP3    H181299   1.101   1.161  13.945 -0.5753  0.0141  0.6520
19936TIP3    H281300   1.159   1.021  13.953 -1.2872 -0.1894  3.0521
19937TIP3   OH281301   2.078   1.721   8.494  0.2084 -0.1337  0.1326
19937TIP3    H181302   2.119   1.642   8.530  0.4824 -0.0259  0.0627
19937TIP3    H281303   2.052   1.696   8.405  1.6538  0.2863 -0.4446
19938TIP3   OH281304   2.929   3.127  44.363  0.1795 -0.2646 -0.4834
19938TIP3    H181305   2.843   3.163  44.345 -0.3186 -0.1205  1.8457
19938TIP3    H281306   2.985   3.204  44.377  0.1777 -0.3637  0.0868
19939TIP3   OH281307   0.010   2.987  35.897 -0.2641 -0.5608  0.3252
19939TIP3    H181308   0.029   2.972  35.804 -1.1272 -1.4985  0.2853
19939TIP3    H281309   0.077   2.938  35.943  0.4861  0.3276  0.2244
19940TIP3   OH281310   0.853   3.644   7.443 -0.1979  0.0411  0.2543
19940TIP3    H181311   0.900   3.580   7.390  1.7630  0.6209  1.2028
19940TIP3    H281312   0.921   3.702   7.477 -1.6195  0.9918  1.6268
19941TIP3   OH281313   1.874   3.797  32.726  0.5110 -0.1587 -0.6049
19941TIP3    H181314   1.956   3.844  32.717  0.4854 -0.3575 -2.2716
19941TIP3    H281315   1.840   3.790  32.636 -1.7469  0.6576  0.1178
19942TIP3   OH281316   1.517   0.109  44.167 -0.0597 -0.3856 -0.6328
19942TIP3    H181317   1.581   0.120  44.097 -1.1081  1.7036 -1.3487
19942TIP3    H281318   1.543   0.173  44.233 -1.6151  0.8053 -1.1312
19943TIP3   OH281319   1.244   3.895  35.506 -0.3125  0.1698 -0.5198
19943TIP3    H181320   1.263   3.858  35.592 -0.5343 -0.4938 -0.7445
19943TIP3    H281321   1.255   3.821  35.445  1.1650  0.9321 -1.2315
19944TIP3   OH281322   2.456   3.042  45.446 -0.8377 -0.4588 -0.3472
19944TIP3    H181323   2.522   2.986  45.488 -1.0258 -0.8341 -0.5465
19944TIP3    H281324   2.506   3.114  45.408 -0.7376  0.3518  1.2462
19945TIP3   OH281325   3.834   2.842  16.170  0.2144  0.1472  0.4901
19945TIP3    H181326   3.842   2.877  16.082  0.0620  0.3467  0.5564
19945TIP3    H281327   3.852   2.916  16.228  0.0320  0.0832  0.6294
19946TIP3   OH281328   0.185   3.673   0.177  0.1867  0.0293  0.0211
19946TIP3    H181329   0.242   3.606   0.139 -0.3503 -1.3951  1.5685
19946TIP3    H281330   0.147   3.630   0.254 -0.0489  2.1925  1.1892
19947TIP3   OH281331   1.988   2.292  47.157  0.1493  0.4146 -0.4452
19947TIP3    H181332   1.922   2.358  47.138  0.5340  1.1588  0.7157
19947TIP3    H281333   2.051   2.336  47.215 -0.4846 -1.4142  1.7838
19948TIP3   OH281334   0.363   3.730  11.725  0.5765 -0.3850 -0.0715
19948TIP3    H181335   0.302   3.666  11.688  0.0936  0.0088  0.0191
19948TIP3    H281336   0.424   3.679  11.777 -0.9586 -0.6174  1.5892
19949TIP3   OH281337   0.824   2.844  31.769  0.2482 -0.5087 -0.2810
19949TIP3    H181338   0.734   2.818  31.749  0.1371 -0.0192 -0.4170
19949TIP3    H281339   0.872   2.831  31.687  0.1491 -0.0913 -0.4051
19950TIP3   OH281340   0.927   0.086  13.670 -0.1436  0.2131  0.3540
19950TIP3    H181341   0.841   0.045  13.672 -0.8134  1.5691  1.1353
19950TIP3    H281342   0.971   0.053  13.749 -0.6543  0.9022  0.9442
19951TIP3   OH281343   3.064   1.514   9.553 -0.0585  0.4544 -1.1851
19951TIP3    H181344   3.047   1.607   9.564  1.9802  0.7842 -0.2956
19951TIP3    H281345   3.055   1.477   9.641 -0.3025 -0.0857 -1.4291
19952TIP3   OH281346   1.385   0.695  11.927  0.2850 -0.2018 -0.5324
19952TIP3    H181347   1.324   0.623  11.913  1.7310 -1.0825 -2.8982
19952TIP3    H281348   1.439   0.667  12.001  0.9159 -1.6629 -1.5042
19953TIP3   OH281349   0.814   0.198  28.532 -0.0938  0.3286  0.5035
19953TIP3    H181350   0.781   0.287  28.529 -0.8452  0.0380 -0.0937
19953TIP3    H281351   0.887   0.197  28.469 -0.6029  0.3188 -0.0910
19954TIP3   OH281352   2.021   2.124   3.190 -0.4918 -0.5269  0.2916
19954TIP3    H181353   2.063   2.055   3.242 -1.5622 -1.1789  0.3159
19954TIP3    H281354   1.989   2.187   3.255  0.0299 -0.2554  0.2948
19955TIP3   OH281355   1.812   1.504   0.694 -0.0632  0.2208  0.1723
19955TIP3    H181356   1.827   1.597   0.705 -1.8207  0.7337 -1.1713
19955TIP3    H281357   1.753   1.498   0.618 -0.7479 -1.9047  0.7824
19956TIP3   OH281358   0.021   1.605   0.331 -0.8802  0.6412 -0.3434
19956TIP3    H181359   0.005   1.674   0.396  1.3954  0.3324  0.6450
19956TIP3    H281360   0.055   1.532   0.383  0.6704  0.2628 -1.8239
19957TIP3   OH281361   2.619   2.218  16.566 -0.9308 -0.2172 -0.1761
19957TIP3    H181362   2.701   2.266  16.576 -0.3554 -1.3723  0.8845
19957TIP3    H281363   2.622   2.151  16.635 -1.9487 -1.4297 -1.2747
19958TIP3   OH281364   3.934   1.434   5.223  0.2303  0.0358 -0.0593
19958TIP3    H181365   3.939   1.419   5.317 -0.9665 -0.7585 -0.0983
19958TIP3    H281366   3.844   1.464   5.208  0.3369 -0.0790 -0.9739
19959TIP3   OH281367   1.006   3.569  32.243 -0.0107 -0.1346 -0.1583
19959TIP3    H181368   1.096   3.589  32.268 -0.1392 -0.2992  0.4422
19959TIP3    H281369   0.987   3.629  32.171  0.3124  0.4386  0.2325
19960TIP3   OH281370   0.769   0.402  32.060  0.3788 -0.0391 -0.5528
19960TIP3    H181371   0.860   0.377  32.068  0.0099 -1.0471  0.7969
19960TIP3    H281372   0.770   0.476  31.999  2.3360  1.3443  1.0111
19961TIP3   OH281373   0.211   1.505  34.181  0.0504  0.4241  0.4455
19961TIP3    H181374   0.176   1.457  34.106  1.5663 -0.1863  0.0952
19961TIP3    H281375   0.178   1.594  34.170  0.5410  0.4326 -1.1745
19962TIP3   OH281376   3.745   3.893  34.322  0.0518  0.5032  0.1673
19962TIP3    H181377   3.821   3.863  34.273 -0.3978 -2.0942  0.9157
19962TIP3    H281378   3.671   3.875  34.265 -0.1551  1.3387  0.1620
19963TIP3   OH281379   0.494   1.402  44.955  0.0573 -0.5867 -0.9533
19963TIP3    H181380   0.534   1.404  44.868 -2.6518  1.0612 -2.3272
19963TIP3    H281381   0.419   1.462  44.947  1.2653  1.9065  3.3626
19964TIP3   OH281382   2.866   3.169  44.648 -0.0854 -0.1427  0.2082
19964TIP3    H181383   2.841   3.118  44.571 -0.3025  0.1311  0.0932
19964TIP3    H281384   2.786   3.216  44.673  0.3812  1.0072 -0.3710
19965TIP3   OH281385   1.365   1.811  16.324 -0.7546  0.4168  0.1133
19965TIP3    H181386   1.455   1.779  16.333 -0.3976  0.9733 -1.1409
19965TIP3    H281387   1.310   1.737  16.350  0.0555  0.2414  1.4118
19966TIP3   OH281388   1.955   3.797  29.712  0.1938 -0.5136  0.0297
19966TIP3    H181389   1.890   3.768  29.647  0.2311 -1.5432  0.4381
19966TIP3    H281390   1.978   3.718  29.760  0.6292  0.1279  0.9004
19967TIP3   OH281391   1.036   0.708  35.824  0.3496 -0.4220  0.2499
19967TIP3    H181392   1.056   0.663  35.742  2.9649  0.9701  0.0184
19967TIP3    H281393   1.040   0.801  35.802 -0.1348 -0.0235  1.7196
19968TIP3   OH281394   1.256   2.559  37.424  0.4897  0.2030 -0.9301
19968TIP3    H181395   1.166   2.562  37.392  0.4579  0.0336 -0.8578
19968TIP3    H281396   1.248   2.570  37.519  0.3316 -2.3950 -0.5726
19969TIP3   OH281397   1.196   1.157  12.146 -0.1426 -0.2856  0.0656
19969TIP3    H181398   1.101   1.149  12.143 -0.1146 -0.9366  0.6595
19969TIP3    H281399   1.220   1.127  12.234  0.5751  0.2344  0.0522
19970TIP3   OH281400   3.179   1.553  12.309  0.5067 -0.4340 -0.3746
19970TIP3    H181401   3.179   1.576  12.216  0.5639 -1.0344 -0.5240
19970TIP3    H281402   3.269   1.527  12.328  0.1600 -1.8593 -0.5464
19971TIP3   OH281403   0.250   3.485   2.076  0.2937  0.4098  0.2450
19971TIP3    H181404   0.201   3.493   2.157  0.5943  1.9023  0.2991
19971TIP3    H281405   0.332   3.442   2.101 -0.4013 -0.8993  0.3718
19972TIP3   OH281406   2.485   3.182  38.959 -0.0932  0.0070 -0.6213
19972TIP3    H181407   2.426   3.240  39.008 -1.6382 -1.8044 -0.2375
19972TIP3    H281408   2.454   3.186  38.869  0.1435  0.1766 -0.6968
19973TIP3   OH281409   0.885   2.645  47.096 -0.3338  0.3403 -0.2243
19973TIP3    H181410   0.820   2.590  47.051  0.1111 -0.6477  0.3236
19973TIP3    H281411   0.946   2.671  47.027 -1.0334  0.8924 -0.6536
19974TIP3   OH281412   3.641   2.858   2.212  0.4224  0.0699  0.2327
19974TIP3    H181413   3.638   2.859   2.116  1.4066 -0.7463  0.1833
19974TIP3    H281414   3.623   2.948   2.237 -1.0847  0.0675 -0.6670
19975TIP3   OH281415   2.084   2.197  41.637  0.4292  0.3496 -0.7151
19975TIP3    H181416   2.055   2.195  41.728 -0.2752  1.8986 -0.8749
19975TIP3    H281417   2.172   2.235  41.640  0.9330 -0.7985 -0.5786
19976TIP3   OH281418   2.164   0.345  12.303  0.0296 -0.6802 -0.2350
19976TIP3    H181419   2.187   0.369  12.213 -1.0733 -2.0605 -0.9149
19976TIP3    H281420   2.069   0.336  12.301 -0.1891  0.8069  1.4755
19977TIP3   OH281421   1.242   4.082  41.384  0.4981 -0.1416 -0.3143
19977TIP3    H181422   1.222   3.994  41.415  2.5437 -0.0560  1.5221
19977TIP3    H281423   1.188   4.140  41.438 -2.0833 -0.2183 -2.6130
19978TIP3   OH281424   0.302   1.736  15.337  0.1208 -0.1835 -0.3056
19978TIP3    H181425   0.385   1.714  15.379 -1.3942 -1.5031  2.2841
19978TIP3    H281426   0.310   1.702  15.248  3.0521  1.5884 -0.8453
19979TIP3   OH281427   0.038   0.412  39.882  0.3795 -0.4999  0.2308
19979TIP3    H181428  -0.053   0.401  39.853  0.0303  0.2712  0.9894
19979TIP3    H281429   0.032   0.416  39.978  0.9592  1.6105  0.2153
19980TIP3   OH281430   0.794   3.629  45.063  0.3594  0.2384  0.0840
19980TIP3    H181431   0.844   3.645  44.984  0.7977  0.4732  0.4071
19980TIP3    H281432   0.782   3.715  45.103  0.1124  0.1283  0.2562
19981TIP3   OH281433   2.255   2.284  44.488  0.2919 -0.1798  1.0274
19981TIP3    H181434   2.323   2.341  44.453 -0.8247  0.3896 -0.3177
19981TIP3    H281435   2.291   2.196  44.480 -0.3158 -0.2437 -2.8650
19982TIP3   OH281436   0.073   1.010   0.930  0.2291  0.1227 -0.3270
19982TIP3    H181437   0.105   0.959   0.856 -0.8602 -0.5066 -0.3905
19982TIP3    H281438  -0.014   0.974   0.948 -0.2556  1.4513  0.1182
19983TIP3   OH281439   2.406   3.008  34.436  0.2718  0.1415 -0.0250
19983TIP3    H181440   2.352   2.993  34.358 -0.9250 -1.7635  1.0773
19983TIP3    H281441   2.344   3.014  34.508  1.4069  0.4721  0.9623
19984TIP3   OH281442   4.084   1.968  37.275 -0.0127 -0.1385  0.9433
19984TIP3    H181443   4.132   2.044  37.242 -0.3130  0.2698  1.4177
19984TIP3    H281444   4.130   1.893  37.238 -0.7148  0.2902 -0.9411
19985TIP3   OH281445   2.011   1.111  14.085  0.5719  0.1814  0.2333
19985TIP3    H181446   1.951   1.038  14.099  1.8469 -1.2616 -1.3335
19985TIP3    H281447   1.959   1.190  14.100 -2.1841 -0.9077 -2.5487
19986TIP3   OH281448   2.615   3.638  36.872  0.1113  0.2023 -0.3317
19986TIP3    H181449   2.523   3.624  36.892  0.0865 -0.7912 -1.0565
19986TIP3    H281450   2.647   3.552  36.842  1.1931  0.5970 -0.3729
19987TIP3   OH281451   3.111   1.271  12.939 -0.4298  0.2902  0.1770
19987TIP3    H181452   3.153   1.257  13.024 -1.7871 -0.8233  0.7178
19987TIP3    H281453   3.023   1.302  12.961  0.3522  3.5888 -0.9461
19988TIP3   OH281454   2.623   3.306  37.967 -0.0473 -0.1619 -0.7144
19988TIP3    H181455   2.538   3.317  37.926 -0.3761 -0.0509 -0.0142
19988TIP3    H281456   2.620   3.361  38.045  0.8393  0.2164 -0.9265
19989TIP3   OH281457   0.409   0.212   2.607 -0.7534 -0.0759 -0.4993
19989TIP3    H181458   0.447   0.243   2.689 -0.7028 -4.2320  1.2999
19989TIP3    H281459   0.318   0.242   2.609 -0.8815 -0.5168  1.3408
19990TIP3   OH281460   1.440   1.866  11.884 -0.3106  0.4125  0.4426
19990TIP3    H181461   1.509   1.811  11.921 -1.0249  0.8132  2.5304
19990TIP3    H281462   1.437   1.843  11.792  1.9958 -0.2440  0.4862
19991TIP3   OH281463   0.636   2.588  31.917  0.1250 -0.2554  0.2399
19991TIP3    H181464   0.716   2.637  31.935 -0.3235 -0.1752  2.3624
19991TIP3    H281465   0.666   2.500  31.893  0.8818 -0.2737  1.1918
19992TIP3   OH281466   3.906   2.013  40.386 -0.1413 -0.0290  0.7845
19992TIP3    H181467   3.819   2.043  40.357  0.5105  0.1749 -1.0830
19992TIP3    H281468   3.952   2.094  40.410  0.4953  0.1830 -1.0530
19993TIP3   OH281469   1.486   2.040  42.362  0.1470 -0.0408 -0.1334
19993TIP3    H181470   1.554   1.972  42.357  0.1709  0.0080 -0.4702
19993TIP3    H281471   1.406   1.992  42.383  0.4703  0.0126  1.3376
19994TIP3   OH281472   0.685   4.092   4.582 -1.2332  0.2084 -0.1244
19994TIP3    H181473   0.688   4.187   4.577 -0.7150  0.2287  0.4495
19994TIP3    H281474   0.754   4.069   4.644 -0.9660 -0.5774 -0.6968
19995TIP3   OH281475   1.192   0.365  47.148 -0.1964  0.2839  0.1639
19995TIP3    H181476   1.127   0.434  47.161  0.4301  1.0401 -0.6204
19995TIP3    H281477   1.253   0.401  47.084  0.3519 -0.8613  0.0163
19996TIP3   OH281478   3.140   2.535   1.094  0.2888  0.5714 -0.2926
19996TIP3    H181479   3.225   2.518   1.134  0.9375  1.1636 -1.3663
19996TIP3    H281480   3.100   2.600   1.151  0.1452 -0.3914  0.7359
19997TIP3   OH281481   1.403   3.412  12.881  0.4345 -0.0160 -0.5633
19997TIP3    H181482   1.487   3.454  12.863  1.0557 -0.7651  0.4534
19997TIP3    H281483   1.399   3.339  12.819  0.5112  0.0566 -0.6540
19998TIP3   OH281484   2.103   0.636  10.930  0.3516 -0.3873  0.4002
19998TIP3    H181485   2.163   0.710  10.939  0.2406 -0.1214 -0.9338
19998TIP3    H281486   2.017   0.676  10.923  0.1411 -0.7189  0.9899
19999TIP3   OH281487   1.992   3.912   7.410  0.2084 -0.9339 -0.2595
19999TIP3    H181488   1.964   3.960   7.332 -2.3991 -0.5986  0.7538
19999TIP3    H281489   1.965   3.821   7.393 -0.1320 -0.9079  0.1209
20000TIP3   OH281490   2.516   2.553  22.094 -0.1170 -0.5484  0.6426
20000TIP3    H181491   2.463   2.475  22.078  0.4414 -0.6892 -0.6313
20000TIP3    H281492   2.581   2.525  22.159 -1.1004 -0.5884  1.6325
20001TIP3   OH281493   0.230   2.734  35.300  0.1844 -0.1372 -0.0679
20001TIP3    H181494   0.309   2.779  35.329  0.5912 -1.2793  0.6949
20001TIP3    H281495   0.256   2.642  35.296 -1.2681 -0.6046  0.7721
20002TIP3   OH281496   0.697   1.676  13.641 -0.2334  0.4945 -0.1265
20002TIP3    H181497   0.742   1.661  13.724  0.5659 -0.1985 -0.6609
20002TIP3    H281498   0.697   1.772  13.631  0.0482  0.5629  0.4659
20003TIP3   OH281499   0.535   3.161  31.008  0.2005 -0.2213  0.3963
20003TIP3    H181500   0.536   3.066  31.017 -0.1656 -0.3418 -0.6553
20003TIP3    H281501   0.605   3.192  31.065  0.6644 -1.1546  0.3438
20004TIP3   OH281502   1.668   2.364  15.676 -0.3344 -0.2390  0.3459
20004TIP3    H181503   1.686   2.360  15.770  0.3288  0.1452  0.2424
20004TIP3    H281504   1.600   2.431  15.667  1.5984  1.8160  0.3014
20005TIP3   OH281505   1.953   0.893   8.549  0.0760  0.2506  0.3029
20005TIP3    H181506   2.045   0.879   8.527 -0.1088 -0.5036  0.0095
20005TIP3    H281507   1.939   0.841   8.627  0.6272  2.6090  2.1088
20006TIP3   OH281508   0.094   1.260  32.115 -0.2468 -1.1501 -0.2941
20006TIP3    H181509   0.086   1.167  32.131  1.9968 -1.2828  0.3514
20006TIP3    H281510   0.054   1.302  32.191  1.9683 -1.6771  1.2471
20007TIP3   OH281511   3.109   0.580   7.103 -0.2064  0.3289 -0.1449
20007TIP3    H181512   3.073   0.621   7.182  1.8968 -0.0191  1.0679
20007TIP3    H281513   3.157   0.651   7.059 -0.8935  0.3826 -0.8203
20008TIP3   OH281514   0.295   1.738   5.748  0.3640 -0.2428  0.1906
20008TIP3    H181515   0.230   1.674   5.777 -0.4775  0.6705  0.3834
20008TIP3    H281516   0.325   1.779   5.830 -1.1241  1.4895 -0.0477
20009TIP3   OH281517   3.187   2.875   0.908 -0.0330 -0.1143 -0.2068
20009TIP3    H181518   3.181   2.969   0.892  0.4939 -0.2156 -1.0316
20009TIP3    H281519   3.267   2.865   0.960 -1.4893  0.1602  2.2929
20010TIP3   OH281520   0.846   0.328   6.852  0.1934  0.0329 -0.1599
20010TIP3    H181521   0.938   0.329   6.878  0.2986  0.0833 -0.5372
20010TIP3    H281522   0.830   0.417   6.819  0.5498 -0.5586 -2.0046
20011TIP3   OH281523   0.650   0.988  16.776 -0.3394 -0.3009  0.3265
20011TIP3    H181524   0.632   1.047  16.850 -1.9771 -0.4900  0.1329
20011TIP3    H281525   0.716   0.927  16.809 -1.6098 -0.8852  1.9465
20012TIP3   OH281526   0.841   1.401  18.282  0.2443 -0.4351  0.0851
20012TIP3    H181527   0.912   1.443  18.234  0.0356  0.2499  0.3674
20012TIP3    H281528   0.884   1.337  18.338  0.7188  0.5987  0.9116
20013TIP3   OH281529   0.799   1.789   8.801  0.1698  0.6906 -0.4051
20013TIP3    H181530   0.797   1.882   8.821 -0.8977  0.8817 -1.3057
20013TIP3    H281531   0.891   1.764   8.811  0.1375  1.3150  2.0858
20014TIP3   OH281532   0.201   3.782   8.766 -0.1586 -0.2333  0.2158
20014TIP3    H181533   0.266   3.809   8.831  1.3621 -0.9900 -0.9198
20014TIP3    H281534   0.138   3.729   8.815 -1.2338  2.2844  1.7869
20015TIP3   OH281535   3.500   2.049  14.092  0.3746 -0.3123  0.4415
20015TIP3    H181536   3.489   2.081  14.003 -2.4572  2.4249  1.5909
20015TIP3    H281537   3.425   1.991  14.106 -0.1774  0.6299  1.5230
20016TIP3   OH281538   0.965   0.994  32.572  0.1801  0.3454 -0.3289
20016TIP3    H181539   0.933   1.073  32.529  0.3117 -0.2957 -1.6378
20016TIP3    H281540   0.922   0.922  32.527  0.3013 -0.3545  0.6403
20017TIP3   OH281541   0.231   3.236  14.438  0.1478 -0.2432 -0.6459
20017TIP3    H181542   0.191   3.169  14.494  1.2515 -0.8500 -0.5464
20017TIP3    H281543   0.161   3.261  14.377 -0.8932 -0.0099  0.6002
20018TIP3   OH281544   3.301   0.712  45.826  0.1332 -0.4033  0.1130
20018TIP3    H181545   3.301   0.791  45.771  1.3928 -1.4932 -1.5301
20018TIP3    H281546   3.359   0.735  45.899 -1.1979  0.9064  0.8118
20019TIP3   OH281547   2.417   3.965  32.824 -0.1198  0.3208  0.1813
20019TIP3    H181548   2.381   3.879  32.844  1.2603 -0.3470 -0.0593
20019TIP3    H281549   2.441   4.001  32.909 -0.2940  0.2860  0.2460
20020TIP3   OH281550   2.162   0.805  39.513 -0.2959  0.1886  0.0041
20020TIP3    H181551   2.097   0.813  39.583 -0.9738 -1.4517 -0.3996
20020TIP3    H281552   2.195   0.894  39.501  0.0405  0.4835  2.5786
20021TIP3   OH281553   0.061   1.091  39.165  0.0301 -0.4299 -0.5300
20021TIP3    H181554  -0.015   1.077  39.109  0.9368  0.8669 -2.2042
20021TIP3    H281555   0.135   1.057  39.114  0.9640  1.3059 -0.4191
20022TIP3   OH281556   1.727   0.680   5.304  0.2589 -0.6209 -0.2196
20022TIP3    H181557   1.793   0.686   5.373 -0.6292  1.2171  0.5263
20022TIP3    H281558   1.752   0.749   5.242 -1.9180  1.4218  1.0096
20023TIP3   OH281559   0.626   3.099  45.938  0.4111  0.7182 -0.4609
20023TIP3    H181560   0.660   3.187  45.954 -0.1418  0.9689 -0.6556
20023TIP3    H281561   0.565   3.083  46.011 -0.7335  1.1463 -1.2936
20024TIP3   OH281562   1.635   2.465   0.644  0.1321 -0.0089 -0.2557
20024TIP3    H181563   1.679   2.410   0.709  4.3397 -0.8971 -3.4243
20024TIP3    H281564   1.652   2.555   0.672  1.2143 -0.3711  0.3017
20025TIP3   OH281565   1.779   0.580  41.873  0.3222 -0.3916  0.1603
20025TIP3    H181566   1.757   0.670  41.897  0.0855 -0.1459 -0.9314
20025TIP3    H281567   1.861   0.562  41.920 -0.1109  0.0541  1.1236
20026TIP3   OH281568   0.879   0.501   1.029  0.0507 -0.0583 -0.1055
20026TIP3    H181569   0.848   0.565   1.094 -0.5017  0.5957 -0.9876
20026TIP3    H281570   0.813   0.505   0.960  2.0242  1.2567 -2.0001
20027TIP3   OH281571   3.537   2.794  35.898  0.3748  0.7779  0.1224
20027TIP3    H181572   3.500   2.863  35.843 -2.5908  0.2618  1.2994
20027TIP3    H281573   3.504   2.712  35.859  1.7603  0.1296  0.2297
20028TIP3   OH281574   1.866   1.972   4.817 -0.3978 -0.1545 -0.5672
20028TIP3    H181575   1.845   2.022   4.738  0.8753  0.4765 -0.5456
20028TIP3    H281576   1.891   1.885   4.785 -2.0630 -0.6279 -0.6540
20029TIP3   OH281577   1.543   0.211  11.040 -0.2610 -0.5480 -0.3428
20029TIP3    H181578   1.542   0.189  11.133  1.3326 -1.2000 -0.4449
20029TIP3    H281579   1.477   0.154  11.002 -1.9198  0.7017  0.5527
20030TIP3   OH281580   2.797   1.599  19.727 -0.7369 -0.7966  0.2767
20030TIP3    H181581   2.759   1.684  19.748 -0.3024 -0.6504  0.4979
20030TIP3    H281582   2.777   1.544  19.802  0.9995 -0.2147  1.2288
20031TIP3   OH281583   1.178   1.978  36.426  0.3508  0.8844  0.0192
20031TIP3    H181584   1.168   1.907  36.363 -0.7647  1.2521 -0.2412
20031TIP3    H281585   1.098   1.975  36.479  1.1456  0.7433  1.2622
20032TIP3   OH281586   0.226   1.466   5.824  0.2861  1.0942  0.0248
20032TIP3    H181587   0.279   1.393   5.791  0.8598  1.8709 -0.8308
20032TIP3    H281588   0.259   1.482   5.912 -0.7866 -0.5551  0.7856
20033TIP3   OH281589   1.425   0.576   5.856 -0.3925  0.2573  0.1245
20033TIP3    H181590   1.518   0.556   5.867 -0.5342  0.0986  1.1168
20033TIP3    H281591   1.403   0.540   5.770  0.2198 -0.6306  0.3239
20034TIP3   OH281592   0.408   1.707  13.822 -0.0032 -0.3075 -0.2607
20034TIP3    H181593   0.460   1.786  13.835 -1.8247  0.6883  1.5825
20034TIP3    H281594   0.425   1.653  13.899 -2.3131  0.4723  0.8853
20035TIP3   OH281595   3.941   2.820  43.982 -0.1872 -0.1235  0.1448
20035TIP3    H181596   4.002   2.891  44.003  0.5257 -0.4900 -0.6025
20035TIP3    H281597   3.891   2.854  43.907  0.2368 -0.4405 -0.2900
20036TIP3   OH281598   0.892   2.281   3.341  0.1012  0.0401 -0.0996
20036TIP3    H181599   0.881   2.278   3.436  0.3678  0.7611 -0.0422
20036TIP3    H281600   0.987   2.280   3.327  0.0833 -1.6645 -0.4340
20037TIP3   OH281601   0.683   2.907  44.455  0.7629  0.3050  0.0009
20037TIP3    H181602   0.630   2.877  44.529 -0.8517  3.5301  0.3164
20037TIP3    H281603   0.756   2.953  44.495  0.2696  1.4425 -0.3681
20038TIP3   OH281604   2.639   3.636   3.425 -0.2141 -0.3442  0.0718
20038TIP3    H181605   2.553   3.598   3.406 -0.6393 -0.4400  1.9631
20038TIP3    H281606   2.698   3.594   3.363 -1.5899  0.0801 -1.6118
20039TIP3   OH281607   2.420   3.864   5.096  0.2674 -0.3735  0.2803
20039TIP3    H181608   2.513   3.867   5.118  0.4590  0.8902 -0.6477
20039TIP3    H281609   2.418   3.852   5.001 -0.5089  0.6911  0.1507
20040TIP3   OH281610   2.642   1.561  45.207  0.2232  0.7783 -0.3059
20040TIP3    H181611   2.681   1.569  45.294  0.4913 -0.6663 -0.2560
20040TIP3    H281612   2.639   1.466  45.191 -0.8351  0.9737 -1.4145
20041TIP3   OH281613   1.482   2.413   5.628 -0.8990  0.3035  0.1503
20041TIP3    H181614   1.460   2.413   5.535 -2.0537 -1.3748  0.3619
20041TIP3    H281615   1.415   2.468   5.669 -0.6571  0.6851  0.0273
20042TIP3   OH281616   0.787   0.416   1.392 -0.1467 -0.0291  0.0471
20042TIP3    H181617   0.804   0.323   1.376 -1.5901 -0.7236  2.1507
20042TIP3    H281618   0.692   0.422   1.400  0.0442  1.1602  2.1906
20043TIP3   OH281619   2.451   0.397  45.692 -0.1622 -0.3858  0.2227
20043TIP3    H181620   2.481   0.487  45.706  1.2725 -0.6891 -0.6710
20043TIP3    H281621   2.365   0.407  45.651 -0.3469  0.5603  0.8158
20044TIP3   OH281622   0.541   2.077  17.504  0.3263 -0.5323  0.4468
20044TIP3    H181623   0.504   2.062  17.591  0.2259  2.1608  0.9704
20044TIP3    H281624   0.621   2.126  17.521  1.4502 -1.8128 -0.9364
20045TIP3   OH281625   1.927   3.121  43.286 -0.3931  0.3569 -0.1510
20045TIP3    H181626   1.931   3.216  43.293 -1.7908  0.4616 -0.4009
20045TIP3    H281627   1.903   3.092  43.374 -0.2806  0.2610 -0.1525
20046TIP3   OH281628   3.063   3.351   0.720  0.1808  0.2947  0.4957
20046TIP3    H181629   3.137   3.408   0.701  1.1649 -2.1309 -5.0406
20046TIP3    H281630   2.996   3.376   0.656 -0.4981 -2.5363 -0.0706
20047TIP3   OH281631   3.619   3.411   1.198 -0.5194 -0.2147 -0.6332
20047TIP3    H181632   3.608   3.377   1.109 -0.9449 -2.6567  0.2945
20047TIP3    H281633   3.542   3.381   1.245  0.0888  0.3600  0.7710
20048TIP3   OH281634   3.238   3.621  38.544 -0.6232 -1.1343 -0.3815
20048TIP3    H181635   3.171   3.554  38.533 -0.6935 -1.0736 -0.3214
20048TIP3    H281636   3.196   3.690  38.596 -0.5637 -1.0286 -0.4698
20049TIP3   OH281637   0.666   0.707  37.056 -0.5344 -0.3589  1.0497
20049TIP3    H181638   0.728   0.650  37.011 -0.9329 -0.3153  0.4382
20049TIP3    H281639   0.713   0.791  37.065  0.2344 -0.8870  2.3734
20050TIP3   OH281640   2.482   3.954  45.090 -0.4560 -0.6554 -0.7967
20050TIP3    H181641   2.455   4.032  45.041  1.3498 -0.4774 -1.5727
20050TIP3    H281642   2.513   3.892  45.024  2.3579 -0.2803  0.0101
20051TIP3   OH281643   3.017   1.122   6.937  0.3263 -0.5159 -0.1572
20051TIP3    H181644   3.047   1.041   6.897  1.9734 -0.7956  1.5173
20051TIP3    H281645   3.092   1.180   6.935 -0.4242  0.4884 -0.0919
20052TIP3   OH281646   2.710   1.261  14.854 -0.0907 -0.0873  0.6800
20052TIP3    H181647   2.640   1.287  14.794 -1.7843 -1.9780  1.6813
20052TIP3    H281648   2.706   1.165  14.855 -0.7620 -0.1613  4.3924
20053TIP3   OH281649   0.653   3.464   5.700 -0.8986  0.2088  0.0903
20053TIP3    H181650   0.743   3.431   5.694 -1.1505 -0.5923  0.5190
20053TIP3    H281651   0.659   3.556   5.676  0.0989  0.2480  0.4636
20054TIP3   OH281652   1.802   3.919   8.930 -0.2070  0.2369 -0.1694
20054TIP3    H181653   1.791   3.927   9.025 -0.4528  0.7597 -0.2356
20054TIP3    H281654   1.716   3.895   8.897  0.1229 -1.0099 -0.1629
20055TIP3   OH281655   2.892   1.917   2.542 -0.1962  0.2870  0.4544
20055TIP3    H181656   2.849   1.954   2.619  0.2838 -0.1263  0.9318
20055TIP3    H281657   2.854   1.964   2.468 -0.3791  0.9627  0.9677
20056TIP3   OH281658   2.118   3.806  10.595 -0.0168 -0.8376  0.3397
20056TIP3    H181659   2.154   3.740  10.535 -1.4179 -1.2671 -0.0487
20056TIP3    H281660   2.196   3.844  10.637  1.1367  0.5633 -2.8054
20057TIP3   OH281661   0.832   1.280  39.288  0.2516 -0.3959  0.2242
20057TIP3    H181662   0.926   1.295  39.276  0.0094  0.8160 -0.2998
20057TIP3    H281663   0.818   1.292  39.381  0.2896  1.5610  0.0129
20058TIP3   OH281664   0.866   2.057   0.110  0.4064 -0.3864  0.0824
20058TIP3    H181665   0.884   1.967   0.137  1.4396 -0.2228 -0.0167
20058TIP3    H281666   0.775   2.073   0.137 -0.4246 -2.0542 -1.5356
20059TIP3   OH281667   0.332   3.751  39.584  0.2863 -0.0690  0.6530
20059TIP3    H181668   0.354   3.820  39.647  0.3622  0.8110 -0.2915
20059TIP3    H281669   0.335   3.796  39.499 -2.5587 -0.4984  0.2175
20060TIP3   OH281670   1.025   3.405  41.995 -0.0384 -0.0907 -0.2406
20060TIP3    H181671   1.078   3.452  42.060 -0.9169 -0.7750  1.0132
20060TIP3    H281672   0.935   3.430  42.016 -0.3552 -0.5256 -1.0512
20061TIP3   OH281673   2.200   3.839  39.700  0.3239  0.1325 -0.1119
20061TIP3    H181674   2.194   3.895  39.622 -2.2702  0.1118 -0.0107
20061TIP3    H281675   2.200   3.900  39.774  1.7184  0.1094 -0.0685
20062TIP3   OH281676   3.215   2.741  15.327 -0.1979 -0.0385 -0.2920
20062TIP3    H181677   3.127   2.766  15.299 -0.3795  0.6503  0.8351
20062TIP3    H281678   3.260   2.824  15.344  0.5527 -0.3904 -0.4802
20063TIP3   OH281679   3.322   2.225  16.896 -0.9067 -0.0166  0.5286
20063TIP3    H181680   3.252   2.262  16.951 -2.2315  1.3763 -1.8878
20063TIP3    H281681   3.400   2.276  16.918 -1.8725  1.8718 -0.1547
20064TIP3   OH281682   0.286   3.387  37.685 -0.0801  0.8834 -0.2166
20064TIP3    H181683   0.226   3.344  37.746  0.5490 -1.0371 -0.8653
20064TIP3    H281684   0.327   3.456  37.737 -1.2148  0.7697  0.8740
20065TIP3   OH281685   1.801   2.705  10.992  0.1584 -0.7615  0.5080
20065TIP3    H181686   1.734   2.743  11.050  0.7422  0.0344  0.6710
20065TIP3    H281687   1.817   2.773  10.926  0.1948 -1.2862 -0.0272
20066TIP3   OH281688   1.739   1.267  45.325  0.0080  0.6280 -0.3774
20066TIP3    H181689   1.821   1.303  45.292 -0.2156  0.7380 -0.8216
20066TIP3    H281690   1.674   1.335  45.307 -0.1572  0.5972  0.0907
20067TIP3   OH281691   2.720   0.286  14.973  0.5349 -0.5597 -0.4613
20067TIP3    H181692   2.718   0.356  14.907 -2.2696 -0.0849  0.0218
20067TIP3    H281693   2.807   0.294  15.013  0.7771  1.8287 -1.2853
20068TIP3   OH281694   1.201   0.669   9.040  0.4224 -0.8667 -0.1439
20068TIP3    H181695   1.113   0.665   9.076  0.6235  0.8809  0.6451
20068TIP3    H281696   1.231   0.759   9.058  1.4019 -0.5948 -2.6750
20069TIP3   OH281697   2.332   0.916  31.363  0.3385  0.1705 -0.3465
20069TIP3    H181698   2.342   0.929  31.458  2.3267 -1.4059 -0.2593
20069TIP3    H281699   2.255   0.859  31.355  0.6427 -0.3746  0.4223
20070TIP3   OH281700   1.394   0.321  44.881  0.3394  0.4203  0.1880
20070TIP3    H181701   1.315   0.270  44.900  0.4411  0.3396  0.3976
20070TIP3    H281702   1.389   0.339  44.787 -1.5714  3.0879  0.6833
20071TIP3   OH281703   2.421   3.021  33.849 -0.2611  0.6693 -0.6238
20071TIP3    H181704   2.490   3.030  33.915 -1.6812 -0.2559  1.1026
20071TIP3    H281705   2.373   3.104  33.852  0.1984  0.9530 -1.1251
20072TIP3   OH281706   2.878   3.357  38.178  0.1080  0.3801  0.9729
20072TIP3    H181707   2.793   3.401  38.179 -0.7517 -0.7581 -2.9961
20072TIP3    H281708   2.856   3.264  38.172  1.4407  0.1653 -2.3011
20073TIP3   OH281709   2.621   2.457   7.631  0.2310  0.0370  0.8129
20073TIP3    H181710   2.668   2.530   7.673 -0.4996  1.3869 -0.6216
20073TIP3    H281711   2.675   2.434   7.556 -0.6253  0.5909  0.0108
20074TIP3   OH281712   0.604   1.028  42.337 -0.0379 -0.2501  0.2881
20074TIP3    H181713   0.565   0.966  42.276 -0.2701 -0.5636  0.7523
20074TIP3    H281714   0.695   1.035  42.310 -0.5261  0.9663 -1.2001
20075TIP3   OH281715   1.974   1.439   5.247 -0.3246 -0.0720  0.0172
20075TIP3    H181716   1.934   1.381   5.182 -1.3903  0.7947 -0.1301
20075TIP3    H281717   1.965   1.527   5.209  0.6704  0.2592  0.5298
20076TIP3   OH281718   3.059   0.881   9.294 -0.0269 -0.1310  0.0646
20076TIP3    H181719   3.069   0.966   9.249  0.1725 -0.1866  0.0034
20076TIP3    H281720   2.985   0.894   9.353 -1.7290 -0.6835 -1.8016
20077TIP3   OH281721   4.067   0.719  37.099  0.1579 -0.1346 -0.3883
20077TIP3    H181722   4.046   0.807  37.067  0.1307 -0.1872 -0.5145
20077TIP3    H281723   3.985   0.670  37.090 -0.0887  0.0803  0.5478
20078TIP3   OH281724   3.870   3.789   1.159 -0.0089  0.1382  0.5340
20078TIP3    H181725   3.897   3.794   1.067 -0.5655 -0.6569  0.3253
20078TIP3    H281726   3.914   3.864   1.200  1.6849 -0.4973 -0.0026
20079TIP3   OH281727   0.041   2.390  33.248 -0.1402 -0.3599  0.2950
20079TIP3    H181728  -0.031   2.331  33.223  0.8165 -2.2409  1.7283
20079TIP3    H281729   0.110   2.372  33.184  0.3632 -1.2888  1.0648
20080TIP3   OH281730   4.011   3.451   3.632  0.3746  0.2769  0.4678
20080TIP3    H181731   4.012   3.504   3.712  1.6106 -1.3808  1.6255
20080TIP3    H281732   3.930   3.475   3.588 -0.0554  1.6626  1.9260
20081TIP3   OH281733   2.315   1.383  40.706 -0.1001 -0.0063  0.1356
20081TIP3    H181734   2.334   1.458  40.762  0.4059 -2.0517  2.9289
20081TIP3    H281735   2.400   1.343  40.689 -0.5114 -1.0159  0.3606
20082TIP3   OH281736   1.924   0.994   2.476 -0.1310 -0.4495  0.0772
20082TIP3    H181737   1.906   0.900   2.472 -1.0105 -0.2582 -0.9317
20082TIP3    H281738   2.018   1.000   2.490  0.2615 -1.4956 -1.7973
20083TIP3   OH281739   2.993   2.852  41.027  0.0070 -0.1003  0.2347
20083TIP3    H181740   2.918   2.793  41.013  0.0925  0.1350 -1.3990
20083TIP3    H281741   3.069   2.800  41.002  0.1665  0.4011 -0.3394
20084TIP3   OH281742   3.461   2.018  46.353 -0.2406  0.1748  0.5246
20084TIP3    H181743   3.407   2.067  46.415 -1.5263 -1.1977  0.5346
20084TIP3    H281744   3.447   1.926  46.376  1.2278 -0.2713 -0.2193
20085TIP3   OH281745   3.143   1.244  16.076  0.9456  0.1865 -0.2359
20085TIP3    H181746   3.236   1.238  16.054  1.2818  0.8874  0.9004
20085TIP3    H281747   3.135   1.194  16.157  0.1170 -0.7315 -0.8643
20086TIP3   OH281748   2.877   3.142  30.076 -0.0437 -0.0311  0.5991
20086TIP3    H181749   2.815   3.086  30.030  1.8025 -1.7333  0.0140
20086TIP3    H281750   2.929   3.182  30.006  0.0952  0.6868  1.0988
20087TIP3   OH281751   2.972   1.428   7.369 -0.2170  0.3790  0.4772
20087TIP3    H181752   2.978   1.523   7.359 -0.1052  0.3259  0.0165
20087TIP3    H281753   3.060   1.401   7.394  0.1902  0.2155 -1.0214
20088TIP3   OH281754   2.828   0.024  13.958  0.1200  0.4175 -0.0166
20088TIP3    H181755   2.799   0.004  13.869 -2.4398  0.5730  0.6985
20088TIP3    H281756   2.837  -0.062  14.000  1.0120  0.3582 -0.3077
20089TIP3   OH281757   0.755   0.694  24.800 -0.1610 -0.6707  0.5004
20089TIP3    H181758   0.830   0.749  24.825  0.1439 -0.9693  0.2422
20089TIP3    H281759   0.793   0.624  24.748 -0.3864 -1.7778  1.7624
20090TIP3   OH281760   4.096   1.642  14.461  0.3635 -0.1409  0.6546
20090TIP3    H181761   4.050   1.622  14.543  0.9069  1.7551  1.4781
20090TIP3    H281762   4.181   1.599  14.469  0.6751  0.6099  1.3956
20091TIP3   OH281763   0.783   2.713  45.580 -1.0146 -0.1605  0.3568
20091TIP3    H181764   0.843   2.656  45.533  0.6866  0.6948  1.4173
20091TIP3    H281765   0.766   2.785  45.519 -0.2032  0.0666  0.3879
20092TIP3   OH281766   3.641   2.978   4.695 -0.1220  0.2892 -0.3956
20092TIP3    H181767   3.609   3.068   4.687  0.9376  0.5943 -1.5577
20092TIP3    H281768   3.734   2.984   4.676  0.0691 -0.9941  0.0381
20093TIP3   OH281769   1.254   4.026  10.072 -0.5134  0.3512 -0.2116
20093TIP3    H181770   1.174   4.037  10.123  0.7653  0.7154  1.8453
20093TIP3    H281771   1.257   4.103  10.015 -1.3844  0.5642  0.0099
20094TIP3   OH281772   1.146   3.706  12.628 -0.0472 -0.4511  0.1289
20094TIP3    H181773   1.233   3.725  12.664  0.5845 -0.6178 -1.2262
20094TIP3    H281774   1.158   3.712  12.533 -0.6508 -4.0054 -0.3052
20095TIP3   OH281775   3.925   0.402  45.852 -0.3313 -0.1262 -0.3636
20095TIP3    H181776   3.929   0.374  45.944  0.1941 -0.3419 -0.4482
20095TIP3    H281777   3.956   0.493  45.853 -1.1477  0.1543 -0.2129
20096TIP3   OH281778   0.625   3.297  39.617  0.1751  0.5797 -0.5276
20096TIP3    H181779   0.634   3.212  39.576  0.1205  0.0671  0.4918
20096TIP3    H281780   0.695   3.300  39.682 -2.6646 -0.7641  2.9204
20097TIP3   OH281781   0.374   3.786  47.396 -0.1911 -0.4615 -0.8759
20097TIP3    H181782   0.420   3.828  47.469 -0.4662 -0.8361 -0.4824
20097TIP3    H281783   0.332   3.710  47.435 -3.4247  1.2674 -0.5873
20098TIP3   OH281784   3.701   3.346  35.332 -0.3409 -0.8147  0.3943
20098TIP3    H181785   3.632   3.393  35.285  0.7104  0.0486 -0.3335
20098TIP3    H281786   3.749   3.414  35.379  1.1445 -1.1408 -0.5952
20099TIP3   OH281787   3.865   3.241  11.442  0.3108 -0.9929 -0.4515
20099TIP3    H181788   3.804   3.194  11.500  1.1926 -2.1284 -0.4023
20099TIP3    H281789   3.814   3.315  11.409  0.1717  0.6131  2.9015
20100TIP3   OH281790   2.024   1.423  41.370  0.2284  0.1526  0.0891
20100TIP3    H181791   1.947   1.479  41.383  0.1851  0.2912 -0.7082
20100TIP3    H281792   1.988   1.339  41.341  0.2379 -0.5886  2.0661
20101TIP3   OH281793   3.328   3.291  35.394  0.3992 -0.0734 -0.0831
20101TIP3    H181794   3.249   3.344  35.403 -1.5113 -2.7996  0.3684
20101TIP3    H281795   3.361   3.283  35.484  0.3401 -0.1482 -0.0687
20102TIP3   OH281796   0.006   0.222  34.736  0.0968 -0.3237  0.1630
20102TIP3    H181797   0.000   0.127  34.737 -0.4668 -0.2995  2.0274
20102TIP3    H281798  -0.045   0.248  34.659 -1.2302 -1.4530  0.6319
20103TIP3   OH281799   3.981   1.323  31.946 -0.1909 -0.2639 -0.1740
20103TIP3    H181800   4.038   1.329  32.023 -0.9324 -0.1412  0.3705
20103TIP3    H281801   3.986   1.411  31.907  1.0517 -0.6279 -0.9192
20104TIP3   OH281802   0.198   1.837  41.729  0.3525 -0.4366  0.3769
20104TIP3    H181803   0.113   1.793  41.740  0.7015 -1.3564 -0.4429
20104TIP3    H281804   0.243   1.823  41.813 -0.7677  1.1681  1.3021
20105TIP3   OH281805   0.320   3.691  25.739 -0.3237  0.1616 -0.4732
20105TIP3    H181806   0.355   3.626  25.679  0.9034  0.5891 -0.2341
20105TIP3    H281807   0.282   3.758  25.683 -0.1573  0.0285 -0.7456
20106TIP3   OH281808   0.888   2.641  31.948  0.3005 -0.7407  0.9826
20106TIP3    H181809   0.908   2.683  32.032  0.8928  1.3736 -0.1374
20106TIP3    H281810   0.912   2.707  31.883  0.6043 -2.6143 -0.8938
20107TIP3   OH281811   0.532   2.603   8.308 -0.5325 -0.3899 -0.2112
20107TIP3    H181812   0.615   2.558   8.323  0.1055  0.2973 -1.5758
20107TIP3    H281813   0.516   2.652   8.389  1.0366  0.4600 -0.3838
20108TIP3   OH281814   1.949   1.877  13.942 -0.2089  0.0032 -0.4871
20108TIP3    H181815   1.962   1.860  14.035 -0.0555  1.2664 -0.2624
20108TIP3    H281816   2.010   1.819  13.898 -0.5116 -0.8340  0.1812
20109TIP3   OH281817   0.429   3.624   3.252  0.4198  0.2772 -0.2798
20109TIP3    H181818   0.346   3.672   3.246  0.3453  0.1711 -0.1056
20109TIP3    H281819   0.403   3.532   3.258  0.4402  0.3534  2.0085
20110TIP3   OH281820   0.233   2.344  44.840  0.2262 -0.0825  0.3116
20110TIP3    H181821   0.258   2.296  44.919 -0.6132 -0.3808  0.4022
20110TIP3    H281822   0.214   2.433  44.871 -1.9867 -0.6752  0.7848
20111TIP3   OH281823   2.475   2.126   4.586  0.3386  0.5878  0.5846
20111TIP3    H181824   2.478   2.036   4.555  1.2022  0.0719  2.0863
20111TIP3    H281825   2.523   2.176   4.519  0.3571 -0.1443  0.0426
20112TIP3   OH281826   0.753   2.417  20.098 -0.0737  0.2371 -0.4854
20112TIP3    H181827   0.792   2.480  20.159  2.1307  0.0729 -1.6119
20112TIP3    H281828   0.665   2.451  20.081  0.6401  2.4232 -0.2062
20113TIP3   OH281829   1.754   3.639  47.325  0.3325 -0.5770 -0.1892
20113TIP3    H181830   1.805   3.584  47.266  0.6540  0.7390 -1.1965
20113TIP3    H281831   1.731   3.582  47.398 -0.4056 -2.3551 -1.7585
20114TIP3   OH281832   0.041   0.836   1.210  0.0769  0.3995 -0.3769
20114TIP3    H181833  -0.006   0.898   1.154 -2.0059 -0.3117  0.4781
20114TIP3    H281834   0.027   0.751   1.168 -0.1310  0.0699  0.3494
20115TIP3   OH281835   3.529   3.455  39.976 -0.6605  0.2511 -0.4637
20115TIP3    H181836   3.575   3.393  39.920 -1.4890 -1.0601  0.2523
20115TIP3    H281837   3.573   3.538  39.961  0.0713 -0.3623 -1.9439
20116TIP3   OH281838   3.599   2.188  41.621 -0.0770 -0.3013 -0.3410
20116TIP3    H181839   3.596   2.210  41.528 -0.0724  1.8105  0.1141
20116TIP3    H281840   3.692   2.188  41.643 -0.1226  0.1693 -0.1368
20117TIP3   OH281841   2.726   3.415   7.010 -0.3659  0.2386  0.6783
20117TIP3    H181842   2.807   3.366   7.003 -0.5570 -0.4920  2.7889
20117TIP3    H281843   2.658   3.355   6.978 -0.1931  0.5882 -0.3965
20118TIP3   OH281844   0.806   1.385  16.241 -0.6460 -0.0654 -0.6897
20118TIP3    H181845   0.774   1.295  16.233 -1.4398 -0.0162  1.2689
20118TIP3    H281846   0.726   1.438  16.247 -0.2190  0.4473  0.8439
20119TIP3   OH281847   0.491   0.877   7.271  0.2993 -0.0778  0.0562
20119TIP3    H181848   0.473   0.817   7.198  0.6702  1.3335 -1.2352
20119TIP3    H281849   0.445   0.837   7.345  0.8520 -2.1665 -0.6336
20120TIP3   OH281850   1.356   1.560  33.605 -0.2103  0.0858  0.1254
20120TIP3    H181851   1.395   1.642  33.637  0.3174  0.1261 -0.5957
20120TIP3    H281852   1.430   1.508  33.575 -0.6430 -0.1735 -0.5100
20121TIP3   OH281853   2.187   3.656  37.680 -0.1609 -0.5468  0.0063
20121TIP3    H181854   2.253   3.725  37.671 -0.1271 -0.6093 -0.2308
20121TIP3    H281855   2.142   3.676  37.763 -1.3647  0.8028 -0.9245
20122TIP3   OH281856   0.156   3.161  33.547  0.1540 -0.4157  0.8661
20122TIP3    H181857   0.183   3.229  33.486  1.3674  0.1134  1.9234
20122TIP3    H281858   0.068   3.186  33.575  0.3157  0.3501  0.7092
20123TIP3   OH281859   1.005   3.717   2.855 -0.4829 -0.3198  0.0976
20123TIP3    H181860   0.969   3.704   2.767 -0.8096  1.6698 -0.0961
20123TIP3    H281861   1.013   3.812   2.864  0.9081 -0.5536  1.6933
20124TIP3   OH281862   1.752   0.565   3.123  0.0789  0.0336  0.5906
20124TIP3    H181863   1.803   0.644   3.138 -1.9704  1.8134 -1.1736
20124TIP3    H281864   1.781   0.505   3.192  0.9486  2.6735  2.7093
20125TIP3   OH281865   1.881   3.693  13.556 -0.1408 -0.2202 -0.3079
20125TIP3    H181866   1.864   3.690  13.462 -0.8635 -0.1653 -0.1867
20125TIP3    H281867   1.860   3.783  13.582  1.7210  0.2712 -0.3846
20126TIP3   OH281868   2.492   3.992  36.032  0.3898 -0.8084 -0.4318
20126TIP3    H181869   2.549   3.940  35.974 -0.8078 -0.4553 -2.0109
20126TIP3    H281870   2.517   4.083  36.013 -0.0477 -0.6899 -0.4358
20127TIP3   OH281871   0.810   0.640  38.037 -0.3628  0.3150 -0.3574
20127TIP3    H181872   0.790   0.733  38.046  0.9030  0.4608  1.4965
20127TIP3    H281873   0.844   0.614  38.123  0.0409 -1.6802 -1.0642
20128TIP3   OH281874   2.273   1.465  13.786 -0.3594 -0.2777 -0.0288
20128TIP3    H181875   2.185   1.474  13.824 -1.1902 -2.9216 -1.0188
20128TIP3    H281876   2.290   1.371  13.791  2.0391  0.0720 -0.7468
20129TIP3   OH281877   2.836   3.979   4.140 -0.3529 -0.3029  0.2285
20129TIP3    H181878   2.780   4.056   4.152 -0.2932 -0.1235 -0.5878
20129TIP3    H281879   2.779   3.913   4.100 -0.5031 -0.8310  1.2612
20130TIP3   OH281880   1.212   3.410  37.242 -0.7129 -0.1820 -0.7152
20130TIP3    H181881   1.126   3.451  37.252 -0.9654 -0.2371 -2.3130
20130TIP3    H281882   1.193   3.322  37.209 -0.0383  0.2679 -2.4139
20131TIP3   OH281883   0.021   1.770  15.380 -0.5576 -0.3536 -0.1522
20131TIP3    H181884   0.116   1.773  15.368 -0.1523 -1.1962  2.1722
20131TIP3    H281885   0.006   1.687  15.426 -2.2432  0.3872  0.7327
20132TIP3   OH281886   1.031   1.245   7.457  0.0338  0.0479 -0.4527
20132TIP3    H181887   1.117   1.223   7.421 -0.3570 -0.0501 -1.3383
20132TIP3    H281888   1.033   1.340   7.469  0.1230  0.0931 -0.8391
20133TIP3   OH281889   2.130   1.389   1.670 -0.3784  0.2749  0.0219
20133TIP3    H181890   2.190   1.322   1.637  0.3426  1.1774 -0.5615
20133TIP3    H281891   2.050   1.376   1.619 -0.8131 -1.1189  0.9963
20134TIP3   OH281892   3.196   1.373  36.292 -0.5559  0.1679  0.7491
20134TIP3    H181893   3.144   1.430  36.348 -2.8797 -1.3611  0.2978
20134TIP3    H281894   3.227   1.303  36.350 -1.6599 -0.5779  0.4735
20135TIP3   OH281895   3.922   0.638  39.289 -0.1058  0.7213 -0.3924
20135TIP3    H181896   3.879   0.713  39.250  0.2728 -0.9520 -4.4699
20135TIP3    H281897   4.016   0.655  39.280  0.1354  1.3670  2.3199
20136TIP3   OH281898   1.665   0.291   6.591 -0.0858  0.2707  0.3379
20136TIP3    H181899   1.714   0.360   6.636 -1.1032  0.6282  0.9100
20136TIP3    H281900   1.580   0.289   6.634 -0.0304 -1.4503  0.4192
20137TIP3   OH281901   1.475   1.119  36.459 -0.3009  0.9327 -0.3671
20137TIP3    H181902   1.389   1.096  36.494  0.3084 -1.3064 -0.1946
20137TIP3    H281903   1.535   1.102  36.531  0.4388  0.9624 -0.9707
20138TIP3   OH281904   3.991   1.404  10.001 -0.0576 -0.1779 -0.7168
20138TIP3    H181905   3.942   1.440   9.927 -0.9485  3.1673  1.2685
20138TIP3    H281906   4.083   1.416   9.977 -0.3304  2.4977 -0.6984
20139TIP3   OH281907   3.281   0.183   6.618 -0.3216 -0.2048 -0.5571
20139TIP3    H181908   3.231   0.112   6.656  1.2664 -1.1908 -0.2203
20139TIP3    H281909   3.225   0.260   6.627 -0.7985 -0.7679  2.0276
20140TIP3   OH281910   2.014   1.394  36.756  1.0531  0.0624 -0.5526
20140TIP3    H181911   1.966   1.476  36.745  0.5592 -0.2794 -1.0179
20140TIP3    H281912   1.968   1.349  36.826  0.7685 -0.2032 -0.9027
20141TIP3   OH281913   2.479   3.999  32.346 -0.3095 -0.0972 -0.2046
20141TIP3    H181914   2.513   4.083  32.379 -0.9424 -0.1984  0.7319
20141TIP3    H281915   2.478   3.942  32.422  0.9351 -1.2535 -1.0112
20142TIP3   OH281916   1.044   2.892  41.796 -0.0776  0.9252 -0.0300
20142TIP3    H181917   0.985   2.862  41.865 -1.5526  1.7205 -0.8834
20142TIP3    H281918   1.100   2.817  41.778 -0.8691  0.1082  0.7849
20143TIP3   OH281919   1.474   0.502   3.185 -0.2236  0.0625  0.9970
20143TIP3    H181920   1.568   0.505   3.167 -0.3385  0.7774  0.4256
20143TIP3    H281921   1.464   0.438   3.254  0.6418 -0.3322  0.7666
20144TIP3   OH281922   0.694   2.809  34.594 -0.4262  0.6432  0.3570
20144TIP3    H181923   0.693   2.904  34.582  1.3391  0.5032 -1.3631
20144TIP3    H281924   0.631   2.777  34.529  0.2743  0.5643 -0.2972
20145TIP3   OH281925   1.533   2.290  16.711  0.7628  0.3633  0.2190
20145TIP3    H181926   1.595   2.280  16.783  0.0518  0.0368  0.7932
20145TIP3    H281927   1.582   2.340  16.645  1.7546 -0.1946  0.5081
20146TIP3   OH281928   1.467   2.426   0.290  0.5014 -0.6759  0.9007
20146TIP3    H181929   1.487   2.357   0.226  2.8363  0.1254  0.6529
20146TIP3    H281930   1.427   2.379   0.363  0.2473 -2.0113 -0.0533
20147TIP3   OH281931   0.899   0.189   2.490 -0.1148 -0.6595  0.2728
20147TIP3    H181932   0.839   0.262   2.507 -0.1218 -0.8357  1.0254
20147TIP3    H281933   0.856   0.139   2.421 -0.9323 -0.8904  0.9365
20148TIP3   OH281934   0.168   1.010  44.351 -0.0126  0.5192 -0.0215
20148TIP3    H181935   0.205   1.074  44.411  0.5581 -0.4653  0.7058
20148TIP3    H281936   0.076   1.004  44.376 -0.0529  0.9851 -0.0430
20149TIP3   OH281937   1.666   0.149  45.394 -0.0736 -0.1896  0.7195
20149TIP3    H181938   1.752   0.189  45.407 -0.0364  0.9330 -2.1388
20149TIP3    H281939   1.624   0.152  45.480  1.6037  2.0848  1.5445
20150TIP3   OH281940   2.807   1.724  44.974  0.3707 -0.5374 -0.2551
20150TIP3    H181941   2.774   1.808  44.943 -0.5567 -1.0241 -0.6217
20150TIP3    H281942   2.784   1.721  45.067 -2.3585 -1.6451 -0.8856
20151TIP3   OH281943   1.488   3.800  10.324  0.3177  0.4268  0.1796
20151TIP3    H181944   1.534   3.717  10.330  1.5541  1.1103  0.5267
20151TIP3    H281945   1.486   3.820  10.230  0.9506  0.4948  0.1738
20152TIP3   OH281946   1.592   4.019  34.238 -0.4514  0.1860 -0.2074
20152TIP3    H181947   1.626   4.107  34.224 -0.6192  0.2229 -0.3862
20152TIP3    H281948   1.574   4.015  34.332 -1.2476  0.6430 -0.3271
20153TIP3   OH281949   0.981   2.910  43.214  0.0520  0.4764  0.4009
20153TIP3    H181950   0.939   2.842  43.161  1.0810  1.0211 -1.2014
20153TIP3    H281951   0.908   2.959  43.252 -0.7185 -0.2025 -0.1653
20154TIP3   OH281952   2.428   1.092  44.216 -0.2469  0.4549  0.0399
20154TIP3    H181953   2.355   1.069  44.159 -0.5104  2.1887 -0.4049
20154TIP3    H281954   2.389   1.149  44.283  0.7128  1.6301 -0.3617
20155TIP3   OH281955   1.020   3.510  46.418 -0.4488  0.3550 -0.2710
20155TIP3    H181956   1.006   3.539  46.328 -1.0528 -0.7930 -0.5641
20155TIP3    H281957   0.947   3.451  46.436  0.6253 -0.8286  0.3552
20156TIP3   OH281958   3.544   2.783  10.161  0.0535  0.0376 -0.7043
20156TIP3    H181959   3.566   2.769  10.069  0.1251  0.1444 -0.7031
20156TIP3    H281960   3.618   2.832  10.197  1.0278 -1.8327 -0.0551
20157TIP3   OH281961   2.469   2.145  34.996  0.6399  0.4000 -0.1331
20157TIP3    H181962   2.381   2.111  35.014  1.3586 -1.6667 -0.2726
20157TIP3    H281963   2.454   2.225  34.945 -1.1919  1.4572  1.9007
20158TIP3   OH281964   3.016   0.962  35.195 -0.7071 -0.0434  0.1065
20158TIP3    H181965   3.058   0.905  35.130  0.6444  1.5926 -0.5250
20158TIP3    H281966   3.000   0.904  35.270 -1.0262 -1.6510 -1.1491
20159TIP3   OH281967   1.200   3.064  10.243  0.0679 -0.0746 -0.1276
20159TIP3    H181968   1.219   3.143  10.193  0.4298  0.9837  1.6071
20159TIP3    H281969   1.123   3.026  10.201  1.9875 -0.8712 -3.2740
20160TIP3   OH281970   1.179   3.289  12.175 -0.0176  0.8249  0.1483
20160TIP3    H181971   1.156   3.220  12.237 -0.7793  2.0320  1.2652
20160TIP3    H281972   1.126   3.270  12.098  0.0605 -0.0406  0.2958
20161TIP3   OH281973   0.866   2.140   0.396  0.4520  0.1843 -0.3278
20161TIP3    H181974   0.884   2.056   0.438 -0.4352  0.5864  0.8994
20161TIP3    H281975   0.899   2.129   0.307 -1.2407 -2.0779 -0.7615
20162TIP3   OH281976   1.818   0.729   2.639  0.2293  0.3334 -0.7501
20162TIP3    H181977   1.854   0.746   2.726  0.2590  2.0562 -1.0570
20162TIP3    H281978   1.789   0.815   2.608 -1.8677 -0.5708 -1.5340
20163TIP3   OH281979   2.017   1.133  10.685  0.3975  0.0395 -0.6290
20163TIP3    H181980   2.061   1.049  10.689 -0.4661 -0.4144 -0.2984
20163TIP3    H281981   1.939   1.122  10.740 -0.1167  0.8172 -1.1789
20164TIP3   OH281982   0.167   3.144   4.221 -0.0231 -0.1976 -0.4191
20164TIP3    H181983   0.162   3.079   4.151  1.0945 -1.5517  0.6927
20164TIP3    H281984   0.259   3.144   4.248 -0.2000  1.1230  0.2983
20165TIP3   OH281985   1.843   2.307  46.537 -0.3112 -0.2354 -0.2107
20165TIP3    H181986   1.872   2.324  46.626 -2.1554  0.7761  0.2463
20165TIP3    H281987   1.833   2.394  46.497  3.9389 -0.6143 -2.7187
20166TIP3   OH281988   0.789   0.331   9.008  0.1667  0.1808  0.2483
20166TIP3    H181989   0.745   0.338   8.923 -1.1783  2.3699  1.0143
20166TIP3    H281990   0.845   0.254   9.001 -0.5747 -0.2077 -2.2999
20167TIP3   OH281991   2.194   1.441   5.890 -0.4602 -0.1976  0.0712
20167TIP3    H181992   2.227   1.376   5.829  0.5723  1.3530 -1.1193
20167TIP3    H281993   2.242   1.521   5.868 -1.0965  0.7776  1.9904
20168TIP3   OH281994   1.483   0.875  36.023  0.0953 -0.6331 -0.0356
20168TIP3    H181995   1.398   0.840  36.050 -0.4042 -0.3334 -1.1661
20168TIP3    H281996   1.488   0.961  36.066 -1.1691  0.3115 -1.6692
20169TIP3   OH281997   3.635   2.502  16.253  0.2678  0.0355 -0.4507
20169TIP3    H181998   3.654   2.409  16.235 -0.2743 -0.0144 -0.7783
20169TIP3    H281999   3.721   2.544  16.255  0.6746 -0.7627  1.3936
20170TIP3   OH282000   2.972   1.356  40.706 -0.1194 -0.3750  0.0449
20170TIP3    H182001   3.007   1.302  40.777 -0.6355  0.2143  0.7493
20170TIP3    H282002   2.982   1.301  40.628  0.4964 -1.0064  0.5578
20171TIP3   OH282003   3.264   3.191  47.026  0.3011 -0.2877  0.6212
20171TIP3    H182004   3.342   3.222  46.980  0.3422 -0.6128  0.4630
20171TIP3    H282005   3.233   3.118  46.972  0.5334 -0.8804  1.2762
20172TIP3   OH282006   0.350   3.755  46.083  0.0613 -0.4403  0.2484
20172TIP3    H182007   0.303   3.676  46.111 -0.6347 -0.3582 -0.6250
20172TIP3    H282008   0.389   3.790  46.164 -2.1945  0.0199  1.2231
20173TIP3   OH282009   2.111   3.911   8.889  0.2579 -0.7530 -0.7605
20173TIP3    H182010   2.099   3.933   8.796 -0.2225  1.9030 -0.1361
20173TIP3    H282011   2.022   3.914   8.926  0.6746  0.5381  0.2115
20174TIP3   OH282012   2.731   1.064  35.763  0.2779 -0.5650  0.1046
20174TIP3    H182013   2.685   1.136  35.719 -0.6252 -2.1998 -1.7450
20174TIP3    H282014   2.765   1.104  35.843 -0.4341  1.8457 -0.7011
20175TIP3   OH282015   2.288   3.714  27.074 -0.2099 -0.5725 -0.2200
20175TIP3    H182016   2.265   3.669  27.155 -1.6820  1.9845  0.9136
20175TIP3    H282017   2.204   3.738  27.035  0.4910  0.6697 -1.0405
20176TIP3   OH282018   0.156   2.102   1.089 -0.6186  0.3303 -0.4522
20176TIP3    H182019   0.181   2.082   0.999 -0.6022  1.3772 -0.6972
20176TIP3    H282020   0.060   2.099   1.088 -0.6209  0.4050 -0.5269
20177TIP3   OH282021   0.795   1.923   2.475 -0.0077 -0.2688  0.0060
20177TIP3    H182022   0.791   1.840   2.524 -2.4147 -0.2814 -0.0886
20177TIP3    H282023   0.805   1.989   2.543  0.0581 -0.4981  0.2248
20178TIP3   OH282024   3.370   2.904  36.766  0.1221  0.3994 -0.3079
20178TIP3    H182025   3.288   2.877  36.726 -0.4127  1.9071 -0.2832
20178TIP3    H282026   3.371   2.860  36.851 -0.0722 -0.5761 -0.7951
20179TIP3   OH282027   1.016   0.272   8.472 -0.0394 -0.5768 -0.2402
20179TIP3    H182028   0.961   0.340   8.433 -0.0622 -0.9945 -0.9702
20179TIP3    H282029   0.954   0.208   8.508 -0.0178  0.0557  0.9520
20180TIP3   OH282030   3.902   2.172  19.041 -0.1143 -0.3303 -0.2611
20180TIP3    H182031   3.939   2.087  19.067 -0.0375 -0.4143 -0.6439
20180TIP3    H282032   3.847   2.152  18.965 -0.5917 -0.1350  0.0334
20181TIP3   OH282033   1.222   0.502  40.344 -0.0456 -0.0761 -0.0620
20181TIP3    H182034   1.162   0.460  40.406 -0.4855  1.5508  0.6884
20181TIP3    H282035   1.184   0.589  40.330  0.8235  0.0953 -1.5361
20182TIP3   OH282036   3.669   1.349  21.547 -0.6335 -0.0699  0.5403
20182TIP3    H182037   3.583   1.339  21.505 -0.0194 -1.1977 -0.5133
20182TIP3    H282038   3.729   1.365  21.475  0.3785 -1.5570  0.9956
20183TIP3   OH282039   1.414   2.896  15.177 -0.0119 -0.0030 -0.3037
20183TIP3    H182040   1.402   2.970  15.117 -0.3249 -0.8805 -1.3640
20183TIP3    H282041   1.340   2.838  15.159  1.4567 -1.6932 -1.2203
20184TIP3   OH282042   3.149   2.792  33.015 -0.4528  0.1636 -0.2568
20184TIP3    H182043   3.084   2.728  32.987 -0.3182 -0.3354  0.5445
20184TIP3    H282044   3.223   2.779  32.956 -0.8862  0.4002 -0.8596
20185TIP3   OH282045   2.008   1.472  13.868  0.5289 -0.7617 -0.2748
20185TIP3    H182046   1.962   1.450  13.950  0.8183  0.0533  0.1188
20185TIP3    H282047   1.938   1.484  13.804  0.0788  1.4694  0.5571
20186TIP3   OH282048   2.359   0.013   7.339  0.5027 -0.2167 -0.5282
20186TIP3    H182049   2.305   0.036   7.263 -0.6205 -1.1620 -0.0584
20186TIP3    H282050   2.384  -0.078   7.324 -0.5971 -0.7568  0.6734
20187TIP3   OH282051   4.017   3.764   8.850 -0.5311 -0.6188 -0.2399
20187TIP3    H182052   4.030   3.695   8.785  1.3950 -0.9635  0.4226
20187TIP3    H282053   4.019   3.846   8.800 -1.2923 -0.9653 -0.8492
20188TIP3   OH282054   3.217   3.757  39.166 -0.1886 -0.2520  0.6361
20188TIP3    H182055   3.171   3.700  39.228  1.4558 -1.1286  1.1011
20188TIP3    H282056   3.204   3.715  39.081 -1.3502  0.2498  0.5406
20189TIP3   OH282057   1.115   1.423   3.147 -0.1408  0.5603 -0.0717
20189TIP3    H182058   1.116   1.331   3.171  1.1273  0.3407 -0.8750
20189TIP3    H282059   1.085   1.468   3.226 -0.1462 -0.4766  0.5355
20190TIP3   OH282060   0.577   2.406   1.961  0.0997 -0.2143 -0.0316
20190TIP3    H182061   0.511   2.340   1.938 -1.0040  1.4341 -2.0014
20190TIP3    H282062   0.537   2.489   1.933  1.5404  1.2789  2.0676
20191TIP3   OH282063   3.404   2.129  35.962  0.7168  0.4406  0.2876
20191TIP3    H182064   3.474   2.137  35.897  0.5897  1.7397  0.2894
20191TIP3    H282065   3.450   2.128  36.046  0.7297  1.3981  0.2929
20192TIP3   OH282066   0.307   1.198  38.625 -0.0539 -0.3272 -0.6851
20192TIP3    H182067   0.214   1.221  38.628 -0.2409 -1.0664 -0.5713
20192TIP3    H282068   0.353   1.282  38.621 -0.7254  0.0430 -0.6866
20193TIP3   OH282069   3.515   3.553  30.323 -0.4923  0.1438  0.5741
20193TIP3    H182070   3.455   3.478  30.332 -0.4875 -0.0480 -0.7776
20193TIP3    H282071   3.542   3.550  30.232  2.3517 -0.3551  1.3387
20194TIP3   OH282072   3.417   2.501   7.077  0.3226  0.2485 -0.1739
20194TIP3    H182073   3.412   2.582   7.128  1.3101 -0.3217  0.8722
20194TIP3    H282074   3.502   2.463   7.099 -0.6702 -1.7669  0.4388
20195TIP3   OH282075   2.019   2.877  31.477  0.3776 -0.6094 -0.7364
20195TIP3    H182076   1.998   2.812  31.544  1.3408 -0.9379 -0.7384
20195TIP3    H282077   2.002   2.832  31.394 -0.4302 -0.3349 -0.7281
20196TIP3   OH282078   1.321   0.776   7.098 -0.0513  0.1426  0.2950
20196TIP3    H182079   1.379   0.771   7.174  1.1491  3.3687 -0.2663
20196TIP3    H282080   1.254   0.839   7.122  0.9364  2.0318 -1.5339
20197TIP3   OH282081   2.469   1.631   2.325 -0.4912  0.3842 -0.1596
20197TIP3    H182082   2.497   1.632   2.234 -2.2910 -0.0696 -0.7594
20197TIP3    H282083   2.423   1.548   2.336 -1.3097  0.9340  0.8128
20198TIP3   OH282084   3.352   1.666  34.043 -0.3797  0.0047  0.0966
20198TIP3    H182085   3.420   1.615  34.085  0.4413  1.3840  0.4969
20198TIP3    H282086   3.274   1.652  34.097  0.0223 -0.2462  0.6143
20199TIP3   OH282087   1.376   1.110   7.022 -0.7728 -0.1800 -0.0875
20199TIP3    H182088   1.371   1.028   7.070  1.7678 -0.4785 -0.1878
20199TIP3    H282089   1.425   1.169   7.080 -3.0370  1.5264  0.2458
20200TIP3   OH282090   1.038   0.823  38.092 -0.3636 -0.3769  0.2293
20200TIP3    H182091   1.043   0.839  37.997 -0.7235 -0.3654  0.2131
20200TIP3    H282092   1.058   0.908  38.131  1.5636 -0.7691  0.1892
20201TIP3   OH282093   3.057   2.540   6.044  0.0294  0.3066 -0.4661
20201TIP3    H182094   3.150   2.535   6.020 -0.1477 -1.3513 -0.9263
20201TIP3    H282095   3.035   2.633   6.035  1.6847  0.7740 -0.1275
20202TIP3   OH282096   3.871   3.684   2.272  0.1834 -0.1833  0.2488
20202TIP3    H182097   3.893   3.745   2.201 -0.3583 -2.4216 -1.9832
20202TIP3    H282098   3.778   3.701   2.289 -0.9643 -2.5043 -2.8102
20203TIP3   OH282099   3.944   2.204  45.521 -0.3268  0.1395 -0.1126
20203TIP3    H182100   3.968   2.293  45.546  0.5181  0.0100 -0.4345
20203TIP3    H282101   3.866   2.185  45.573 -1.3618  1.5634 -1.0539
20204TIP3   OH282102   3.442   3.708  38.812  0.2967 -0.5166  0.1105
20204TIP3    H182103   3.461   3.683  38.903 -2.6754  1.5380  1.4494
20204TIP3    H282104   3.423   3.802  38.817  0.1923 -0.3083 -2.7152
20205TIP3   OH282105   1.626   0.613  42.186  0.4214 -0.7689 -0.4874
20205TIP3    H182106   1.607   0.702  42.216 -0.5030 -0.9982 -0.3347
20205TIP3    H282107   1.706   0.588  42.232  1.3662  0.4184 -1.4675
20206TIP3   OH282108   3.268   0.462  33.937 -0.2999 -0.1745  0.3407
20206TIP3    H182109   3.317   0.478  33.856  0.8352  0.0634  1.0463
20206TIP3    H282110   3.326   0.408  33.990 -0.9224 -0.1225  1.0930
20207TIP3   OH282111   2.108   2.852   8.344 -0.2539  0.0852  0.7522
20207TIP3    H182112   2.170   2.825   8.411 -0.9998  0.5905  1.6663
20207TIP3    H282113   2.072   2.935   8.376 -0.8686  0.1634 -0.1032
20208TIP3   OH282114   0.793   1.424  21.325  0.0873  0.1222  0.0895
20208TIP3    H182115   0.699   1.429  21.309  0.2642  0.6831 -0.8234
20208TIP3    H282116   0.806   1.476  21.405 -0.4232 -0.2893  0.4452
20209TIP3   OH282117   1.001   0.568  46.354 -0.1467 -0.0015  0.2934
20209TIP3    H182118   1.003   0.479  46.390 -0.6097  0.4558  1.4773
20209TIP3    H282119   0.991   0.625  46.430  1.8131  1.2038 -0.2810
20210TIP3   OH282120   1.774   3.822  45.131 -0.0651 -0.8519  0.3846
20210TIP3    H182121   1.870   3.819  45.139 -0.0111  1.5338  1.2353
20210TIP3    H282122   1.758   3.833  45.038  0.5509  0.0350  0.3735
20211TIP3   OH282123   1.576   1.493  18.531 -0.1725  0.6152  0.6998
20211TIP3    H182124   1.550   1.450  18.449 -0.3399 -1.6082  1.8439
20211TIP3    H282125   1.499   1.483  18.588  0.1009  1.7355  1.2881
20212TIP3   OH282126   4.013   1.802  21.315  0.0229 -0.0481  0.0626
20212TIP3    H182127   3.921   1.783  21.334 -0.4727  0.8273 -1.2915
20212TIP3    H282128   4.014   1.822  21.221  1.5949 -0.0054  0.0644
20213TIP3   OH282129   0.619   1.994  20.891  0.2812 -0.6701 -0.3097
20213TIP3    H182130   0.662   1.993  20.977 -0.2453  0.0159 -0.0250
20213TIP3    H282131   0.649   2.075  20.850 -0.2344 -0.4990 -0.3605
20214TIP3   OH282132   0.157   1.581  33.804  0.0645 -0.2166  0.0559
20214TIP3    H182133   0.140   1.492  33.773 -1.1905  0.6067 -1.8809
20214TIP3    H282134   0.070   1.620  33.812  0.6410  1.3726 -0.9861
20215TIP3   OH282135   1.276   2.165  13.402 -0.7187  0.5480  0.8953
20215TIP3    H182136   1.341   2.236  13.408 -0.5350  0.4105  0.5587
20215TIP3    H282137   1.328   2.085  13.403 -0.8581  0.4423  0.3554
20216TIP3   OH282138   1.559   3.035  42.431 -0.1524  0.6549 -0.0567
20216TIP3    H182139   1.596   2.956  42.472  0.9565 -0.0237 -2.1862
20216TIP3    H282140   1.497   3.001  42.366 -0.4989  1.5865 -0.2306
20217TIP3   OH282141   0.500   1.399  11.644  0.1689  0.0147  0.0773
20217TIP3    H182142   0.443   1.344  11.696  1.1591  0.5749  1.8359
20217TIP3    H282143   0.471   1.489  11.663  1.4971  0.3016  0.9209
20218TIP3   OH282144   1.820   2.873  21.660 -0.2471  0.2869 -0.6286
20218TIP3    H182145   1.869   2.890  21.740 -0.0756  0.5465 -0.7872
20218TIP3    H282146   1.745   2.932  21.664  0.2755  1.0045 -1.1129
20219TIP3   OH282147   2.133   3.660  47.623 -0.5520 -0.1535 -0.0672
20219TIP3    H182148   2.224   3.684  47.640 -0.4547  0.8808 -1.8487
20219TIP3    H282149   2.086   3.743  47.626 -0.9711 -0.2993 -1.8943
20220TIP3   OH282150   3.758   1.972  41.459 -0.5070 -0.2598  0.8189
20220TIP3    H182151   3.778   1.919  41.381 -2.3645 -0.1961  0.2472
20220TIP3    H282152   3.837   2.023  41.474 -0.3641  0.3563 -1.5589
20221TIP3   OH282153   1.913   1.721  46.589  0.2746 -0.2489  0.3016
20221TIP3    H182154   1.922   1.651  46.654 -0.7220 -2.0542 -1.4033
20221TIP3    H282155   1.821   1.747  46.594  0.7553  1.4067  1.3092
20222TIP3   OH282156   2.500   3.189  42.337  0.8693  0.1564 -0.1102
20222TIP3    H182157   2.530   3.214  42.249 -0.2246  1.1756 -0.2276
20222TIP3    H282158   2.447   3.264  42.366 -0.4554 -1.0118  0.5893
20223TIP3   OH282159   1.983   1.712  36.778  0.1738 -0.1853 -0.0169
20223TIP3    H182160   2.016   1.688  36.865 -0.4501  0.2298  0.3454
20223TIP3    H282161   1.888   1.721  36.790  0.0994  0.0135 -0.7109
20224TIP3   OH282162   0.667   2.204  13.913 -0.0365  0.5479 -0.4126
20224TIP3    H182163   0.735   2.180  13.850 -0.4998 -0.3433 -0.5960
20224TIP3    H282164   0.708   2.192  13.999 -0.1567 -0.6952 -0.5050
20225TIP3   OH282165   0.236   3.504   2.948  0.2969 -0.2421  0.3850
20225TIP3    H182166   0.261   3.594   2.925  0.5712 -0.1715  0.9405
20225TIP3    H282167   0.318   3.463   2.976 -0.0715 -0.2127  1.5851
20226TIP3   OH282168   3.804   0.758  10.941 -0.0423 -0.6786  0.2119
20226TIP3    H182169   3.760   0.675  10.958  0.5708 -1.4516 -1.7752
20226TIP3    H282170   3.827   0.756  10.848 -2.0254  2.6708 -0.5535
20227TIP3   OH282171   0.322   1.515   1.109  0.2462 -0.2330 -0.2488
20227TIP3    H182172   0.346   1.435   1.156 -0.0583 -0.6151 -0.7271
20227TIP3    H282173   0.365   1.507   1.024 -0.1515 -0.1044 -0.4669
20228TIP3   OH282174   1.530   0.157  14.454 -0.0327  0.0259 -0.2079
20228TIP3    H182175   1.559   0.067  14.440  0.7933  0.3301 -0.5439
20228TIP3    H282176   1.605   0.210  14.427 -0.4875  0.8112  0.0511
20229TIP3   OH282177   0.033   0.313  11.065 -0.0366 -0.5534  0.1238
20229TIP3    H182178   0.018   0.392  11.118 -0.1102 -1.1609  1.0325
20229TIP3    H282179  -0.022   0.326  10.987  0.5816  0.6516 -0.1308
20230TIP3   OH282180   3.050   2.637  45.215 -0.3135  0.8602  0.0723
20230TIP3    H182181   3.135   2.677  45.198 -0.7627  1.7782 -0.1280
20230TIP3    H282182   3.068   2.567  45.278  0.7029  0.4623 -0.6311
20231TIP3   OH282183   2.753   2.613  45.230 -0.6945  0.3348 -0.1593
20231TIP3    H182184   2.724   2.571  45.149 -2.9908  2.4242 -0.5564
20231TIP3    H282185   2.848   2.604  45.229 -0.8052 -1.3736 -2.0888
20232TIP3   OH282186   2.287   2.445  10.997 -0.4665 -0.4145  0.2545
20232TIP3    H182187   2.202   2.485  11.017 -0.5731  0.1628 -1.2021
20232TIP3    H282188   2.320   2.496  10.922  0.6729 -1.3057  0.1292
20233TIP3   OH282189   3.039   1.932  10.601 -0.1344 -0.4482  0.1799
20233TIP3    H182190   3.076   1.921  10.688  1.5823 -1.6283 -0.6523
20233TIP3    H282191   2.966   1.869  10.598 -2.4996  1.9757  1.8644
20234TIP3   OH282192   0.841   1.919  46.274 -0.2650 -0.2512 -0.4825
20234TIP3    H182193   0.784   1.842  46.271 -1.3956  0.5673 -0.8932
20234TIP3    H282194   0.782   1.993  46.259  0.4374  0.8858  1.8768
20235TIP3   OH282195   0.507   3.344  11.040 -0.2074  0.2467  0.2341
20235TIP3    H182196   0.588   3.330  10.992 -1.6256 -1.3464 -1.8476
20235TIP3    H282197   0.511   3.282  11.112 -0.1238 -0.7601 -0.6183
20236TIP3   OH282198   2.772   4.070  39.895  0.0300  0.2355 -0.0398
20236TIP3    H182199   2.759   4.024  39.978  0.2536  0.6516  0.2282
20236TIP3    H282200   2.761   4.002  39.828  1.9157 -0.5628  0.4043
20237TIP3   OH282201   3.966   3.401  38.432 -0.1251 -0.6818  0.1850
20237TIP3    H182202   4.055   3.366  38.431  0.0737 -0.1862  0.2409
20237TIP3    H282203   3.917   3.340  38.486  0.2548 -0.7902  0.4101
20238TIP3   OH282204   0.401   3.992   8.639  0.2042 -0.1023  0.5384
20238TIP3    H182205   0.331   4.056   8.654  1.1043  1.2942 -0.9605
20238TIP3    H282206   0.381   3.920   8.699 -2.3811  0.3584  0.3381
20239TIP3   OH282207   3.507   1.577  11.046 -0.4224 -0.4754  0.3853
20239TIP3    H182208   3.527   1.597  11.137  1.3969  2.3167 -0.5083
20239TIP3    H282209   3.579   1.521  11.016  0.3057  0.6147  0.0535
20240TIP3   OH282210   0.765   2.296   2.143 -0.0253 -0.1544 -0.1488
20240TIP3    H182211   0.850   2.285   2.102 -0.3808 -3.7000 -0.1867
20240TIP3    H282212   0.716   2.353   2.083  1.4783 -0.1491 -1.4175
20241TIP3   OH282213   4.030   0.452  36.219 -0.0242 -0.0109  0.1250
20241TIP3    H182214   4.005   0.449  36.311  0.8670 -2.8365  0.3729
20241TIP3    H282215   3.973   0.388  36.176  1.0394 -0.3468 -0.8446
20242TIP3   OH282216   1.459   3.279   5.861 -0.1841 -0.4486 -0.1418
20242TIP3    H182217   1.549   3.259   5.887 -0.8979 -3.1127  0.6111
20242TIP3    H282218   1.406   3.251   5.935 -1.7434 -0.1502 -1.1005
20243TIP3   OH282219   0.354   3.622  33.355  0.3717  0.6673  0.1126
20243TIP3    H182220   0.301   3.546  33.377 -0.8731  0.8522 -1.9093
20243TIP3    H282221   0.329   3.688  33.419 -0.7195  0.2455  0.1468
20244TIP3   OH282222   3.036   2.929  44.099 -0.6159  0.3315  0.9104
20244TIP3    H182223   3.104   2.996  44.101 -1.8686  1.6391  0.7286
20244TIP3    H282224   2.975   2.953  44.168 -1.3821 -0.2880  0.4773
20245TIP3   OH282225   2.492   2.459  32.345  0.0924 -0.6494  0.4391
20245TIP3    H182226   2.406   2.439  32.307 -0.3860  1.5037  0.2857
20245TIP3    H282227   2.554   2.432  32.277 -0.5246 -0.8484 -0.0636
20246TIP3   OH282228   2.907   1.723  37.993  0.6501 -0.0318 -0.2405
20246TIP3    H182229   2.946   1.670  38.062  0.6312  0.2834  0.0125
20246TIP3    H282230   2.813   1.720  38.010  0.5800 -0.5642 -0.6869
20247TIP3   OH282231   2.431   2.189   1.249 -0.1202 -0.3398  0.2037
20247TIP3    H182232   2.387   2.105   1.264 -1.3045 -0.2940 -2.3509
20247TIP3    H282233   2.370   2.254   1.284 -0.5602 -0.4573 -0.3085
20248TIP3   OH282234   0.426   0.842  37.963  0.1887 -0.0232  0.2722
20248TIP3    H182235   0.500   0.838  37.903 -0.9269 -1.7476 -1.1047
20248TIP3    H282236   0.373   0.766  37.940 -2.1143  1.2366  1.0732
20249TIP3   OH282237   1.090   0.666   1.762  0.2640 -0.5783  0.1124
20249TIP3    H182238   1.032   0.597   1.730  0.0176 -0.8926  1.1816
20249TIP3    H282239   1.157   0.675   1.694 -0.1302 -1.3399 -0.3911
20250TIP3   OH282240   1.715   0.892  46.208  0.2645 -0.1654 -0.1195
20250TIP3    H182241   1.703   0.942  46.127  1.6167 -0.8348 -0.7685
20250TIP3    H282242   1.628   0.887  46.247 -0.3351  0.5304 -1.3225
20251TIP3   OH282243   3.599   3.492  12.198  0.5061  0.5956  0.2278
20251TIP3    H182244   3.588   3.587  12.207  2.5835  0.7956  1.0865
20251TIP3    H282245   3.585   3.458  12.287  1.2470  0.2813  0.2293
20252TIP3   OH282246   4.093   0.243  40.912  0.0914 -0.3696 -0.2968
20252TIP3    H182247   4.132   0.157  40.928 -0.0714 -0.2905  0.5931
20252TIP3    H282248   4.168   0.299  40.889  0.3134 -0.5454 -0.0132
20253TIP3   OH282249   1.720   0.790  46.568 -0.3659  0.3123 -0.3768
20253TIP3    H182250   1.784   0.861  46.565  0.6241 -0.5677 -0.7953
20253TIP3    H282251   1.765   0.719  46.615 -1.4162  0.0351  0.2317
20254TIP3   OH282252   1.407   3.925   4.808  0.1487 -0.5850  1.2617
20254TIP3    H182253   1.420   4.018   4.794 -2.8957 -0.2442 -0.1224
20254TIP3    H282254   1.441   3.908   4.895  2.8476  1.2883  0.6695
20255TIP3   OH282255   2.380   2.167  36.145  0.4657 -0.4942  0.2859
20255TIP3    H182256   2.320   2.115  36.092  1.1699 -1.4949  0.4359
20255TIP3    H282257   2.367   2.135  36.234  0.9825 -0.4880  0.3653
20256TIP3   OH282258   3.784   2.472   8.233 -0.0091  0.1901 -0.2758
20256TIP3    H182259   3.799   2.566   8.226  2.6669 -0.2166 -0.9561
20256TIP3    H282260   3.786   2.440   8.143 -1.6777 -0.4651 -0.1180
20257TIP3   OH282261   0.412   2.818  47.654  0.1050 -0.5399 -0.1432
20257TIP3    H182262   0.452   2.815  47.567 -0.3351 -0.0952 -0.3750
20257TIP3    H282263   0.379   2.730  47.668  0.0777 -0.5875 -0.4815
20258TIP3   OH282264   3.225   2.362   9.805 -0.2252  0.3185  0.2408
20258TIP3    H182265   3.219   2.309   9.884  1.4081 -2.1276 -1.1366
20258TIP3    H282266   3.316   2.391   9.801 -0.2653  0.3589 -0.7364
20259TIP3   OH282267   0.788   0.855   9.963 -0.0399  0.5355 -0.0660
20259TIP3    H182268   0.705   0.869  10.008  0.0412 -0.4992  0.4399
20259TIP3    H282269   0.775   0.892   9.875 -1.5553 -0.9315 -0.4959
20260TIP3   OH282270   1.855   3.418  43.707  0.2301 -0.0833  0.1032
20260TIP3    H182271   1.795   3.349  43.677  0.2491 -0.5519  1.0842
20260TIP3    H282272   1.818   3.499  43.672 -0.5801 -0.4493  0.0884
20261TIP3   OH282273   1.548   0.255  46.167  0.3683 -0.1223  0.5491
20261TIP3    H182274   1.544   0.171  46.212 -0.3907  1.1390  3.0264
20261TIP3    H282275   1.531   0.320  46.235 -2.3786  1.9072 -1.7905
20262TIP3   OH282276   3.521   1.310  47.736  0.0792 -0.6292 -0.4001
20262TIP3    H182277   3.587   1.278  47.675 -1.9404 -1.7295 -2.1280
20262TIP3    H282278   3.512   1.403  47.714  0.0824 -0.7860 -1.0829
20263TIP3   OH282279   2.213   3.239  37.163  0.3236  0.0369 -0.3064
20263TIP3    H182280   2.235   3.277  37.078 -0.7017  0.9983 -0.1651
20263TIP3    H282281   2.165   3.159  37.142  1.9179 -0.8884 -0.6047
20264TIP3   OH282282   2.352   0.980  39.738  0.1567  0.0398  0.1513
20264TIP3    H182283   2.383   0.905  39.688  0.4622  1.0217 -1.1695
20264TIP3    H282284   2.303   1.033  39.675 -1.2593  0.2734  1.3813
20265TIP3   OH282285   0.259   0.028  27.640  0.5864  0.7206 -0.3493
20265TIP3    H182286   0.328   0.094  27.647  0.6554  0.9031 -2.2769
20265TIP3    H282287   0.240   0.023  27.546  0.1889 -1.6037 -0.2070
20266TIP3   OH282288   1.955   3.084   2.978 -0.3270  0.3085 -0.0405
20266TIP3    H182289   2.046   3.064   2.958 -0.3942 -0.8433  0.6626
20266TIP3    H282290   1.912   3.092   2.893  0.7374  2.6324 -0.4319
20267TIP3   OH282291   1.734   3.857   7.718 -0.3389  0.1885 -0.1031
20267TIP3    H182292   1.718   3.763   7.730 -0.4615  0.1395 -0.6208
20267TIP3    H282293   1.669   3.884   7.654  0.1928  0.4703 -0.5315
20268TIP3   OH282294   0.073   2.987  41.069  0.0589 -0.6458 -0.4578
20268TIP3    H182295   0.081   3.057  41.004 -0.9675 -0.9429 -0.9273
20268TIP3    H282296   0.137   2.921  41.041  1.5754  0.3937  0.4157
20269TIP3   OH282297   0.883   2.052  15.317  0.0109  0.2657  0.2606
20269TIP3    H182298   0.871   2.058  15.412 -0.3839 -0.1308  0.2413
20269TIP3    H282299   0.794   2.058  15.281  0.2135  1.0283 -0.1213
20270TIP3   OH282300   3.191   3.262  41.095  0.0083 -0.0829  0.3247
20270TIP3    H182301   3.187   3.346  41.049  0.9744 -0.2376 -0.0681
20270TIP3    H282302   3.160   3.281  41.184  0.9191  0.8570  0.4524
20271TIP3   OH282303   3.755   2.913  43.239  0.2885  0.7158  0.2639
20271TIP3    H182304   3.791   2.830  43.271  0.7458  0.2017 -1.4605
20271TIP3    H282305   3.722   2.957  43.318 -2.1580 -2.1227  1.0322
20272LIG     O182306   2.342   2.354  23.611  0.2434  0.0466  0.1135
20272LIG     O282307   1.984   2.158  23.398  0.4925 -1.1796 -0.0880
20272LIG     N182308   2.175   2.190  23.276  0.1891  0.7391 -0.0286
20272LIG     N282309   2.504   2.283  23.365 -0.3452  0.3089  0.3450
20272LIG     N382310   2.162   2.277  23.497 -0.4614 -0.5601  0.1814
20272LIG     N482311   2.408   2.187  23.191 -1.0561 -0.1726  1.0354
20272LIG     C182312   2.371   2.280  23.394 -0.4065 -0.6917 -0.3346
20272LIG     C282313   2.311   2.221  23.283 -0.3559  0.5014  0.3754
20272LIG     C382314   2.297   2.309  23.506  0.3740  1.4055  0.4363
20272LIG     C482315   2.102   2.204  23.391 -0.1771 -0.4233 -0.3584
20272LIG     C582316   2.522   2.229  23.245 -0.4627  0.3022 -0.3199
20272LIG     C682317   2.133   2.112  23.157  0.3090 -0.8004 -0.1071
20272LIG     C782318   2.605   2.333  23.453 -0.3898  0.1090 -0.5666
20272LIG     C882319   2.083   2.315  23.612  0.0701  0.7149 -0.3534
20272LIG     H182320   2.621   2.227  23.197 -0.4184 -1.0627 -0.1912
20272LIG     H282321   2.127   2.004  23.179 -1.1168 -0.4977  1.1466
20272LIG     H382322   2.209   2.128  23.078  0.1164  0.1148 -0.1210
20272LIG     H482323   2.027   2.132  23.129 -0.0660 -0.5192  1.3918
20272LIG     H582324   2.572   2.426  23.504  1.5420  0.1941  0.6172
20272LIG     H682325   2.699   2.350  23.396 -1.2814 -2.7716 -3.1631
20272LIG     H782326   2.622   2.258  23.533 -0.4156  0.4375 -0.2481
20272LIG     H882327   2.040   2.418  23.612 -0.1451  0.7817  3.6132
20272LIG     H982328   2.135   2.317  23.710  0.2080 -1.9375 -0.2998
20272LIG    H1082329   1.997   2.245  23.623 -0.5185  1.7783  4.2650
   4.10859   4.10859  47.75245
